
    -----------------------------------------------------------------------
          Psi4: An Open-Source Ab Initio Electronic Structure Package
                               Psi4 1.1 release

                         Git: Rev {HEAD} add49b9 


    R. M. Parrish, L. A. Burns, D. G. A. Smith, A. C. Simmonett,
    A. E. DePrince III, E. G. Hohenstein, U. Bozkaya, A. Yu. Sokolov,
    R. Di Remigio, R. M. Richard, J. F. Gonthier, A. M. James,
    H. R. McAlexander, A. Kumar, M. Saitow, X. Wang, B. P. Pritchard,
    P. Verma, H. F. Schaefer III, K. Patkowski, R. A. King, E. F. Valeev,
    F. A. Evangelista, J. M. Turney, T. D. Crawford, and C. D. Sherrill,
    J. Chem. Theory Comput. in press (2017).
    (doi: 10.1021/acs.jctc.7b00174)

    -----------------------------------------------------------------------


    Psi4 started on: Saturday, 11 November 2017 10:18PM

    Process ID:  15335
    PSIDATADIR: /cbio/jclab/home/chayas/anaconda/envs/py35/share/psi4
    Memory:     500.0 MiB
    Threads:    8
    
  ==> Input File <==

--------------------------------------------------------------------------

memory 5 Gb

molecule phepyrFOH_neutral {
  symmetry C1
  0 1 
  C      1.885   -1.036   -0.112
  C      0.807   -0.463   0.561
  C      3.814   -3.038   -1.201
  C      5.339   -1.983   0.332
  C      1.800   -1.079   2.676
  C      4.917   -3.581   -1.840
  C      6.373   -2.574   -0.375
  C      2.921   -1.631   0.608
  C      4.038   -2.225   -0.095
  C      0.764   -0.484   1.955
  C      2.878   -1.652   2.002
  N      6.195   -3.369   -1.454
  O      -0.289   0.076   2.612
  F      3.866   -2.220   2.709
  H      1.904   -1.012   -1.199
  H      0.002   -0.002   -0.006
  H      2.813   -3.248   -1.564
  H      5.552   -1.355   1.191
  H      1.772   -1.099   3.762
  H      4.796   -4.220   -2.708
  H      7.406   -2.418   -0.082
  H      -0.175   -0.018   3.571
  units Angstrom
}

dih_string = "1 8 9 3 315"
set optking fixed_dihedral = $dih_string

optimize('MP2/aug-cc-PVTZ')
--------------------------------------------------------------------------

  Memory set to   4.657 GiB by Python driver.
gradient() will perform analytic gradient computation.

*** tstart() called on gpu-2-14.local
*** at Sat Nov 11 22:18:36 2017

    SCF Algorithm Type (re)set to DF.

*** tstart() called on gpu-2-14.local
*** at Sat Nov 11 22:18:36 2017

   => Loading Basis Set <=

    Name: AUG-CC-PVTZ
    Role: ORBITAL
    Keyword: BASIS
    atoms 1-11  entry C          line   221 file /cbio/jclab/home/chayas/anaconda/envs/py35/share/psi4/basis/aug-cc-pvtz.gbs 
    atoms 12    entry N          line   267 file /cbio/jclab/home/chayas/anaconda/envs/py35/share/psi4/basis/aug-cc-pvtz.gbs 
    atoms 13    entry O          line   313 file /cbio/jclab/home/chayas/anaconda/envs/py35/share/psi4/basis/aug-cc-pvtz.gbs 
    atoms 14    entry F          line   359 file /cbio/jclab/home/chayas/anaconda/envs/py35/share/psi4/basis/aug-cc-pvtz.gbs 
    atoms 15-22 entry H          line    34 file /cbio/jclab/home/chayas/anaconda/envs/py35/share/psi4/basis/aug-cc-pvtz.gbs 


         ---------------------------------------------------------
                                   SCF
            by Justin Turney, Rob Parrish, and Andy Simmonett
                              RHF Reference
                        8 Threads,   4768 MiB Core
         ---------------------------------------------------------

  ==> Geometry <==

    Molecular point group: c1
    Full point group: C1

    Geometry (in Angstrom), charge = 0, multiplicity = 1:

       Center              X                  Y                   Z               Mass       
    ------------   -----------------  -----------------  -----------------  -----------------
           C         -1.321748760112     0.754794664288    -0.799643160951    12.000000000000
           C         -2.399748760112     1.327794664288    -0.126643160951    12.000000000000
           C          0.607251239888    -1.247205335712    -1.888643160951    12.000000000000
           C          2.132251239888    -0.192205335712    -0.355643160951    12.000000000000
           C         -1.406748760112     0.711794664288     1.988356839049    12.000000000000
           C          1.710251239888    -1.790205335712    -2.527643160951    12.000000000000
           C          3.166251239888    -0.783205335712    -1.062643160951    12.000000000000
           C         -0.285748760112     0.159794664288    -0.079643160951    12.000000000000
           C          0.831251239888    -0.434205335712    -0.782643160951    12.000000000000
           C         -2.442748760112     1.306794664288     1.267356839049    12.000000000000
           C         -0.328748760112     0.138794664288     1.314356839049    12.000000000000
           N          2.988251239888    -1.578205335712    -2.141643160951    14.003074004780
           O         -3.495748760112     1.866794664288     1.924356839049    15.994914619560
           F          0.659251239888    -0.429205335712     2.021356839049    18.998403224000
           H         -1.302748760112     0.778794664288    -1.886643160951     1.007825032070
           H         -3.204748760112     1.788794664288    -0.693643160951     1.007825032070
           H         -0.393748760112    -1.457205335712    -2.251643160951     1.007825032070
           H          2.345251239888     0.435794664288     0.503356839049     1.007825032070
           H         -1.434748760112     0.691794664288     3.074356839049     1.007825032070
           H          1.589251239888    -2.429205335712    -3.395643160951     1.007825032070
           H          4.199251239888    -0.627205335712    -0.769643160951     1.007825032070
           H         -3.381748760112     1.772794664288     2.883356839049     1.007825032070

  Running in c1 symmetry.

  Rotational constants: A =      0.06326  B =      0.01330  C =      0.01148 [cm^-1]
  Rotational constants: A =   1896.37767  B =    398.64001  C =    344.17819 [MHz]
  Nuclear repulsion =  815.195543058629255

  Charge       = 0
  Multiplicity = 1
  Electrons    = 98
  Nalpha       = 49
  Nbeta        = 49

  ==> Algorithm <==

  SCF Algorithm Type is DF.
  DIIS enabled.
  MOM disabled.
  Fractional occupation disabled.
  Guess Type is SAD.
  Energy threshold   = 1.00e-10
  Density threshold  = 1.00e-10
  Integral threshold = 0.00e+00

  ==> Primary Basis <==

  Basis Set: AUG-CC-PVTZ
    Blend: AUG-CC-PVTZ
    Number of shells: 268
    Number of basis function: 828
    Number of Cartesian functions: 970
    Spherical Harmonics?: true
    Max angular momentum: 3

   => Loading Basis Set <=

    Name: (AUG-CC-PVTZ AUX)
    Role: JKFIT
    Keyword: DF_BASIS_SCF
    atoms 1-11  entry C          line   161 file /cbio/jclab/home/chayas/anaconda/envs/py35/share/psi4/basis/aug-cc-pvtz-jkfit.gbs 
    atoms 12    entry N          line   223 file /cbio/jclab/home/chayas/anaconda/envs/py35/share/psi4/basis/aug-cc-pvtz-jkfit.gbs 
    atoms 13    entry O          line   285 file /cbio/jclab/home/chayas/anaconda/envs/py35/share/psi4/basis/aug-cc-pvtz-jkfit.gbs 
    atoms 14    entry F          line   347 file /cbio/jclab/home/chayas/anaconda/envs/py35/share/psi4/basis/aug-cc-pvtz-jkfit.gbs 
    atoms 15-22 entry H          line    69 file /cbio/jclab/home/chayas/anaconda/envs/py35/share/psi4/basis/aug-cc-pvtz-jkfit.gbs 

  ==> Pre-Iterations <==

   -------------------------------------------------------
    Irrep   Nso     Nmo     Nalpha   Nbeta   Ndocc  Nsocc
   -------------------------------------------------------
     A        828     828       0       0       0       0
   -------------------------------------------------------
    Total     828     828      49      49      49       0
   -------------------------------------------------------

  ==> Integral Setup <==

  ==> DFJK: Density-Fitted J/K Matrices <==

    J tasked:                  Yes
    K tasked:                  Yes
    wK tasked:                  No
    OpenMP threads:              8
    Integrals threads:           8
    Memory (MB):              3576
    Algorithm:                Disk
    Integral Cache:           NONE
    Schwarz Cutoff:          1E-12
    Fitting Condition:       1E-12

   => Auxiliary Basis Set <=

  Basis Set: (AUG-CC-PVTZ AUX)
    Blend: AUG-CC-PVTZ-JKFIT
    Number of shells: 532
    Number of basis function: 1824
    Number of Cartesian functions: 2274
    Spherical Harmonics?: true
    Max angular momentum: 4

  Minimum eigenvalue in the overlap matrix is 7.0082227222E-07.
  Using Symmetric Orthogonalization.

  SCF Guess: Superposition of Atomic Densities via on-the-fly atomic UHF.

  ==> Iterations <==

                           Total Energy        Delta E     RMS |[F,P]|

   @DF-RHF iter   0:  -655.41407175054269   -6.55414e+02   1.62041e-02 
   @DF-RHF iter   1:  -649.75245809165972    5.66161e+00   1.92334e-03 
   @DF-RHF iter   2:  -650.09734809976032   -3.44890e-01   7.23297e-04 DIIS
   @DF-RHF iter   3:  -650.15583970226999   -5.84916e-02   4.81400e-04 DIIS
   @DF-RHF iter   4:  -650.17134866691822   -1.55090e-02   1.25860e-04 DIIS
   @DF-RHF iter   5:  -650.17301190975729   -1.66324e-03   6.08032e-05 DIIS
   @DF-RHF iter   6:  -650.17333280161438   -3.20892e-04   1.97310e-05 DIIS
   @DF-RHF iter   7:  -650.17338579307057   -5.29915e-05   6.28501e-06 DIIS
   @DF-RHF iter   8:  -650.17339067228716   -4.87922e-06   1.53545e-06 DIIS
   @DF-RHF iter   9:  -650.17339125567162   -5.83384e-07   7.79897e-07 DIIS
   @DF-RHF iter  10:  -650.17339142037861   -1.64707e-07   4.28573e-07 DIIS
   @DF-RHF iter  11:  -650.17339147942323   -5.90446e-08   1.63736e-07 DIIS
   @DF-RHF iter  12:  -650.17339148712381   -7.70058e-09   6.27086e-08 DIIS
   @DF-RHF iter  13:  -650.17339148790620   -7.82393e-10   2.40304e-08 DIIS
   @DF-RHF iter  14:  -650.17339148799351   -8.73115e-11   7.34128e-09 DIIS
   @DF-RHF iter  15:  -650.17339148799476   -1.25056e-12   2.96473e-09 DIIS
   @DF-RHF iter  16:  -650.17339148800465   -9.89075e-12   1.28074e-09 DIIS
   @DF-RHF iter  17:  -650.17339148799999    4.66116e-12   6.74596e-10 DIIS
   @DF-RHF iter  18:  -650.17339148800079   -7.95808e-13   2.98511e-10 DIIS
   @DF-RHF iter  19:  -650.17339148801057   -9.77707e-12   9.99313e-11 DIIS

  ==> Post-Iterations <==

    Orbital Energies (a.u.)
    -----------------------

    Doubly Occupied:                                                      

       1A    -26.329550     2A    -20.610454     3A    -15.563508  
       4A    -11.351060     5A    -11.329397     6A    -11.273986  
       7A    -11.272775     8A    -11.266163     9A    -11.265260  
      10A    -11.255442    11A    -11.253756    12A    -11.246927  
      13A    -11.238835    14A    -11.236319    15A     -1.648548  
      16A     -1.425014    17A     -1.249181    18A     -1.182822  
      19A     -1.110337    20A     -1.043012    21A     -1.033429  
      22A     -1.019796    23A     -0.893332    24A     -0.879519  
      25A     -0.851522    26A     -0.825358    27A     -0.773810  
      28A     -0.749601    29A     -0.724380    30A     -0.714992  
      31A     -0.699357    32A     -0.666635    33A     -0.659180  
      34A     -0.640259    35A     -0.635332    36A     -0.614547  
      37A     -0.609664    38A     -0.597556    39A     -0.578184  
      40A     -0.544621    41A     -0.537485    42A     -0.533824  
      43A     -0.518100    44A     -0.497212    45A     -0.418049  
      46A     -0.394450    47A     -0.360649    48A     -0.348669  
      49A     -0.318492  

    Virtual:                                                              

      50A      0.021637    51A      0.028602    52A      0.034543  
      53A      0.037881    54A      0.044703    55A      0.046511  
      56A      0.054685    57A      0.055682    58A      0.076228  
      59A      0.080176    60A      0.082013    61A      0.082871  
      62A      0.091210    63A      0.095586    64A      0.097010  
      65A      0.102185    66A      0.104280    67A      0.107317  
      68A      0.110312    69A      0.112527    70A      0.114461  
      71A      0.119064    72A      0.120945    73A      0.127158  
      74A      0.130260    75A      0.132110    76A      0.134620  
      77A      0.137927    78A      0.141809    79A      0.145432  
      80A      0.148976    81A      0.152424    82A      0.153619  
      83A      0.157708    84A      0.166214    85A      0.167118  
      86A      0.173840    87A      0.176143    88A      0.177995  
      89A      0.185268    90A      0.195144    91A      0.203736  
      92A      0.213130    93A      0.213821    94A      0.218320  
      95A      0.222097    96A      0.226617    97A      0.231313  
      98A      0.237056    99A      0.238203   100A      0.241048  
     101A      0.244811   102A      0.245747   103A      0.251628  
     104A      0.253924   105A      0.261946   106A      0.264304  
     107A      0.269046   108A      0.271679   109A      0.275821  
     110A      0.276455   111A      0.280526   112A      0.288531  
     113A      0.289159   114A      0.296663   115A      0.299218  
     116A      0.302965   117A      0.311024   118A      0.312987  
     119A      0.316836   120A      0.318293   121A      0.323529  
     122A      0.327040   123A      0.329866   124A      0.332363  
     125A      0.340838   126A      0.346710   127A      0.347305  
     128A      0.353769   129A      0.357899   130A      0.359472  
     131A      0.372270   132A      0.376983   133A      0.381895  
     134A      0.387827   135A      0.392648   136A      0.397025  
     137A      0.400301   138A      0.403400   139A      0.407114  
     140A      0.415380   141A      0.419284   142A      0.422355  
     143A      0.423327   144A      0.428332   145A      0.433222  
     146A      0.436634   147A      0.444274   148A      0.446544  
     149A      0.448371   150A      0.454567   151A      0.459179  
     152A      0.462561   153A      0.467276   154A      0.468284  
     155A      0.473797   156A      0.476572   157A      0.478938  
     158A      0.484364   159A      0.486692   160A      0.491130  
     161A      0.496361   162A      0.498108   163A      0.498635  
     164A      0.502175   165A      0.507434   166A      0.511097  
     167A      0.512948   168A      0.515378   169A      0.520161  
     170A      0.524970   171A      0.527369   172A      0.532437  
     173A      0.533976   174A      0.540666   175A      0.542634  
     176A      0.545277   177A      0.551144   178A      0.554209  
     179A      0.555641   180A      0.566338   181A      0.569858  
     182A      0.578162   183A      0.580147   184A      0.586799  
     185A      0.591919   186A      0.595244   187A      0.601703  
     188A      0.606371   189A      0.611582   190A      0.618404  
     191A      0.632933   192A      0.638948   193A      0.641581  
     194A      0.648882   195A      0.653255   196A      0.660347  
     197A      0.662165   198A      0.676455   199A      0.684067  
     200A      0.686550   201A      0.690008   202A      0.699015  
     203A      0.707355   204A      0.707515   205A      0.712493  
     206A      0.720842   207A      0.728096   208A      0.728402  
     209A      0.736361   210A      0.739783   211A      0.746413  
     212A      0.748238   213A      0.751111   214A      0.759298  
     215A      0.762205   216A      0.767967   217A      0.775470  
     218A      0.778878   219A      0.791349   220A      0.793355  
     221A      0.805746   222A      0.808109   223A      0.818871  
     224A      0.820343   225A      0.826196   226A      0.826667  
     227A      0.833604   228A      0.839496   229A      0.846209  
     230A      0.852389   231A      0.860205   232A      0.864054  
     233A      0.869829   234A      0.870959   235A      0.876971  
     236A      0.879318   237A      0.883924   238A      0.887086  
     239A      0.895996   240A      0.898175   241A      0.902504  
     242A      0.910366   243A      0.914629   244A      0.922497  
     245A      0.926073   246A      0.928536   247A      0.936305  
     248A      0.939092   249A      0.942717   250A      0.946328  
     251A      0.952968   252A      0.962370   253A      0.964855  
     254A      0.965560   255A      0.971891   256A      0.974580  
     257A      0.978457   258A      0.984215   259A      0.989043  
     260A      0.996191   261A      0.998720   262A      1.006471  
     263A      1.008669   264A      1.013825   265A      1.020335  
     266A      1.022438   267A      1.026071   268A      1.030545  
     269A      1.038438   270A      1.041904   271A      1.044392  
     272A      1.051146   273A      1.052053   274A      1.056057  
     275A      1.062765   276A      1.065584   277A      1.069505  
     278A      1.075264   279A      1.077259   280A      1.079442  
     281A      1.080431   282A      1.089997   283A      1.093630  
     284A      1.102002   285A      1.106425   286A      1.113159  
     287A      1.115048   288A      1.119604   289A      1.125414  
     290A      1.132148   291A      1.137383   292A      1.141252  
     293A      1.145347   294A      1.150534   295A      1.152704  
     296A      1.161900   297A      1.162939   298A      1.172658  
     299A      1.174330   300A      1.177711   301A      1.186270  
     302A      1.190016   303A      1.198809   304A      1.201074  
     305A      1.204620   306A      1.216183   307A      1.218438  
     308A      1.224101   309A      1.230722   310A      1.234004  
     311A      1.242600   312A      1.244087   313A      1.246997  
     314A      1.256341   315A      1.259680   316A      1.268819  
     317A      1.271246   318A      1.282516   319A      1.285923  
     320A      1.292674   321A      1.300062   322A      1.301091  
     323A      1.313944   324A      1.324278   325A      1.326854  
     326A      1.332211   327A      1.337257   328A      1.352121  
     329A      1.360079   330A      1.361302   331A      1.368209  
     332A      1.368337   333A      1.377469   334A      1.387100  
     335A      1.389939   336A      1.402396   337A      1.403606  
     338A      1.415060   339A      1.422623   340A      1.427369  
     341A      1.436472   342A      1.446570   343A      1.451907  
     344A      1.465850   345A      1.472634   346A      1.477896  
     347A      1.489875   348A      1.491808   349A      1.497950  
     350A      1.506877   351A      1.510065   352A      1.518799  
     353A      1.528165   354A      1.538866   355A      1.551018  
     356A      1.555829   357A      1.570631   358A      1.576469  
     359A      1.586441   360A      1.587922   361A      1.588593  
     362A      1.600211   363A      1.607450   364A      1.615033  
     365A      1.635170   366A      1.643469   367A      1.645290  
     368A      1.650528   369A      1.654542   370A      1.658798  
     371A      1.666286   372A      1.678019   373A      1.681465  
     374A      1.695250   375A      1.697514   376A      1.700631  
     377A      1.705346   378A      1.721033   379A      1.724055  
     380A      1.732743   381A      1.739161   382A      1.742065  
     383A      1.745293   384A      1.752000   385A      1.774182  
     386A      1.779945   387A      1.786132   388A      1.790263  
     389A      1.795728   390A      1.800499   391A      1.804290  
     392A      1.814225   393A      1.823818   394A      1.835675  
     395A      1.840259   396A      1.849609   397A      1.858641  
     398A      1.866449   399A      1.875972   400A      1.888585  
     401A      1.891947   402A      1.904370   403A      1.911774  
     404A      1.912378   405A      1.922160   406A      1.924302  
     407A      1.938132   408A      1.943638   409A      1.947472  
     410A      1.951143   411A      1.963252   412A      1.966783  
     413A      1.979384   414A      1.986105   415A      1.991903  
     416A      2.005044   417A      2.010771   418A      2.012762  
     419A      2.023990   420A      2.030786   421A      2.039900  
     422A      2.047508   423A      2.052530   424A      2.061634  
     425A      2.068802   426A      2.080289   427A      2.083529  
     428A      2.092218   429A      2.101196   430A      2.117062  
     431A      2.121744   432A      2.128139   433A      2.128861  
     434A      2.139686   435A      2.148838   436A      2.150196  
     437A      2.155104   438A      2.161970   439A      2.172866  
     440A      2.185420   441A      2.202021   442A      2.208151  
     443A      2.216290   444A      2.221430   445A      2.235343  
     446A      2.239174   447A      2.265354   448A      2.272307  
     449A      2.274615   450A      2.280098   451A      2.284816  
     452A      2.296000   453A      2.302618   454A      2.314789  
     455A      2.320061   456A      2.337429   457A      2.342575  
     458A      2.346849   459A      2.359993   460A      2.366601  
     461A      2.374438   462A      2.385138   463A      2.406156  
     464A      2.419540   465A      2.426295   466A      2.427466  
     467A      2.442251   468A      2.467521   469A      2.468336  
     470A      2.480978   471A      2.490844   472A      2.507935  
     473A      2.518931   474A      2.533188   475A      2.537895  
     476A      2.560214   477A      2.562645   478A      2.578840  
     479A      2.579437   480A      2.584766   481A      2.590331  
     482A      2.613363   483A      2.621385   484A      2.629657  
     485A      2.643884   486A      2.674288   487A      2.688561  
     488A      2.696108   489A      2.721885   490A      2.731952  
     491A      2.753477   492A      2.757066   493A      2.776995  
     494A      2.791161   495A      2.818928   496A      2.820615  
     497A      2.830313   498A      2.844372   499A      2.850062  
     500A      2.869936   501A      2.888297   502A      2.894857  
     503A      2.925595   504A      2.947764   505A      2.962341  
     506A      2.983053   507A      3.014772   508A      3.041970  
     509A      3.045719   510A      3.060409   511A      3.073579  
     512A      3.085910   513A      3.119870   514A      3.134261  
     515A      3.137518   516A      3.155939   517A      3.158689  
     518A      3.170437   519A      3.190952   520A      3.197667  
     521A      3.203419   522A      3.214665   523A      3.236421  
     524A      3.247121   525A      3.271817   526A      3.276628  
     527A      3.290729   528A      3.302762   529A      3.313232  
     530A      3.326522   531A      3.341585   532A      3.346787  
     533A      3.358743   534A      3.363862   535A      3.380872  
     536A      3.387066   537A      3.402517   538A      3.408377  
     539A      3.419184   540A      3.423083   541A      3.436174  
     542A      3.446774   543A      3.453920   544A      3.459615  
     545A      3.462651   546A      3.472720   547A      3.490072  
     548A      3.495870   549A      3.500809   550A      3.507597  
     551A      3.518710   552A      3.532080   553A      3.538383  
     554A      3.547543   555A      3.560600   556A      3.562127  
     557A      3.567203   558A      3.576760   559A      3.582297  
     560A      3.593304   561A      3.602703   562A      3.612974  
     563A      3.616445   564A      3.627451   565A      3.631179  
     566A      3.641791   567A      3.657268   568A      3.665712  
     569A      3.675677   570A      3.684084   571A      3.689247  
     572A      3.702959   573A      3.710908   574A      3.724994  
     575A      3.739541   576A      3.757542   577A      3.760462  
     578A      3.765534   579A      3.767246   580A      3.772160  
     581A      3.782682   582A      3.799641   583A      3.808206  
     584A      3.815762   585A      3.825642   586A      3.825887  
     587A      3.840655   588A      3.852893   589A      3.856733  
     590A      3.863276   591A      3.875815   592A      3.878995  
     593A      3.884064   594A      3.890448   595A      3.907624  
     596A      3.920393   597A      3.921356   598A      3.931290  
     599A      3.943835   600A      3.946027   601A      3.951004  
     602A      3.959389   603A      3.963014   604A      3.979597  
     605A      3.987928   606A      4.001837   607A      4.008495  
     608A      4.021828   609A      4.024857   610A      4.028466  
     611A      4.042842   612A      4.055152   613A      4.057277  
     614A      4.061578   615A      4.085293   616A      4.094444  
     617A      4.100124   618A      4.105388   619A      4.112698  
     620A      4.126415   621A      4.133236   622A      4.143663  
     623A      4.146148   624A      4.157224   625A      4.167846  
     626A      4.178456   627A      4.185435   628A      4.197624  
     629A      4.205858   630A      4.214384   631A      4.219527  
     632A      4.229163   633A      4.244644   634A      4.249768  
     635A      4.272951   636A      4.275607   637A      4.293905  
     638A      4.306535   639A      4.310565   640A      4.312200  
     641A      4.323877   642A      4.337150   643A      4.339195  
     644A      4.348130   645A      4.350759   646A      4.361859  
     647A      4.368438   648A      4.383300   649A      4.384138  
     650A      4.391644   651A      4.397793   652A      4.409078  
     653A      4.424952   654A      4.428948   655A      4.436529  
     656A      4.448831   657A      4.459171   658A      4.472202  
     659A      4.479015   660A      4.486886   661A      4.508094  
     662A      4.512580   663A      4.517389   664A      4.525882  
     665A      4.533666   666A      4.554541   667A      4.574441  
     668A      4.584157   669A      4.596119   670A      4.598705  
     671A      4.603719   672A      4.607829   673A      4.634188  
     674A      4.650399   675A      4.671349   676A      4.678672  
     677A      4.684726   678A      4.703561   679A      4.714601  
     680A      4.720512   681A      4.738478   682A      4.756130  
     683A      4.769200   684A      4.774551   685A      4.792344  
     686A      4.800515   687A      4.826359   688A      4.846460  
     689A      4.865277   690A      4.882639   691A      4.885105  
     692A      4.888266   693A      4.912095   694A      4.944561  
     695A      4.965840   696A      4.968654   697A      4.976340  
     698A      4.982089   699A      4.992301   700A      5.000515  
     701A      5.014530   702A      5.026668   703A      5.038175  
     704A      5.044138   705A      5.052397   706A      5.071221  
     707A      5.087228   708A      5.092835   709A      5.108582  
     710A      5.113892   711A      5.128149   712A      5.133795  
     713A      5.141292   714A      5.166024   715A      5.173220  
     716A      5.183906   717A      5.188799   718A      5.197128  
     719A      5.212075   720A      5.231487   721A      5.249064  
     722A      5.261362   723A      5.272487   724A      5.289883  
     725A      5.309070   726A      5.326376   727A      5.334614  
     728A      5.348102   729A      5.363151   730A      5.375514  
     731A      5.411346   732A      5.427896   733A      5.446840  
     734A      5.449678   735A      5.466064   736A      5.474786  
     737A      5.483911   738A      5.498779   739A      5.535647  
     740A      5.561085   741A      5.568714   742A      5.585084  
     743A      5.592846   744A      5.623723   745A      5.646008  
     746A      5.694795   747A      5.701638   748A      5.752217  
     749A      5.762040   750A      5.766893   751A      5.797643  
     752A      5.807958   753A      5.841149   754A      5.846352  
     755A      5.880273   756A      5.885563   757A      5.913122  
     758A      5.962683   759A      6.005574   760A      6.040754  
     761A      6.083426   762A      6.116174   763A      6.134365  
     764A      6.186603   765A      6.238361   766A      6.248797  
     767A      6.297011   768A      6.313380   769A      6.332457  
     770A      6.390599   771A      6.404597   772A      6.459485  
     773A      6.496263   774A      6.514457   775A      6.535680  
     776A      6.593551   777A      6.687876   778A      6.704976  
     779A      6.710344   780A      6.722089   781A      6.735686  
     782A      6.849407   783A      6.870061   784A      6.884785  
     785A      6.936113   786A      6.947508   787A      6.992456  
     788A      7.042217   789A      7.057113   790A      7.085567  
     791A      7.191821   792A      7.251770   793A      7.392546  
     794A      7.415107   795A      7.423190   796A      7.470291  
     797A      7.679168   798A      7.683115   799A      7.744758  
     800A      7.993799   801A      8.375405   802A      8.629974  
     803A      9.045703   804A      9.066856   805A      9.268495  
     806A      9.287544   807A      9.413852   808A      9.524996  
     809A      9.555653   810A      9.614169   811A      9.642737  
     812A      9.715285   813A     10.034689   814A     10.088708  
     815A     15.537838   816A     16.200434   817A     16.550962  
     818A     16.600495   819A     16.691346   820A     16.829684  
     821A     18.469309   822A     18.718882   823A     19.266276  
     824A     19.700589   825A     20.152510   826A     20.277608  
     827A     20.443888   828A     21.847781  

    Final Occupation by Irrep:
              A 
    DOCC [    49 ]

  Energy converged.

  @DF-RHF Final Energy:  -650.17339148801057

   => Energetics <=

    Nuclear Repulsion Energy =            815.1955430586292550
    One-Electron Energy =               -2505.1571661431557914
    Two-Electron Energy =                1039.7882315965159705
    DFT Exchange-Correlation Energy =       0.0000000000000000
    Empirical Dispersion Energy =           0.0000000000000000
    PCM Polarization Energy =               0.0000000000000000
    EFP Energy =                            0.0000000000000000
    Total Energy =                       -650.1733914880105658



Properties will be evaluated at   0.000000,   0.000000,   0.000000 Bohr

Properties computed using the SCF density matrix

  Nuclear Dipole Moment: (a.u.)
     X:    -2.1323      Y:     1.3131      Z:    -4.2689

  Electronic Dipole Moment: (a.u.)
     X:     1.0956      Y:    -0.7501      Z:     4.9512

  Dipole Moment: (a.u.)
     X:    -1.0367      Y:     0.5631      Z:     0.6823     Total:     1.3628

  Dipole Moment: (Debye)
     X:    -2.6350      Y:     1.4312      Z:     1.7341     Total:     3.4639


*** tstop() called on gpu-2-14.local at Sat Nov 11 22:27:31 2017
Module time:
	user time   =    1148.41 seconds =      19.14 minutes
	system time =      52.03 seconds =       0.87 minutes
	total time  =        535 seconds =       8.92 minutes
Total time:
	user time   =    1148.41 seconds =      19.14 minutes
	system time =      52.03 seconds =       0.87 minutes
	total time  =        535 seconds =       8.92 minutes

  //>>>>>>>>>>>>>>>>>>>>>>>>>>>>>>>>>>>//
  //               DFMP2               //
  //<<<<<<<<<<<<<<<<<<<<<<<<<<<<<<<<<<<//

   => Loading Basis Set <=

    Name: (AUG-CC-PVTZ AUX)
    Role: RIFIT
    Keyword: DF_BASIS_MP2
    atoms 1-11  entry C          line   147 file /cbio/jclab/home/chayas/anaconda/envs/py35/share/psi4/basis/aug-cc-pvtz-ri.gbs 
    atoms 12    entry N          line   205 file /cbio/jclab/home/chayas/anaconda/envs/py35/share/psi4/basis/aug-cc-pvtz-ri.gbs 
    atoms 13    entry O          line   263 file /cbio/jclab/home/chayas/anaconda/envs/py35/share/psi4/basis/aug-cc-pvtz-ri.gbs 
    atoms 14    entry F          line   321 file /cbio/jclab/home/chayas/anaconda/envs/py35/share/psi4/basis/aug-cc-pvtz-ri.gbs 
    atoms 15-22 entry H          line    29 file /cbio/jclab/home/chayas/anaconda/envs/py35/share/psi4/basis/aug-cc-pvtz-ri.gbs 

	 --------------------------------------------------------
	                          DF-MP2                         
	      2nd-Order Density-Fitted Moller-Plesset Theory     
	              RMP2 Wavefunction,   8 Threads             
	                                                         
	        Rob Parrish, Justin Turney, Andy Simmonett,      
	           Ed Hohenstein, and C. David Sherrill          
	 --------------------------------------------------------

   => Auxiliary Basis Set <=

  Basis Set: (AUG-CC-PVTZ AUX)
    Blend: AUG-CC-PVTZ-RI
    Number of shells: 504
    Number of basis function: 1852
    Number of Cartesian functions: 2344
    Spherical Harmonics?: true
    Max angular momentum: 4

	 --------------------------------------------------------
	                 NBF =   828, NAUX =  1852
	 --------------------------------------------------------
	   CLASS    FOCC     OCC    AOCC    AVIR     VIR    FVIR
	   PAIRS       0      49      49     779     779       0
	 --------------------------------------------------------


         ------------------------------------------------------------
                                     CPHF                           
                                  Rob Parrish                       
         ------------------------------------------------------------

  ==> Geometry <==

    Molecular point group: c1
    Full point group: C1

    Geometry (in Angstrom), charge = 0, multiplicity = 1:

       Center              X                  Y                   Z               Mass       
    ------------   -----------------  -----------------  -----------------  -----------------
           C         -1.321748760112     0.754794664288    -0.799643160951    12.000000000000
           C         -2.399748760112     1.327794664288    -0.126643160951    12.000000000000
           C          0.607251239888    -1.247205335712    -1.888643160951    12.000000000000
           C          2.132251239888    -0.192205335712    -0.355643160951    12.000000000000
           C         -1.406748760112     0.711794664288     1.988356839049    12.000000000000
           C          1.710251239888    -1.790205335712    -2.527643160951    12.000000000000
           C          3.166251239888    -0.783205335712    -1.062643160951    12.000000000000
           C         -0.285748760112     0.159794664288    -0.079643160951    12.000000000000
           C          0.831251239888    -0.434205335712    -0.782643160951    12.000000000000
           C         -2.442748760112     1.306794664288     1.267356839049    12.000000000000
           C         -0.328748760112     0.138794664288     1.314356839049    12.000000000000
           N          2.988251239888    -1.578205335712    -2.141643160951    14.003074004780
           O         -3.495748760112     1.866794664288     1.924356839049    15.994914619560
           F          0.659251239888    -0.429205335712     2.021356839049    18.998403224000
           H         -1.302748760112     0.778794664288    -1.886643160951     1.007825032070
           H         -3.204748760112     1.788794664288    -0.693643160951     1.007825032070
           H         -0.393748760112    -1.457205335712    -2.251643160951     1.007825032070
           H          2.345251239888     0.435794664288     0.503356839049     1.007825032070
           H         -1.434748760112     0.691794664288     3.074356839049     1.007825032070
           H          1.589251239888    -2.429205335712    -3.395643160951     1.007825032070
           H          4.199251239888    -0.627205335712    -0.769643160951     1.007825032070
           H         -3.381748760112     1.772794664288     2.883356839049     1.007825032070

  Nuclear repulsion =  815.195543058629255
  Reference energy  = -650.173391488010566

  ==> Basis Set <==

  Basis Set: AUG-CC-PVTZ
    Blend: AUG-CC-PVTZ
    Number of shells: 268
    Number of basis function: 828
    Number of Cartesian functions: 970
    Spherical Harmonics?: true
    Max angular momentum: 3

  ==> CGRSolver (by Rob Parrish) <==

   Number of roots    =         1
   Preconditioning    =    JACOBI
   Convergence cutoff =     1E-06
   Maximum iterations =       100

  ==> CPHFRHamiltonian (by Rob Parrish) <== 

  ==> DFJK: Density-Fitted J/K Matrices <==

    J tasked:                  Yes
    K tasked:                  Yes
    wK tasked:                  No
    OpenMP threads:              8
    Integrals threads:           8
    Memory (MB):              3576
    Algorithm:                Disk
    Integral Cache:           NONE
    Schwarz Cutoff:          1E-12
    Fitting Condition:       1E-12

   => Auxiliary Basis Set <=

  Basis Set: (AUG-CC-PVTZ AUX)
    Blend: AUG-CC-PVTZ-JKFIT
    Number of shells: 532
    Number of basis function: 1824
    Number of Cartesian functions: 2274
    Spherical Harmonics?: true
    Max angular momentum: 4

  ==> CPHF Iterations <==

  => Iterations <=

             Iter  Converged  Remaining    Residual
  CGR           1          0          1   1.035E-01
  CGR           2          0          1   3.530E-02
  CGR           3          0          1   2.363E-02
  CGR           4          0          1   1.018E-02
  CGR           5          0          1   4.260E-03
  CGR           6          0          1   1.606E-03
  CGR           7          0          1   4.677E-04
  CGR           8          0          1   1.537E-04
  CGR           9          0          1   4.908E-05
  CGR          10          0          1   1.370E-05
  CGR          11          0          1   5.615E-06
  CGR          12          0          1   1.747E-06
  CGR          13          1          0   8.467E-07

    CGRSolver converged.

  ==> DFCorrGrad: Density-Fitted Correlated Gradients <==

    OpenMP threads:              8
    Integrals threads:           8
    Memory (MB):              3576
    Schwarz Cutoff:          0E+00
    Fitting Condition:       1E-12

   => Auxiliary Basis Set <=

  Basis Set: (AUG-CC-PVTZ AUX)
    Blend: AUG-CC-PVTZ-JKFIT
    Number of shells: 532
    Number of basis function: 1824
    Number of Cartesian functions: 2274
    Spherical Harmonics?: true
    Max angular momentum: 4

	-----------------------------------------------------------
	 ==================> DF-MP2 Energies <==================== 
	-----------------------------------------------------------
	 Reference Energy          =    -650.1733914880105658 [Eh]
	 Singles Energy            =      -0.0000000000000011 [Eh]
	 Same-Spin Energy          =      -0.6780244598232393 [Eh]
	 Opposite-Spin Energy      =      -2.0199821511618605 [Eh]
	 Correlation Energy        =      -2.6980066109851006 [Eh]
	 Total Energy              =    -652.8713980989956553 [Eh]
	-----------------------------------------------------------
	 ================> DF-SCS-MP2 Energies <================== 
	-----------------------------------------------------------
	 SCS Same-Spin Scale       =       0.3333333333333333 [-]
	 SCS Opposite-Spin Scale   =       1.2000000000000000 [-]
	 SCS Same-Spin Energy      =      -0.2260081532744131 [Eh]
	 SCS Opposite-Spin Energy  =      -2.4239785813942327 [Eh]
	 SCS Correlation Energy    =      -2.6499867346686465 [Eh]
	 SCS Total Energy          =    -652.8233782226792528 [Eh]
	-----------------------------------------------------------


  -Total Gradient:
     Atom            X                  Y                   Z
    ------   -----------------  -----------------  -----------------
       1        0.011489323539    -0.003001263264    -0.014980828051
       2        0.003531387173    -0.001689950793     0.003941220334
       3       -0.008396105627    -0.000212040707     0.002250886155
       4       -0.005065874255     0.005427030949     0.005310545401
       5       -0.008375815631     0.004723411075     0.001181434823
       6       -0.013444047428    -0.000054725082     0.000740494108
       7       -0.003371334591     0.007787041385     0.010422951570
       8       -0.004102380512     0.002139383955    -0.000468343776
       9        0.001228564225    -0.000170071956    -0.002342930955
      10       -0.008383615437     0.005064165585    -0.004834272851
      11        0.022153352767    -0.015813674575     0.004933579302
      12        0.013152344803    -0.006354259590    -0.008249549064
      13        0.002585629757    -0.001618634248     0.000536717628
      14        0.002902609992     0.000384973492     0.000152974700
      15       -0.002739393824     0.000614891206    -0.006458952793
      16       -0.003345088110     0.001590632007    -0.005384856631
      17       -0.003449424226    -0.000931722325    -0.003546695421
      18        0.002423560259     0.002603006283     0.004826694487
      19       -0.000932015389     0.000648285537     0.004345208242
      20        0.000371019990    -0.001305574931    -0.002174065982
      21        0.002924519510    -0.000203094117     0.000408072991
      22       -0.001157216981     0.000372190134     0.009389715781


*** tstop() called on gpu-2-14.local at Sat Nov 11 23:04:48 2017
Module time:
	user time   =    5709.20 seconds =      95.15 minutes
	system time =     111.87 seconds =       1.86 minutes
	total time  =       2772 seconds =      46.20 minutes
Total time:
	user time   =    5709.20 seconds =      95.15 minutes
	system time =     111.87 seconds =       1.86 minutes
	total time  =       2772 seconds =      46.20 minutes

			-----------------------------------------
			 OPTKING 2.0: for geometry optimizations 
			  - R.A. King,  Bethel University        
			-----------------------------------------

	Internal coordinates to be generated automatically.
	Detected frag 1 with atoms:  1 2 3 4 5 6 7 8 9 10 11 12 13 14 15 16 17 18 19 20
	 21 22
	---Fragment 1 Bond Connectivity---
	 1 : 2 8 15
	 2 : 1 10 16
	 3 : 6 9 17
	 4 : 7 9 18
	 5 : 10 11 19
	 6 : 3 12 20
	 7 : 4 12 21
	 8 : 1 9 11
	 9 : 3 4 8
	 10 : 2 5 13
	 11 : 5 8 14
	 12 : 6 7
	 13 : 10 22
	 14 : 11
	 15 : 1
	 16 : 2
	 17 : 3
	 18 : 4
	 19 : 5
	 20 : 6
	 21 : 7
	 22 : 13

	Assuming in current code that numbering for constraints corresponds to unified fragment.
	Fixed dihedral atom list: 
	     1     8     9     3
	---Fragment 1 Geometry and Gradient---
	 C          -2.4977431731        1.4263552021       -1.5111065782
	 C          -4.5348679443        2.5091682762       -0.2393208908
	 C           1.1475385372       -2.3568765160       -3.5690183369
	 C           4.0293708899       -0.3632154458       -0.6720681752
	 C          -2.6583698944        1.3450969784        3.7574498803
	 C           3.2319064618       -3.3829978061       -4.7765533359
	 C           5.9833477113       -1.4800435903       -2.0081045512
	 C          -0.5399868994        0.3019681530       -0.1505037626
	 C           1.5708371910       -0.8205291699       -1.4789812340
	 C          -4.6161261681        2.4694840274        2.3949573384
	 C          -0.6212451231        0.2622839042        2.4837744667
	 N           5.6469764596       -2.9823758660       -4.0471190486
	 O          -6.6060077860        3.5277306618        3.6365074077
	 F           1.2458042962       -0.8110805393        3.8198108426
	 H          -2.4618383766        1.4717086293       -3.5652388847
	 H          -6.0560974813        3.3803320235       -1.3107956081
	 H          -0.7440773218       -2.7537190039       -4.2549889232
	 H           4.4318825562        0.8235325657        0.9512065729
	 H          -2.7112822261        1.3073024557        5.8096924606
	 H           3.0032495997       -4.5905328050       -6.4168356192
	 H           7.9354348066       -1.1852463136       -1.4544147942
	 H          -6.3905790068        3.3500964053        5.4487547692
	             0.0114893235       -0.0030012633       -0.0149808281
	             0.0035313872       -0.0016899508        0.0039412203
	            -0.0083961056       -0.0002120407        0.0022508862
	            -0.0050658743        0.0054270309        0.0053105454
	            -0.0083758156        0.0047234111        0.0011814348
	            -0.0134440474       -0.0000547251        0.0007404941
	            -0.0033713346        0.0077870414        0.0104229516
	            -0.0041023805        0.0021393840       -0.0004683438
	             0.0012285642       -0.0001700720       -0.0023429310
	            -0.0083836154        0.0050641656       -0.0048342729
	             0.0221533528       -0.0158136746        0.0049335793
	             0.0131523448       -0.0063542596       -0.0082495491
	             0.0025856298       -0.0016186342        0.0005367176
	             0.0029026100        0.0003849735        0.0001529747
	            -0.0027393938        0.0006148912       -0.0064589528
	            -0.0033450881        0.0015906320       -0.0053848566
	            -0.0034494242       -0.0009317223       -0.0035466954
	             0.0024235603        0.0026030063        0.0048266945
	            -0.0009320154        0.0006482855        0.0043452082
	             0.0003710200       -0.0013055749       -0.0021740660
	             0.0029245195       -0.0002030941        0.0004080730
	            -0.0011572170        0.0003721901        0.0093897158

	Previous optimization step data not found.  Starting new optimization.

	---Fragment 1 Intrafragment Coordinates---
	 - Coordinate -           - BOHR/RAD -       - ANG/DEG -
	 R(1,2)           =         2.634350	       1.394038
	 R(1,8)           =         2.635962	       1.394891
	 R(1,15)          =         2.054947	       1.087431
	 R(2,10)          =         2.635830	       1.394821
	 R(2,16)          =         2.054537	       1.087214
	 R(3,6)           =         2.618331	       1.385561
	 R(3,9)           =         2.628269	       1.390820
	 R(3,17)          =         2.050914	       1.085297
	 R(4,7)           =         2.617312	       1.385022
	 R(4,9)           =         2.627667	       1.390501
	 R(4,18)          =         2.050709	       1.085188
	 R(5,10)          =         2.636938	       1.395407
	 R(5,11)          =         2.635263	       1.394521
	 R(5,19)          =         2.053272	       1.086545
	 R(6,12)          =         2.554434	       1.351748
	 R(6,20)          =         2.049622	       1.084613
	 R(7,12)          =         2.554942	       1.352017
	 R(7,21)          =         2.050396	       1.085023
	 R(8,9)           =         2.735038	       1.447320
	 R(8,11)          =         2.635830	       1.394821
	 R(10,13)         =         2.573123	       1.361638
	 R(11,14)         =         2.534359	       1.341125
	 R(13,22)         =         1.833631	       0.970316
	 B(1,2,10)        =         2.094553	     120.009056
	 B(1,2,16)        =         2.088723	     119.675016
	 B(1,8,9)         =         2.091569	     119.838095
	 B(1,8,11)        =         2.093692	     119.959722
	 B(2,1,8)         =         2.094940	     120.031219
	 B(2,1,15)        =         2.079469	     119.144799
	 B(2,10,5)        =         2.094306	     119.994870
	 B(2,10,13)       =         2.094247	     119.991510
	 B(3,6,12)        =         2.164553	     124.019741
	 B(3,6,20)        =         2.107327	     120.740945
	 B(3,9,4)         =         2.090497	     119.776631
	 B(3,9,8)         =         2.096548	     120.123370
	 B(4,7,12)        =         2.165185	     124.055980
	 B(4,7,21)        =         2.107806	     120.768363
	 B(4,9,8)         =         2.096139	     120.099925
	 B(5,10,13)       =         2.094633	     120.013619
	 B(5,11,8)        =         2.095181	     120.045019
	 B(5,11,14)       =         2.081414	     119.256220
	 B(6,3,9)         =         2.057385	     117.879456
	 B(6,3,17)        =         2.099196	     120.275066
	 B(6,12,7)        =         2.031507	     116.396799
	 B(7,4,9)         =         2.057243	     117.871345
	 B(7,4,18)        =         2.099561	     120.295981
	 B(8,1,15)        =         2.108776	     120.823969
	 B(8,11,14)       =         2.106591	     120.698759
	 B(9,3,17)        =         2.126604	     121.845424
	 B(9,4,18)        =         2.126379	     121.832570
	 B(9,8,11)        =         2.097924	     120.202184
	 B(10,2,16)       =         2.099909	     120.315896
	 B(10,5,11)       =         2.093699	     119.960108
	 B(10,5,19)       =         2.100355	     120.341451
	 B(10,13,22)      =         1.924294	     110.253909
	 B(11,5,19)       =         2.089132	     119.698439
	 B(12,6,20)       =         2.011304	     115.239249
	 B(12,7,21)       =         2.010194	     115.175656
	 D(1,2,10,5)      =        -0.000325	      -0.018609
	 D(1,2,10,13)     =         3.141388	     179.988267
	 D(1,8,9,3)       =        -0.785564	     -45.009530
	 D(1,8,9,4)       =         2.354295	     134.891149
	 D(1,8,11,5)      =         0.000325	       0.018608
	 D(1,8,11,14)     =        -3.141528	    -179.996269
	 D(2,1,8,9)       =         3.141277	     179.981897
	 D(2,1,8,11)      =        -0.000348	      -0.019945
	 D(2,10,5,11)     =         0.000301	       0.017261
	 D(2,10,5,19)     =        -3.141029	    -179.967685
	 D(2,10,13,22)    =         3.141285	     179.982383
	 D(3,6,12,7)      =         0.000097	       0.005555
	 D(3,9,4,7)       =        -0.001063	      -0.060928
	 D(3,9,4,18)      =        -3.140616	    -179.944042
	 D(3,9,8,11)      =         2.356060	     134.992316
	 D(4,7,12,6)      =        -0.001034	      -0.059241
	 D(4,9,3,6)       =         0.000225	       0.012876
	 D(4,9,3,17)      =        -3.139906	    -179.903382
	 D(4,9,8,11)      =        -0.787266	     -45.107005
	 D(5,10,2,16)     =         3.140149	     179.917291
	 D(5,10,13,22)    =        -0.000187	      -0.010740
	 D(5,11,8,9)      =        -3.141300	    -179.983240
	 D(6,3,9,8)       =         3.140090	     179.913877
	 D(6,12,7,21)     =         3.140638	     179.945301
	 D(7,4,9,8)       =        -3.140929	    -179.961952
	 D(7,12,6,20)     =         3.140075	     179.913068
	 D(8,1,2,10)      =         0.000348	       0.019955
	 D(8,1,2,16)      =        -3.140133	    -179.916358
	 D(8,9,3,17)      =        -0.000042	      -0.002381
	 D(8,9,4,18)      =         0.002704	       0.154934
	 D(8,11,5,10)     =        -0.000301	      -0.017270
	 D(8,11,5,19)     =         3.141030	     179.967774
	 D(9,3,6,12)      =         0.000283	       0.016229
	 D(9,3,6,20)      =        -3.139611	    -179.886437
	 D(9,4,7,12)      =         0.001527	       0.087467
	 D(9,4,7,21)      =        -3.140150	    -179.917317
	 D(9,8,1,15)      =         0.000403	       0.023110
	 D(9,8,11,14)     =         0.000033	       0.001883
	 D(10,2,1,15)     =         3.141234	     179.979432
	 D(10,5,11,14)    =         3.141547	     179.997392
	 D(11,5,10,13)    =        -3.141411	    -179.989616
	 D(11,8,1,15)     =        -3.141221	    -179.978731
	 D(12,6,3,17)     =         3.140438	     179.933858
	 D(12,7,4,18)     =         3.141112	     179.972455
	 D(13,10,2,16)    =        -0.001324	      -0.075833
	 D(13,10,5,19)    =         0.000444	       0.025437
	 D(14,11,5,19)    =        -0.000307	      -0.017564
	 D(15,1,2,16)     =         0.000753	       0.043120
	 D(17,3,6,20)     =         0.000544	       0.031192
	 D(18,4,7,21)     =        -0.000564	      -0.032330
	 R(4,14)          =         5.303377	       2.806426

	Current energy   :      -652.8713980990

	Generating empirical Hessian (Schlegel '84) for each fragment.
	Adding user-defined constraint: Fragment 1; Coordinate 61:
		Value =    -0.785564; Fixed value    =    -0.785398
		Force =     0.000083; Force constant =     0.500000
	Removing off-diagonal coupling between coordinate 61 and others.
	Taking RFO optimization step.
	Going to follow RFO solution 1.
	Using RFO vector 1.

	Determining step-restricting scale parameter for RS-RFO.
	Maximum step size allowed    0.10000

	 Iter      |step|        alpha        rfo_root  
	------------------------------------------------
	    0     0.19917       1.00000           1
	    1     0.15483       5.74449           1
	    2     0.12359      17.13212           1
	    3     0.10613      30.82160           1
	    4     0.10057      37.16709           1
	    5     0.10001      37.88798           1
	------------------------------------------------
	Norm of target step-size    0.10001
	Projected energy change by RFO approximation:        -0.0047829045

	Back-transformation to cartesian coordinates...
	Could not converge backtransformation.
	Using first guess instead.

	--- Internal Coordinate Step in ANG or DEG, aJ/ANG or AJ/DEG ---
	 ---------------------------------------------------------------------------
	   Coordinate                Previous        Force       Change         New 
	   ----------                --------       ------       ------       ------
	    1 R(1,2)          =      1.394038    -0.060524    -0.005968     1.388070
	    2 R(1,8)          =      1.394891    -0.021406    -0.001808     1.393083
	    3 R(1,15)         =      1.087431    -0.052909    -0.006366     1.081065
	    4 R(2,10)         =      1.394821    -0.080329    -0.007977     1.386845
	    5 R(2,16)         =      1.087214    -0.049098    -0.005836     1.081378
	    6 R(3,6)          =      1.385561     0.001426     0.000110     1.385671
	    7 R(3,9)          =      1.390820    -0.013092    -0.000813     1.390007
	    8 R(3,17)         =      1.085297    -0.037471    -0.004486     1.080811
	    9 R(4,7)          =      1.385022     0.003801     0.000370     1.385392
	   10 R(4,9)          =      1.390501    -0.009587    -0.000452     1.390050
	   11 R(4,18)         =      1.085188    -0.047806    -0.005725     1.079463
	   12 R(5,10)         =      1.395407    -0.046813    -0.004678     1.390730
	   13 R(5,11)         =      1.394521    -0.109143    -0.010715     1.383806
	   14 R(5,19)         =      1.086545    -0.035882    -0.004214     1.082331
	   15 R(6,12)         =      1.351748    -0.121128    -0.010966     1.340782
	   16 R(6,20)         =      1.084613    -0.020331    -0.002430     1.082183
	   17 R(7,12)         =      1.352017    -0.117361    -0.010632     1.341385
	   18 R(7,21)         =      1.085023    -0.023606    -0.002820     1.082203
	   19 R(8,9)          =      1.447320     0.115944     0.013329     1.460649
	   20 R(8,11)         =      1.394821    -0.073579    -0.006961     1.387861
	   21 R(10,13)        =      1.361638    -0.026135    -0.002178     1.359460
	   22 R(11,14)        =      1.341125    -0.019821    -0.001638     1.339487
	   23 R(13,22)        =      0.970316    -0.075043    -0.006731     0.963585
	   24 B(1,2,10)       =    120.009056    -0.000166    -0.303635   119.705422
	   25 B(1,2,16)       =    119.675016     0.000291     0.611008   120.286025
	   26 B(1,8,9)        =    119.838095     0.000759     1.263072   121.101167
	   27 B(1,8,11)       =    119.959722    -0.000991    -1.753919   118.205802
	   28 B(2,1,8)        =    120.031219     0.000552     1.058517   121.089736
	   29 B(2,1,15)       =    119.144799    -0.000063    -0.060581   119.084218
	   30 B(2,10,5)       =    119.994870    -0.000016    -0.032436   119.962434
	   31 B(2,10,13)      =    119.991510    -0.000751    -1.308417   118.683094
	   32 B(3,6,12)       =    124.019741    -0.000011    -0.085861   123.933880
	   33 B(3,6,20)       =    120.740945    -0.000044    -0.066803   120.674142
	   34 B(3,9,4)        =    119.776631    -0.000894    -1.476921   118.299710
	   35 B(3,9,8)        =    120.123370     0.000460     0.722397   120.845766
	   36 B(4,7,12)       =    124.055980     0.000016    -0.026260   124.029720
	   37 B(4,7,21)       =    120.768363    -0.000062    -0.106109   120.662254
	   38 B(4,9,8)        =    120.099925     0.000433     0.754591   120.854516
	   39 B(5,10,13)      =    120.013619     0.000767     1.340847   121.354466
	   40 B(5,11,8)       =    120.045019     0.000830     1.432315   121.477334
	   41 B(5,11,14)      =    119.256220    -0.000192    -0.377367   118.878853
	   42 B(6,3,9)        =    117.879456     0.000407     0.813345   118.692801
	   43 B(6,3,17)       =    120.275066    -0.000064    -0.099738   120.175329
	   44 B(6,12,7)       =    116.396799     0.000125     0.048704   116.445503
	   45 B(7,4,9)        =    117.871345     0.000356     0.726985   118.598330
	   46 B(7,4,18)       =    120.295981    -0.000073    -0.132629   120.163352
	   47 B(8,1,15)       =    120.823969    -0.000489    -0.998017   119.825952
	   48 B(8,11,14)      =    120.698759    -0.000638    -1.055325   119.643434
	   49 B(9,3,17)       =    121.845424    -0.000343    -0.713565   121.131860
	   50 B(9,4,18)       =    121.832570    -0.000283    -0.594283   121.238287
	   51 B(9,8,11)       =    120.202184     0.000232     0.490821   120.693005
	   52 B(10,2,16)      =    120.315896    -0.000125    -0.307345   120.008552
	   53 B(10,5,11)      =    119.960108    -0.000209    -0.400965   119.559144
	   54 B(10,5,19)      =    120.341451     0.000188     0.383493   120.724944
	   55 B(10,13,22)     =    110.253909    -0.000361    -0.793449   109.460460
	   56 B(11,5,19)      =    119.698439     0.000021     0.017470   119.715909
	   57 B(12,6,20)      =    115.239249     0.000055     0.152720   115.391969
	   58 B(12,7,21)      =    115.175656     0.000046     0.132357   115.308014
	   59 D(1,2,10,5)     =     -0.018609     0.000003     0.048698     0.030089
	   60 D(1,2,10,13)    =    179.988267     0.000001     0.013186   180.001453
	   61 D(1,8,9,3)      =    -45.009530     0.000010     0.076329   -44.933201
	   62 D(1,8,9,4)      =    134.891149     0.000013     0.143682   135.034831
	   63 D(1,8,11,5)     =      0.018608     0.000006     0.111602     0.130209
	   64 D(1,8,11,14)    =   -179.996269    -0.000006    -0.100020  -180.096290
	   65 D(2,1,8,9)      =    179.981897     0.000001     0.022622   180.004519
	   66 D(2,1,8,11)     =     -0.019945    -0.000002    -0.034133    -0.054078
	   67 D(2,10,5,11)    =      0.017261     0.000002     0.026542     0.043804
	   68 D(2,10,5,19)    =   -179.967685     0.000002     0.034494  -179.933191
	   69 D(2,10,13,22)   =    179.982383     0.000001     0.009183   179.991566
	   70 D(3,6,12,7)     =      0.005555    -0.000001    -0.018774    -0.013219
	   71 D(3,9,4,7)      =     -0.060928     0.000007     0.116010     0.055083
	   72 D(3,9,4,18)     =   -179.944042    -0.000004    -0.064205  -180.008246
	   73 D(3,9,8,11)     =    134.992316     0.000012     0.134534   135.126850
	   74 D(4,7,12,6)     =     -0.059241     0.000002     0.034794    -0.024447
	   75 D(4,9,3,6)      =      0.012876    -0.000006    -0.102023    -0.089147
	   76 D(4,9,3,17)     =   -179.903382    -0.000014    -0.223839  -180.127222
	   77 D(4,9,8,11)     =    -45.107005     0.000016     0.201887   -44.905118
	   78 D(5,10,2,16)    =    179.917291     0.000006     0.095851   180.013143
	   79 D(5,10,13,22)   =     -0.010740    -0.000002    -0.026746    -0.037485
	   80 D(5,11,8,9)     =   -179.983240     0.000004     0.055102  -179.928138
	   81 D(6,3,9,8)      =    179.913877    -0.000002    -0.034193   179.879683
	   82 D(6,12,7,21)    =    179.945301     0.000004     0.069924   180.015225
	   83 D(7,4,9,8)      =   -179.961952     0.000003     0.048207  -179.913745
	   84 D(7,12,6,20)    =    179.913068     0.000006     0.107105   180.020174
	   85 D(8,1,2,10)     =      0.019955    -0.000003    -0.044563    -0.024608
	   86 D(8,1,2,16)     =   -179.916358    -0.000006    -0.091256  -180.007614
	   87 D(8,9,3,17)     =     -0.002381    -0.000010    -0.156010    -0.158391
	   88 D(8,9,4,18)     =      0.154934    -0.000008    -0.132008     0.022926
	   89 D(8,11,5,10)    =     -0.017270    -0.000006    -0.108972    -0.126242
	   90 D(8,11,5,19)    =    179.967774    -0.000007    -0.116786   179.850987
	   91 D(9,3,6,12)     =      0.016229     0.000003     0.054626     0.070855
	   92 D(9,3,6,20)     =   -179.886437    -0.000005    -0.077783  -179.964220
	   93 D(9,4,7,12)     =      0.087467    -0.000005    -0.084708     0.002759
	   94 D(9,4,7,21)     =   -179.917317    -0.000007    -0.121617  -180.038934
	   95 D(9,8,1,15)     =      0.023110    -0.000009    -0.131046    -0.107936
	   96 D(9,8,11,14)    =      0.001883    -0.000008    -0.156520    -0.154637
	   97 D(10,2,1,15)    =    179.979432     0.000006     0.107595   180.087027
	   98 D(10,5,11,14)   =    179.997392     0.000006     0.101178   180.098570
	   99 D(11,5,10,13)   =   -179.989616     0.000004     0.062838  -179.926778
	  100 D(11,8,1,15)    =   -179.978731    -0.000011    -0.187802  -180.166533
	  101 D(12,6,3,17)    =    179.933858     0.000011     0.174696   180.108554
	  102 D(12,7,4,18)    =    179.972455     0.000006     0.092932   180.065387
	  103 D(13,10,2,16)   =     -0.075833     0.000004     0.060340    -0.015493
	  104 D(13,10,5,19)   =      0.025437     0.000004     0.070790     0.096227
	  105 D(14,11,5,19)   =     -0.017564     0.000005     0.093363     0.075799
	  106 D(15,1,2,16)    =      0.043120     0.000004     0.060902     0.104021
	  107 D(17,3,6,20)    =      0.031192     0.000003     0.042287     0.073479
	  108 D(18,4,7,21)    =     -0.032330     0.000003     0.056023     0.023693
	  109 R(4,14)         =      2.806426     0.030145     0.008858     2.815284
	 ---------------------------------------------------------------------------
	Successfully symmetrized geometry.
	 Forces used to impose fixed constraints are not included.
	  Forces zeroed: 61 

  ==> Convergence Check <==

  Measures of convergence in internal coordinates in au.
  Criteria marked as inactive (o), active & met (*), and active & unmet ( ).
  --------------------------------------------------------------------------------------------- ~
   Step     Total Energy     Delta E     MAX Force     RMS Force      MAX Disp      RMS Disp    ~
  --------------------------------------------------------------------------------------------- ~
    Convergence Criteria    1.00e-06 *    3.00e-04 *             o    1.20e-03 *             o  ~
  --------------------------------------------------------------------------------------------- ~
      1    -652.87139810   -6.53e+02      1.47e-02      4.76e-03 o    3.06e-02      9.59e-03 o  ~
  ---------------------------------------------------------------------------------------------

	Writing optimization data to binary file.
	Structure for next step:
	Cartesian Geometry (in Angstrom)
	    C    -1.3412980614   0.7638567492  -0.7767491008
	    C    -2.4140649077   1.3344290813  -0.1056617678
	    C     0.6312956432  -1.2516650110  -1.8935298479
	    C     2.1408631281  -0.2056440009  -0.3692489828
	    C    -1.4118986505   0.7156818453   1.9911970339
	    C     1.7346588945  -1.7959915732  -2.5310107673
	    C     3.1764880308  -0.7971152382  -1.0741988056
	    C    -0.2939074730   0.1644818241  -0.0807588613
	    C     0.8351187748  -0.4359118458  -0.7866776742
	    C    -2.4492265719   1.3098336162   1.2805188195
	    C    -0.3494656794   0.1530276177   1.3059418910
	    N     3.0013372496  -1.5860486795  -2.1448154824
	    O    -3.5097158678   1.8747134745   1.9164466663
	    F     0.6412871988  -0.4173775326   2.0039902919
	    H    -1.3234565720   0.7899491982  -1.8573518171
	    H    -3.2201477803   1.7964101185  -0.6589996148
	    H    -0.3647093872  -1.4629618056  -2.2561311886
	    H     2.3536183679   0.4200585955   0.4842571907
	    H    -1.4272491310   0.6885830852   3.0730794943
	    H     1.6130626707  -2.4349846953  -3.3958935216
	    H     4.2056517714  -0.6399257302  -0.7787738745
	    H    -3.3987143701   1.7830835208   2.8692203783
			--------------------------
			 OPTKING Finished Execution 
			--------------------------

    Structure for next step:
    Molecular point group: c1
    Full point group: C1

    Geometry (in Angstrom), charge = 0, multiplicity = 1:

    C           -1.339194832170     0.762512277163    -0.775001249828
    C           -2.411961678385     1.333084609279    -0.103913916814
    C            0.633398872443    -1.253009483000    -1.891781996913
    C            2.142966357353    -0.206988472857    -0.367501131881
    C           -1.409795421262     0.714337373289     1.992944884852
    C            1.736762123729    -1.797336045169    -2.529262916364
    C            3.178591260023    -0.798459710201    -1.072450954682
    C           -0.291804243738     0.163137352136    -0.079011010365
    C            0.837222004116    -0.437256317780    -0.784929823252
    C           -2.447123342626     1.308489144225     1.282266670406
    C           -0.347362450140     0.151683145738     1.307689741933
    N            3.003440478848    -1.587393151509    -2.143067631468
    O           -3.507612638487     1.873369002499     1.918194517261
    F            0.643390428109    -0.418722004631     2.005738142813
    H           -1.321353342700     0.788604726242    -1.855603966202
    H           -3.218044551054     1.795065646455    -0.657251763853
    H           -0.362606157905    -1.464306277582    -2.254383337614
    H            2.355721597210     0.418714123533     0.486005041613
    H           -1.425145901763     0.687238613218     3.074827345221
    H            1.615165899956    -2.436329167335    -3.394145670666
    H            4.207755000681    -0.641270202148    -0.777026023553
    H           -3.396611140798     1.781739048847     2.870968229236

gradient() will perform analytic gradient computation.

*** tstart() called on gpu-2-14.local
*** at Sat Nov 11 23:04:50 2017

    SCF Algorithm Type (re)set to DF.

*** tstart() called on gpu-2-14.local
*** at Sat Nov 11 23:04:50 2017

   => Loading Basis Set <=

    Name: AUG-CC-PVTZ
    Role: ORBITAL
    Keyword: BASIS
    atoms 1-11  entry C          line   221 file /cbio/jclab/home/chayas/anaconda/envs/py35/share/psi4/basis/aug-cc-pvtz.gbs 
    atoms 12    entry N          line   267 file /cbio/jclab/home/chayas/anaconda/envs/py35/share/psi4/basis/aug-cc-pvtz.gbs 
    atoms 13    entry O          line   313 file /cbio/jclab/home/chayas/anaconda/envs/py35/share/psi4/basis/aug-cc-pvtz.gbs 
    atoms 14    entry F          line   359 file /cbio/jclab/home/chayas/anaconda/envs/py35/share/psi4/basis/aug-cc-pvtz.gbs 
    atoms 15-22 entry H          line    34 file /cbio/jclab/home/chayas/anaconda/envs/py35/share/psi4/basis/aug-cc-pvtz.gbs 


         ---------------------------------------------------------
                                   SCF
            by Justin Turney, Rob Parrish, and Andy Simmonett
                              RHF Reference
                        8 Threads,   4768 MiB Core
         ---------------------------------------------------------

  ==> Geometry <==

    Molecular point group: c1
    Full point group: C1

    Geometry (in Angstrom), charge = 0, multiplicity = 1:

       Center              X                  Y                   Z               Mass       
    ------------   -----------------  -----------------  -----------------  -----------------
           C         -1.339194832170     0.762512277163    -0.775001249828    12.000000000000
           C         -2.411961678385     1.333084609279    -0.103913916814    12.000000000000
           C          0.633398872443    -1.253009483000    -1.891781996913    12.000000000000
           C          2.142966357353    -0.206988472857    -0.367501131881    12.000000000000
           C         -1.409795421262     0.714337373289     1.992944884852    12.000000000000
           C          1.736762123729    -1.797336045169    -2.529262916364    12.000000000000
           C          3.178591260023    -0.798459710201    -1.072450954682    12.000000000000
           C         -0.291804243738     0.163137352136    -0.079011010365    12.000000000000
           C          0.837222004116    -0.437256317780    -0.784929823252    12.000000000000
           C         -2.447123342626     1.308489144225     1.282266670406    12.000000000000
           C         -0.347362450140     0.151683145738     1.307689741933    12.000000000000
           N          3.003440478848    -1.587393151509    -2.143067631468    14.003074004780
           O         -3.507612638487     1.873369002499     1.918194517261    15.994914619560
           F          0.643390428109    -0.418722004631     2.005738142813    18.998403224000
           H         -1.321353342700     0.788604726242    -1.855603966202     1.007825032070
           H         -3.218044551054     1.795065646455    -0.657251763853     1.007825032070
           H         -0.362606157905    -1.464306277582    -2.254383337614     1.007825032070
           H          2.355721597210     0.418714123533     0.486005041613     1.007825032070
           H         -1.425145901763     0.687238613218     3.074827345221     1.007825032070
           H          1.615165899956    -2.436329167335    -3.394145670666     1.007825032070
           H          4.207755000681    -0.641270202148    -0.777026023553     1.007825032070
           H         -3.396611140798     1.781739048847     2.870968229236     1.007825032070

  Running in c1 symmetry.

  Rotational constants: A =      0.06437  B =      0.01317  C =      0.01141 [cm^-1]
  Rotational constants: A =   1929.72245  B =    394.77104  C =    342.06308 [MHz]
  Nuclear repulsion =  815.722533508261677

  Charge       = 0
  Multiplicity = 1
  Electrons    = 98
  Nalpha       = 49
  Nbeta        = 49

  ==> Algorithm <==

  SCF Algorithm Type is DF.
  DIIS enabled.
  MOM disabled.
  Fractional occupation disabled.
  Guess Type is READ.
  Energy threshold   = 1.00e-10
  Density threshold  = 1.00e-10
  Integral threshold = 0.00e+00

  ==> Primary Basis <==

  Basis Set: AUG-CC-PVTZ
    Blend: AUG-CC-PVTZ
    Number of shells: 268
    Number of basis function: 828
    Number of Cartesian functions: 970
    Spherical Harmonics?: true
    Max angular momentum: 3

   => Loading Basis Set <=

    Name: (AUG-CC-PVTZ AUX)
    Role: JKFIT
    Keyword: DF_BASIS_SCF
    atoms 1-11  entry C          line   161 file /cbio/jclab/home/chayas/anaconda/envs/py35/share/psi4/basis/aug-cc-pvtz-jkfit.gbs 
    atoms 12    entry N          line   223 file /cbio/jclab/home/chayas/anaconda/envs/py35/share/psi4/basis/aug-cc-pvtz-jkfit.gbs 
    atoms 13    entry O          line   285 file /cbio/jclab/home/chayas/anaconda/envs/py35/share/psi4/basis/aug-cc-pvtz-jkfit.gbs 
    atoms 14    entry F          line   347 file /cbio/jclab/home/chayas/anaconda/envs/py35/share/psi4/basis/aug-cc-pvtz-jkfit.gbs 
    atoms 15-22 entry H          line    69 file /cbio/jclab/home/chayas/anaconda/envs/py35/share/psi4/basis/aug-cc-pvtz-jkfit.gbs 

  Reading orbitals from file 180, no projection.

  ==> Pre-Iterations <==

   -------------------------------------------------------
    Irrep   Nso     Nmo     Nalpha   Nbeta   Ndocc  Nsocc
   -------------------------------------------------------
     A        828     828       0       0       0       0
   -------------------------------------------------------
    Total     828     828      49      49      49       0
   -------------------------------------------------------

  ==> Integral Setup <==

  ==> DFJK: Density-Fitted J/K Matrices <==

    J tasked:                  Yes
    K tasked:                  Yes
    wK tasked:                  No
    OpenMP threads:              8
    Integrals threads:           8
    Memory (MB):              3576
    Algorithm:                Disk
    Integral Cache:           NONE
    Schwarz Cutoff:          1E-12
    Fitting Condition:       1E-12

   => Auxiliary Basis Set <=

  Basis Set: (AUG-CC-PVTZ AUX)
    Blend: AUG-CC-PVTZ-JKFIT
    Number of shells: 532
    Number of basis function: 1824
    Number of Cartesian functions: 2274
    Spherical Harmonics?: true
    Max angular momentum: 4

  Minimum eigenvalue in the overlap matrix is 6.7720612494E-07.
  Using Symmetric Orthogonalization.

  SCF Guess: Orbitals guess was supplied from a previous computation.

  ==> Iterations <==

                           Total Energy        Delta E     RMS |[F,P]|

   @DF-RHF iter   0:  -650.26044609408007   -6.50260e+02   4.39613e-04 
   @DF-RHF iter   1:  -650.17908468037024    8.13614e-02   9.45022e-05 
   @DF-RHF iter   2:  -650.17948697073439   -4.02290e-04   7.72880e-05 DIIS
   @DF-RHF iter   3:  -650.17975646666559   -2.69496e-04   1.22549e-05 DIIS
   @DF-RHF iter   4:  -650.17976390378408   -7.43712e-06   4.26917e-06 DIIS
   @DF-RHF iter   5:  -650.17976572568216   -1.82190e-06   1.49836e-06 DIIS
   @DF-RHF iter   6:  -650.17976606912146   -3.43439e-07   6.22563e-07 DIIS
   @DF-RHF iter   7:  -650.17976620334889   -1.34227e-07   3.58810e-07 DIIS
   @DF-RHF iter   8:  -650.17976623899278   -3.56439e-08   1.15136e-07 DIIS
   @DF-RHF iter   9:  -650.17976624220046   -3.20767e-09   4.19164e-08 DIIS
   @DF-RHF iter  10:  -650.17976624245330   -2.52840e-10   1.13543e-08 DIIS
   @DF-RHF iter  11:  -650.17976624248240   -2.91038e-11   3.95536e-09 DIIS
   @DF-RHF iter  12:  -650.17976624249127   -8.86757e-12   1.64572e-09 DIIS
   @DF-RHF iter  13:  -650.17976624249354   -2.27374e-12   7.38274e-10 DIIS
   @DF-RHF iter  14:  -650.17976624249229    1.25056e-12   4.01257e-10 DIIS
   @DF-RHF iter  15:  -650.17976624249025    2.04636e-12   2.03146e-10 DIIS
   @DF-RHF iter  16:  -650.17976624250696   -1.67120e-11   7.16589e-11 DIIS

  ==> Post-Iterations <==

    Orbital Energies (a.u.)
    -----------------------

    Doubly Occupied:                                                      

       1A    -26.327051     2A    -20.610669     3A    -15.561936  
       4A    -11.348176     5A    -11.327430     6A    -11.272128  
       7A    -11.270889     8A    -11.266657     9A    -11.264052  
      10A    -11.253600    11A    -11.252860    12A    -11.243175  
      13A    -11.238082    14A    -11.235519    15A     -1.647766  
      16A     -1.428334    17A     -1.254953    18A     -1.185048  
      19A     -1.111509    20A     -1.044555    21A     -1.033575  
      22A     -1.023053    23A     -0.894466    24A     -0.879158  
      25A     -0.854077    26A     -0.827270    27A     -0.774812  
      28A     -0.750755    29A     -0.725296    30A     -0.714191  
      31A     -0.698752    32A     -0.666885    33A     -0.660686  
      34A     -0.640772    35A     -0.636598    36A     -0.615916  
      37A     -0.611432    38A     -0.596469    39A     -0.580471  
      40A     -0.546705    41A     -0.538557    42A     -0.536997  
      43A     -0.518498    44A     -0.498905    45A     -0.417858  
      46A     -0.396324    47A     -0.361646    48A     -0.347722  
      49A     -0.320525  

    Virtual:                                                              

      50A      0.021626    51A      0.028783    52A      0.034567  
      53A      0.037951    54A      0.044591    55A      0.046739  
      56A      0.054761    57A      0.055628    58A      0.076633  
      59A      0.080307    60A      0.082688    61A      0.082975  
      62A      0.092008    63A      0.095796    64A      0.097073  
      65A      0.102258    66A      0.104426    67A      0.107574  
      68A      0.110292    69A      0.112753    70A      0.114710  
      71A      0.119214    72A      0.120806    73A      0.127252  
      74A      0.130377    75A      0.132295    76A      0.134791  
      77A      0.137698    78A      0.142013    79A      0.145482  
      80A      0.149518    81A      0.152331    82A      0.153176  
      83A      0.157734    84A      0.166370    85A      0.167109  
      86A      0.173656    87A      0.176309    88A      0.177787  
      89A      0.185082    90A      0.195729    91A      0.203800  
      92A      0.212945    93A      0.213370    94A      0.218190  
      95A      0.221990    96A      0.226663    97A      0.232148  
      98A      0.237159    99A      0.238248   100A      0.240771  
     101A      0.244701   102A      0.245564   103A      0.251430  
     104A      0.253434   105A      0.261897   106A      0.264501  
     107A      0.268979   108A      0.271957   109A      0.275747  
     110A      0.276806   111A      0.280650   112A      0.289149  
     113A      0.289882   114A      0.296992   115A      0.299524  
     116A      0.303766   117A      0.311554   118A      0.313406  
     119A      0.317403   120A      0.318834   121A      0.323824  
     122A      0.326806   123A      0.330196   124A      0.332725  
     125A      0.341076   126A      0.347149   127A      0.348302  
     128A      0.354109   129A      0.358064   130A      0.359955  
     131A      0.373395   132A      0.377328   133A      0.382328  
     134A      0.388052   135A      0.392666   136A      0.397524  
     137A      0.400205   138A      0.403684   139A      0.407943  
     140A      0.416113   141A      0.418970   142A      0.423140  
     143A      0.424291   144A      0.429693   145A      0.433766  
     146A      0.437683   147A      0.443854   148A      0.446533  
     149A      0.447916   150A      0.455683   151A      0.459841  
     152A      0.463047   153A      0.467455   154A      0.468152  
     155A      0.474360   156A      0.477414   157A      0.479454  
     158A      0.484883   159A      0.487497   160A      0.492171  
     161A      0.497382   162A      0.498321   163A      0.498987  
     164A      0.503119   165A      0.507930   166A      0.512113  
     167A      0.513434   168A      0.516320   169A      0.521326  
     170A      0.525817   171A      0.527799   172A      0.533135  
     173A      0.534912   174A      0.541038   175A      0.542073  
     176A      0.544921   177A      0.551479   178A      0.553423  
     179A      0.556693   180A      0.565633   181A      0.569236  
     182A      0.578221   183A      0.578827   184A      0.586494  
     185A      0.592185   186A      0.595958   187A      0.601716  
     188A      0.607295   189A      0.611123   190A      0.618262  
     191A      0.632694   192A      0.639619   193A      0.641524  
     194A      0.648038   195A      0.654147   196A      0.661153  
     197A      0.664239   198A      0.677472   199A      0.684420  
     200A      0.685454   201A      0.690668   202A      0.699241  
     203A      0.707335   204A      0.708801   205A      0.713592  
     206A      0.722009   207A      0.729247   208A      0.730208  
     209A      0.738195   210A      0.740310   211A      0.746515  
     212A      0.747151   213A      0.752142   214A      0.759235  
     215A      0.762972   216A      0.768291   217A      0.776062  
     218A      0.779733   219A      0.791503   220A      0.793447  
     221A      0.806022   222A      0.808846   223A      0.819045  
     224A      0.821897   225A      0.825434   226A      0.827651  
     227A      0.834858   228A      0.840395   229A      0.846495  
     230A      0.852635   231A      0.858927   232A      0.865350  
     233A      0.871213   234A      0.871924   235A      0.876853  
     236A      0.880143   237A      0.883558   238A      0.887086  
     239A      0.897581   240A      0.899918   241A      0.902622  
     242A      0.911816   243A      0.916072   244A      0.922370  
     245A      0.927214   246A      0.929877   247A      0.934355  
     248A      0.940827   249A      0.942753   250A      0.946452  
     251A      0.952463   252A      0.962775   253A      0.964297  
     254A      0.966587   255A      0.971013   256A      0.975220  
     257A      0.978384   258A      0.983182   259A      0.989830  
     260A      0.996145   261A      0.999508   262A      1.006038  
     263A      1.008584   264A      1.014242   265A      1.020415  
     266A      1.022457   267A      1.025980   268A      1.031166  
     269A      1.038826   270A      1.041304   271A      1.043120  
     272A      1.049847   273A      1.051455   274A      1.056436  
     275A      1.062311   276A      1.066457   277A      1.070203  
     278A      1.074494   279A      1.076878   280A      1.079425  
     281A      1.081640   282A      1.090519   283A      1.094748  
     284A      1.102460   285A      1.107258   286A      1.112145  
     287A      1.115723   288A      1.119374   289A      1.123939  
     290A      1.131358   291A      1.136341   292A      1.140522  
     293A      1.146065   294A      1.149913   295A      1.153712  
[...]
	 B(1,2,10)        =         2.086995	     119.575987
	 B(1,2,16)        =         2.115682	     121.219665
	 B(1,8,9)         =         2.113631	     121.102164
	 B(1,8,11)        =         2.028034	     116.197811
	 B(2,1,8)         =         2.133276	     122.227733
	 B(2,1,15)        =         2.083950	     119.401565
	 B(2,10,5)        =         2.091225	     119.818339
	 B(2,10,13)       =         2.050916	     117.508808
	 B(3,6,12)        =         2.157246	     123.601073
	 B(3,6,20)        =         2.096300	     120.109161
	 B(3,9,4)         =         2.042983	     117.054325
	 B(3,9,8)         =         2.105204	     120.619314
	 B(4,7,12)        =         2.160916	     123.811356
	 B(4,7,21)        =         2.094227	     119.990391
	 B(4,9,8)         =         2.134975	     122.325044
	 B(5,10,13)       =         2.141044	     122.672776
	 B(5,11,8)        =         2.149653	     123.166062
	 B(5,11,14)       =         2.049320	     117.417363
	 B(6,3,9)         =         2.085782	     119.506508
	 B(6,3,17)        =         2.097132	     120.156823
	 B(6,12,7)        =         2.037255	     116.726142
	 B(7,4,9)         =         2.082118	     119.296547
	 B(7,4,18)        =         2.096547	     120.123307
	 B(8,1,15)        =         2.065790	     118.361035
	 B(8,11,14)       =         2.083951	     119.401590
	 B(9,3,17)        =         2.100183	     120.331616
	 B(9,4,18)        =         2.104449	     120.576026
	 B(9,8,11)        =         2.141436	     122.695234
	 B(10,2,16)       =         2.080467	     119.201989
	 B(10,5,11)       =         2.077142	     119.011450
	 B(10,5,19)       =         2.127800	     121.913986
	 B(10,13,22)      =         1.907517	     109.292669
	 B(11,5,19)       =         2.078230	     119.073832
	 B(12,6,20)       =         2.029619	     116.288575
	 B(12,7,21)       =         2.028039	     116.198091
	 D(1,2,10,5)      =         0.001533	       0.087857
	 D(1,2,10,13)     =         3.141413	     179.989722
	 D(1,8,9,3)       =        -0.782960	     -44.860327
	 D(1,8,9,4)       =         2.351129	     134.709769
	 D(1,8,11,5)      =         0.010861	       0.622315
	 D(1,8,11,14)     =         3.127222	     179.176616
	 D(2,1,8,9)       =        -3.134131	    -179.572481
	 D(2,1,8,11)      =        -0.006072	      -0.347916
	 D(2,10,5,11)     =         0.002927	       0.167687
	 D(2,10,5,19)     =        -3.133177	    -179.517827
	 D(2,10,13,22)    =        -3.139949	    -179.905825
	 D(3,6,12,7)      =         0.001152	       0.066003
	 D(3,9,4,7)       =         0.012065	       0.691262
	 D(3,9,4,18)      =         3.140786	     179.953783
	 D(3,9,8,11)      =         2.373062	     135.966454
	 D(4,7,12,6)      =        -0.001766	      -0.101200
	 D(4,9,3,6)       =        -0.012651	      -0.724836
	 D(4,9,3,17)      =         3.114693	     178.458749
	 D(4,9,8,11)      =        -0.776034	     -44.463450
	 D(5,10,2,16)     =        -3.130427	    -179.360271
	 D(5,10,13,22)    =        -0.000122	      -0.006972
	 D(5,11,8,9)      =         3.138684	     179.833342
	 D(6,3,9,8)       =         3.121822	     178.867247
	 D(6,12,7,21)     =        -3.140798	    -179.954449
	 D(7,4,9,8)       =        -3.122277	    -178.893319
	 D(7,12,6,20)     =        -3.133502	    -179.536442
	 D(8,1,2,10)      =         0.000157	       0.009002
	 D(8,1,2,16)      =         3.131918	     179.445695
	 D(8,9,3,17)      =        -0.034019	      -1.949167
	 D(8,9,4,18)      =         0.006444	       0.369202
	 D(8,11,5,10)     =        -0.009505	      -0.544597
	 D(8,11,5,19)     =         3.126757	     179.149967
	 D(9,3,6,12)      =         0.006300	       0.360987
	 D(9,3,6,20)      =         3.140702	     179.948954
	 D(9,4,7,12)      =        -0.005080	      -0.291054
	 D(9,4,7,21)      =         3.133859	     179.556914
	 D(9,8,1,15)      =        -0.012411	      -0.711120
	 D(9,8,11,14)     =        -0.028141	      -1.612357
	 D(10,2,1,15)     =        -3.121362	    -178.840894
	 D(10,5,11,14)    =        -3.126334	    -179.125736
	 D(11,5,10,13)    =        -3.136861	    -179.728912
	 D(11,8,1,15)     =         3.115647	     178.513445
	 D(12,6,3,17)     =        -3.121068	    -178.824050
	 D(12,7,4,18)     =        -3.133860	    -179.556980
	 D(13,10,2,16)    =         0.009453	       0.541594
	 D(13,10,5,19)    =         0.010220	       0.585574
	 D(14,11,5,19)    =         0.009928	       0.568828
	 D(15,1,2,16)     =         0.010399	       0.595799
	 D(17,3,6,20)     =         0.013333	       0.763918
	 D(18,4,7,21)     =         0.005079	       0.290989
	 R(4,14)          =         5.490415	       2.905403

	Current energy   :      -652.8758251336

	Energy change for the previous step:
		Projected    :        -0.0000008633
		Actual       :         0.0000008975

	Performing BFGS update.
	Previous computed or guess Hessian on step 1.
	Steps to be used in Hessian update: 6 5
	Adding user-defined constraint: Fragment 1; Coordinate 61:
		Value =    -0.782960; Fixed value    =    -0.785400
		Force =    -0.001586; Force constant =     0.650000
	Removing off-diagonal coupling between coordinate 61 and others.
	Taking RFO optimization step.
	Going to follow RFO solution 1.
	Using RFO vector 1.
	Norm of target step-size    0.00291
	Projected energy change by RFO approximation:        -0.0000001831

	Back-transformation to cartesian coordinates...
	Could not converge backtransformation.
	Using first guess instead.

	--- Internal Coordinate Step in ANG or DEG, aJ/ANG or AJ/DEG ---
	 ---------------------------------------------------------------------------
	   Coordinate                Previous        Force       Change         New 
	   ----------                --------       ------       ------       ------
	    1 R(1,2)          =      1.382044     0.000106     0.000017     1.382061
	    2 R(1,8)          =      1.395780    -0.000172    -0.000015     1.395766
	    3 R(1,15)         =      1.079774    -0.000025    -0.000005     1.079769
	    4 R(2,10)         =      1.387923    -0.000130    -0.000017     1.387905
	    5 R(2,16)         =      1.078009    -0.000031    -0.000003     1.078006
	    6 R(3,6)          =      1.385632     0.000030     0.000003     1.385634
	    7 R(3,9)          =      1.391411    -0.000097    -0.000016     1.391395
	    8 R(3,17)         =      1.079754     0.000010     0.000002     1.079757
	    9 R(4,7)          =      1.385596     0.000024     0.000005     1.385601
	   10 R(4,9)          =      1.391249    -0.000029    -0.000008     1.391241
	   11 R(4,18)         =      1.078267     0.000058     0.000017     1.078284
	   12 R(5,10)         =      1.386973     0.000055     0.000007     1.386980
	   13 R(5,11)         =      1.379586    -0.000012     0.000008     1.379594
	   14 R(5,19)         =      1.079366     0.000008     0.000005     1.079371
	   15 R(6,12)         =      1.334728     0.000004     0.000010     1.334737
	   16 R(6,20)         =      1.081077    -0.000008    -0.000001     1.081076
	   17 R(7,12)         =      1.335300    -0.000007     0.000002     1.335302
	   18 R(7,21)         =      1.080910    -0.000024    -0.000004     1.080906
	   19 R(8,9)          =      1.461107     0.000264     0.000063     1.461170
	   20 R(8,11)         =      1.387063    -0.000134    -0.000016     1.387047
	   21 R(10,13)        =      1.359647    -0.000061    -0.000016     1.359631
	   22 R(11,14)        =      1.346731    -0.000622    -0.000077     1.346654
	   23 R(13,22)        =      0.961985    -0.000018    -0.000002     0.961983
	   24 B(1,2,10)       =    119.575987    -0.000001    -0.002345   119.573642
	   25 B(1,2,16)       =    121.219665    -0.000001    -0.006456   121.213209
	   26 B(1,8,9)        =    121.102164    -0.000002    -0.012021   121.090143
	   27 B(1,8,11)       =    116.197811     0.000002     0.005172   116.202983
	   28 B(2,1,8)        =    122.227733     0.000000     0.000861   122.228593
	   29 B(2,1,15)       =    119.401565    -0.000000    -0.002051   119.399514
	   30 B(2,10,5)       =    119.818339    -0.000000    -0.002026   119.816313
	   31 B(2,10,13)      =    117.508808     0.000001     0.002634   117.511443
	   32 B(3,6,12)       =    123.601073    -0.000000     0.000014   123.601086
	   33 B(3,6,20)       =    120.109161     0.000000     0.002694   120.111855
	   34 B(3,9,4)        =    117.054325     0.000001     0.002550   117.056876
	   35 B(3,9,8)        =    120.619314     0.000000    -0.000926   120.618388
	   36 B(4,7,12)       =    123.811356    -0.000001    -0.001876   123.809480
	   37 B(4,7,21)       =    119.990391     0.000000     0.002934   119.993325
	   38 B(4,9,8)        =    122.325044    -0.000001    -0.001688   122.323355
	   39 B(5,10,13)      =    122.672776    -0.000000    -0.000638   122.672138
	   40 B(5,11,8)       =    123.166062    -0.000002    -0.009218   123.156844
	   41 B(5,11,14)      =    117.417363     0.000002     0.002987   117.420350
	   42 B(6,3,9)        =    119.506508    -0.000000    -0.001896   119.504612
	   43 B(6,3,17)       =    120.156823     0.000000     0.000480   120.157303
	   44 B(6,12,7)       =    116.726142     0.000001     0.001282   116.727424
	   45 B(7,4,9)        =    119.296547    -0.000000    -0.000070   119.296477
	   46 B(7,4,18)       =    120.123307     0.000001     0.003206   120.126513
	   47 B(8,1,15)       =    118.361035     0.000000     0.001502   118.362538
	   48 B(8,11,14)      =    119.401590     0.000000     0.005250   119.406840
	   49 B(9,3,17)       =    120.331616     0.000000     0.001721   120.333337
	   50 B(9,4,18)       =    120.576026    -0.000000    -0.002792   120.573234
	   51 B(9,8,11)       =    122.695234     0.000000     0.007050   122.702284
	   52 B(10,2,16)      =    119.201989     0.000002     0.009041   119.211029
	   53 B(10,5,11)      =    119.011450     0.000002     0.007409   119.018859
	   54 B(10,5,19)      =    121.913986    -0.000002    -0.008143   121.905843
	   55 B(10,13,22)     =    109.292669     0.000000     0.001312   109.293981
	   56 B(11,5,19)      =    119.073832     0.000000     0.000700   119.074532
	   57 B(12,6,20)      =    116.288575    -0.000000    -0.003002   116.285573
	   58 B(12,7,21)      =    116.198091     0.000000    -0.001094   116.196997
	   59 D(1,2,10,5)     =      0.087857     0.000000     0.024230     0.112087
	   60 D(1,2,10,13)    =    179.989722     0.000000     0.006948   179.996670
	   61 D(1,8,9,3)      =    -44.860327    -0.000001    -0.007231   -44.867558
	   62 D(1,8,9,4)      =    134.709769    -0.000000    -0.017584   134.692186
	   63 D(1,8,11,5)     =      0.622315     0.000000     0.016632     0.638947
	   64 D(1,8,11,14)    =    179.176616    -0.000000    -0.029927   179.146689
	   65 D(2,1,8,9)      =   -179.572481     0.000000    -0.019498  -179.591980
	   66 D(2,1,8,11)     =     -0.347916    -0.000000    -0.003001    -0.350918
	   67 D(2,10,5,11)    =      0.167687    -0.000000    -0.011202     0.156485
	   68 D(2,10,5,19)    =   -179.517827    -0.000000    -0.004008  -179.521834
	   69 D(2,10,13,22)   =   -179.905825     0.000000     0.012105  -179.893720
	   70 D(3,6,12,7)     =      0.066003    -0.000000    -0.029702     0.036301
	   71 D(3,9,4,7)      =      0.691262     0.000000    -0.016626     0.674636
	   72 D(3,9,4,18)     =    179.953783     0.000000     0.014891   179.968674
	   73 D(3,9,8,11)     =    135.966454    -0.000001    -0.024793   135.941661
	   74 D(4,7,12,6)     =     -0.101200    -0.000000    -0.002294    -0.103494
	   75 D(4,9,3,6)      =     -0.724836    -0.000000    -0.012650    -0.737487
	   76 D(4,9,3,17)     =    178.458749    -0.000000     0.012329   178.471078
	   77 D(4,9,8,11)     =    -44.463450    -0.000000    -0.035145   -44.498595
	   78 D(5,10,2,16)    =   -179.360271     0.000000    -0.004581  -179.364851
	   79 D(5,10,13,22)   =     -0.006972    -0.000000    -0.005710    -0.012682
	   80 D(5,11,8,9)     =    179.833342     0.000000     0.033258   179.866600
	   81 D(6,3,9,8)      =    178.867247     0.000000    -0.022490   178.844757
	   82 D(6,12,7,21)    =   -179.954449     0.000000     0.013099  -179.941350
	   83 D(7,4,9,8)      =   -178.893319    -0.000000    -0.006609  -178.899928
	   84 D(7,12,6,20)    =   -179.536442     0.000000     0.016772  -179.519670
	   85 D(8,1,2,10)     =      0.009002    -0.000000    -0.017157    -0.008155
	   86 D(8,1,2,16)     =    179.445695     0.000000     0.012335   179.458029
	   87 D(8,9,3,17)     =     -1.949167     0.000000     0.002489    -1.946678
	   88 D(8,9,4,18)     =      0.369202    -0.000000     0.024908     0.394110
	   89 D(8,11,5,10)    =     -0.544597    -0.000000    -0.009767    -0.554364
	   90 D(8,11,5,19)    =    179.149967    -0.000000    -0.016784   179.133183
	   91 D(9,3,6,12)     =      0.360987     0.000000     0.037751     0.398738
	   92 D(9,3,6,20)     =    179.948954    -0.000000    -0.010439   179.938515
	   93 D(9,4,7,12)     =     -0.291054     0.000000     0.025472    -0.265582
	   94 D(9,4,7,21)     =    179.556914     0.000000     0.009520   179.566434
	   95 D(9,8,1,15)     =     -0.711120     0.000000    -0.000985    -0.712105
	   96 D(9,8,11,14)    =     -1.612357    -0.000000    -0.013301    -1.625658
	   97 D(10,2,1,15)    =   -178.840894    -0.000000    -0.035895  -178.876789
	   98 D(10,5,11,14)   =   -179.125736     0.000000     0.035891  -179.089845
	   99 D(11,5,10,13)   =   -179.728912     0.000000     0.007004  -179.721908
	  100 D(11,8,1,15)    =    178.513445    -0.000000     0.015512   178.528957
	  101 D(12,6,3,17)    =   -178.824050     0.000000     0.012806  -178.811244
	  102 D(12,7,4,18)    =   -179.556980    -0.000000    -0.005856  -179.562836
	  103 D(13,10,2,16)   =      0.541594    -0.000000    -0.021863     0.519731
	  104 D(13,10,5,19)   =      0.585574     0.000000     0.014198     0.599773
	  105 D(14,11,5,19)   =      0.568828     0.000000     0.028874     0.597702
	  106 D(15,1,2,16)    =      0.595799    -0.000000    -0.006404     0.589395
	  107 D(17,3,6,20)    =      0.763918    -0.000000    -0.035385     0.728533
	  108 D(18,4,7,21)    =      0.290989    -0.000000    -0.021809     0.269180
	  109 R(4,14)         =      2.905403     0.000223     0.000836     2.906238
	 ---------------------------------------------------------------------------
	Successfully symmetrized geometry.
	 Forces used to impose fixed constraints are not included.
	  Forces zeroed: 61 

  ==> Convergence Check <==

  Measures of convergence in internal coordinates in au.
  Criteria marked as inactive (o), active & met (*), and active & unmet ( ).
  ---------------------------------------------------------------------------------------------
   Step     Total Energy     Delta E     MAX Force     RMS Force      MAX Disp      RMS Disp   
  ---------------------------------------------------------------------------------------------
    Convergence Criteria    1.00e-06 *    3.00e-04 *             o    1.20e-03 *             o
  ---------------------------------------------------------------------------------------------
      7    -652.87582513    8.97e-07 *    7.55e-05 *    1.38e-05 o    1.58e-03      2.79e-04 o  ~
  ---------------------------------------------------------------------------------------------


  **** Optimization is complete! (in 7 steps) ****

  ==> Optimization Summary <==

  Measures of convergence in internal coordinates in au.
  --------------------------------------------------------------------------------------------------------------- ~
   Step         Total Energy             Delta E       MAX Force       RMS Force        MAX Disp        RMS Disp  ~
  --------------------------------------------------------------------------------------------------------------- ~
      1    -652.871398098996   -652.871398098996      0.01470232      0.00476277      0.03061167      0.00958532  ~
      2    -652.874705148889     -0.003307049893      0.00593188      0.00180432      0.05324466      0.00959325  ~
      3    -652.875638949117     -0.000933800228      0.00226378      0.00045670      0.05995770      0.00738024  ~
      4    -652.875790120938     -0.000151171821      0.00088351      0.00019496      0.04187590      0.00465092  ~
      5    -652.875824039165     -0.000033918226      0.00041097      0.00009077      0.01329918      0.00178971  ~
      6    -652.875826031047     -0.000001991882      0.00017909      0.00004521      0.00221825      0.00069480  ~
      7    -652.875825133567      0.000000897480      0.00007552      0.00001444      0.00157923      0.00027880  ~
  --------------------------------------------------------------------------------------------------------------- ~

	Writing optimization data to binary file.
	Final energy is   -652.8758251335665
	Final (previous) structure:
	Cartesian Geometry (in Angstrom)
	    C    -1.3270698080   0.7478167068  -0.7510796246
	    C    -2.4037271654   1.3224114392  -0.1024700367
	    C     0.6487550893  -1.2538253754  -1.8823154540
	    C     2.1743135517  -0.2282461511  -0.3811834167
	    C    -1.4262641330   0.7222814391   2.0067623528
	    C     1.7390831905  -1.7843044423  -2.5529505260
	    C     3.2001273667  -0.8024238299  -1.1146022739
	    C    -0.2750870496   0.1465583855  -0.0582423444
	    C     0.8559601930  -0.4455193294  -0.7688824536
	    C    -2.4546685308   1.3090923260   1.2844533925
	    C    -0.3647159853   0.1630896083   1.3258235032
	    N     3.0053799903  -1.5715442796  -2.1886384179
	    O    -3.5326977177   1.8863100449   1.8788535920
	    F     0.6070885185  -0.4138568274   2.0582262149
	    H    -1.2810487817   0.7763766299  -1.8294947435
	    H    -3.2033046265   1.7903365768  -0.6536732468
	    H    -0.3539050085  -1.4777339880  -2.2145905156
	    H     2.4000521342   0.3895298713   0.4732489999
	    H    -1.4349894181   0.6861378375   3.0854878735
	    H     1.5893165116  -2.4142299456  -3.4186819180
	    H     4.2287332216  -0.6351305363  -0.8276354234
	    H    -3.4466555286   1.8119898851   2.8340964929
	Saving final (previous) structure.
			--------------------------
			 OPTKING Finished Execution 
			--------------------------

    Final optimized geometry and variables:
    Molecular point group: c1
    Full point group: C1

    Geometry (in Angstrom), charge = 0, multiplicity = 1:

    C           -1.327069807995     0.747816706822    -0.751079624553
    C           -2.403727165399     1.322411439194    -0.102470036651
    C            0.648755089297    -1.253825375405    -1.882315453970
    C            2.174313551747    -0.228246151144    -0.381183416652
    C           -1.426264133035     0.722281439149     2.006762352848
    C            1.739083190538    -1.784304442276    -2.552950526028
    C            3.200127366673    -0.802423829905    -1.114602273902
    C           -0.275087049644     0.146558385492    -0.058242344359
    C            0.855960192960    -0.445519329434    -0.768882453578
    C           -2.454668530792     1.309092325963     1.284453392546
    C           -0.364715985335     0.163089608287     1.325823503196
    N            3.005379990282    -1.571544279640    -2.188638417856
    O           -3.532697717699     1.886310044924     1.878853591968
    F            0.607088518518    -0.413856827379     2.058226214914
    H           -1.281048781667     0.776376629948    -1.829494743450
    H           -3.203304626450     1.790336576813    -0.653673246750
    H           -0.353905008458    -1.477733988023    -2.214590515645
    H            2.400052134250     0.389529871265     0.473248999882
    H           -1.434989418085     0.686137837505     3.085487873522
    H            1.589316511577    -2.414229945580    -3.418681917994
    H            4.228733221559    -0.635130536348    -0.827635423354
    H           -3.446655528588     1.811989885057     2.834096492898

	Cleaning optimization helper files.

*** Psi4 exiting successfully. Buy a developer a beer!
