
    -----------------------------------------------------------------------
          Psi4: An Open-Source Ab Initio Electronic Structure Package
                               Psi4 1.1 release

                         Git: Rev {HEAD} add49b9 


    R. M. Parrish, L. A. Burns, D. G. A. Smith, A. C. Simmonett,
    A. E. DePrince III, E. G. Hohenstein, U. Bozkaya, A. Yu. Sokolov,
    R. Di Remigio, R. M. Richard, J. F. Gonthier, A. M. James,
    H. R. McAlexander, A. Kumar, M. Saitow, X. Wang, B. P. Pritchard,
    P. Verma, H. F. Schaefer III, K. Patkowski, R. A. King, E. F. Valeev,
    F. A. Evangelista, J. M. Turney, T. D. Crawford, and C. D. Sherrill,
    J. Chem. Theory Comput. in press (2017).
    (doi: 10.1021/acs.jctc.7b00174)

    -----------------------------------------------------------------------


    Psi4 started on: Sunday, 12 November 2017 11:53AM

    Process ID:  13819
    PSIDATADIR: /cbio/jclab/home/chayas/anaconda/envs/py35/share/psi4
    Memory:     500.0 MiB
    Threads:    8
    
  ==> Input File <==

--------------------------------------------------------------------------

memory 5 Gb

molecule phepyrOH_neutral {
  symmetry C1
  0 1 
  C      1.885   -1.036   -0.112
  C      2.878   -1.652   2.002
  C      0.807   -0.463   0.561
  C      1.800   -1.079   2.676
  C      4.717   -3.304   0.467
  C      4.441   -1.721   -1.322
  C      5.781   -3.838   -0.242
  C      5.517   -2.326   -1.951
  C      2.921   -1.631   0.608
  C      4.040   -2.225   -0.090
  C      0.764   -0.484   1.955
  N      6.200   -3.375   -1.441
  O      -0.288   0.076   2.612
  H      1.904   -1.012   -1.199
  H      3.678   -2.112   2.578
  H      0.003   -0.001   -0.006
  H      1.772   -1.098   3.762
  H      4.433   -3.726   1.426
  H      3.936   -0.880   -1.788
  H      6.341   -4.682   0.149
  H      5.869   -1.970   -2.913
  H      -0.175   -0.018   3.571
  units Angstrom
}

dih_string = "1 9 10 5 210"
set optking fixed_dihedral = $dih_string

optimize('MP2/aug-cc-PVTZ')
--------------------------------------------------------------------------

  Memory set to   4.657 GiB by Python driver.
gradient() will perform analytic gradient computation.

*** tstart() called on gpu-1-17.local
*** at Sun Nov 12 11:53:13 2017

    SCF Algorithm Type (re)set to DF.

*** tstart() called on gpu-1-17.local
*** at Sun Nov 12 11:53:13 2017

   => Loading Basis Set <=

    Name: AUG-CC-PVTZ
    Role: ORBITAL
    Keyword: BASIS
    atoms 1-11  entry C          line   221 file /cbio/jclab/home/chayas/anaconda/envs/py35/share/psi4/basis/aug-cc-pvtz.gbs 
    atoms 12    entry N          line   267 file /cbio/jclab/home/chayas/anaconda/envs/py35/share/psi4/basis/aug-cc-pvtz.gbs 
    atoms 13    entry O          line   313 file /cbio/jclab/home/chayas/anaconda/envs/py35/share/psi4/basis/aug-cc-pvtz.gbs 
    atoms 14-22 entry H          line    34 file /cbio/jclab/home/chayas/anaconda/envs/py35/share/psi4/basis/aug-cc-pvtz.gbs 


         ---------------------------------------------------------
                                   SCF
            by Justin Turney, Rob Parrish, and Andy Simmonett
                              RHF Reference
                        8 Threads,   4768 MiB Core
         ---------------------------------------------------------

  ==> Geometry <==

    Molecular point group: c1
    Full point group: C1

    Geometry (in Angstrom), charge = 0, multiplicity = 1:

       Center              X                  Y                   Z               Mass       
    ------------   -----------------  -----------------  -----------------  -----------------
           C         -1.252941960505     0.710512021670    -0.590451568891    12.000000000000
           C         -0.259941960505     0.094512021670     1.523548431109    12.000000000000
           C         -2.330941960505     1.283512021670     0.082548431109    12.000000000000
           C         -1.337941960505     0.667512021670     2.197548431109    12.000000000000
           C          1.579058039495    -1.557487978330    -0.011451568891    12.000000000000
           C          1.303058039495     0.025512021670    -1.800451568891    12.000000000000
           C          2.643058039495    -2.091487978330    -0.720451568891    12.000000000000
           C          2.379058039495    -0.579487978330    -2.429451568891    12.000000000000
           C         -0.216941960505     0.115512021670     0.129548431109    12.000000000000
           C          0.902058039495    -0.478487978330    -0.568451568891    12.000000000000
           C         -2.373941960505     1.262512021670     1.476548431109    12.000000000000
           N          3.062058039495    -1.628487978330    -1.919451568891    14.003074004780
           O         -3.425941960505     1.822512021670     2.133548431109    15.994914619560
           H         -1.233941960505     0.734512021670    -1.677451568891     1.007825032070
           H          0.540058039495    -0.365487978330     2.099548431109     1.007825032070
           H         -3.134941960505     1.745512021670    -0.484451568891     1.007825032070
           H         -1.365941960505     0.648512021670     3.283548431109     1.007825032070
           H          1.295058039495    -1.979487978330     0.947548431109     1.007825032070
           H          0.798058039495     0.866512021670    -2.266451568891     1.007825032070
           H          3.203058039495    -2.935487978330    -0.329451568891     1.007825032070
           H          2.731058039495    -0.223487978330    -3.391451568891     1.007825032070
           H         -3.312941960505     1.728512021670     3.092548431109     1.007825032070

  Running in c1 symmetry.

  Rotational constants: A =      0.09695  B =      0.01355  C =      0.01209 [cm^-1]
  Rotational constants: A =   2906.46046  B =    406.16103  C =    362.30123 [MHz]
  Nuclear repulsion =  698.604201338748112

  Charge       = 0
  Multiplicity = 1
  Electrons    = 90
  Nalpha       = 45
  Nbeta        = 45

  ==> Algorithm <==

  SCF Algorithm Type is DF.
  DIIS enabled.
  MOM disabled.
  Fractional occupation disabled.
  Guess Type is SAD.
  Energy threshold   = 1.00e-10
  Density threshold  = 1.00e-10
  Integral threshold = 0.00e+00

  ==> Primary Basis <==

  Basis Set: AUG-CC-PVTZ
    Blend: AUG-CC-PVTZ
    Number of shells: 263
    Number of basis function: 805
    Number of Cartesian functions: 940
    Spherical Harmonics?: true
    Max angular momentum: 3

   => Loading Basis Set <=

    Name: (AUG-CC-PVTZ AUX)
    Role: JKFIT
    Keyword: DF_BASIS_SCF
    atoms 1-11  entry C          line   161 file /cbio/jclab/home/chayas/anaconda/envs/py35/share/psi4/basis/aug-cc-pvtz-jkfit.gbs 
    atoms 12    entry N          line   223 file /cbio/jclab/home/chayas/anaconda/envs/py35/share/psi4/basis/aug-cc-pvtz-jkfit.gbs 
    atoms 13    entry O          line   285 file /cbio/jclab/home/chayas/anaconda/envs/py35/share/psi4/basis/aug-cc-pvtz-jkfit.gbs 
    atoms 14-22 entry H          line    69 file /cbio/jclab/home/chayas/anaconda/envs/py35/share/psi4/basis/aug-cc-pvtz-jkfit.gbs 

  ==> Pre-Iterations <==

   -------------------------------------------------------
    Irrep   Nso     Nmo     Nalpha   Nbeta   Ndocc  Nsocc
   -------------------------------------------------------
     A        805     805       0       0       0       0
   -------------------------------------------------------
    Total     805     805      45      45      45       0
   -------------------------------------------------------

  ==> Integral Setup <==

  ==> DFJK: Density-Fitted J/K Matrices <==

    J tasked:                  Yes
    K tasked:                  Yes
    wK tasked:                  No
    OpenMP threads:              8
    Integrals threads:           8
    Memory (MB):              3576
    Algorithm:                Disk
    Integral Cache:           NONE
    Schwarz Cutoff:          1E-12
    Fitting Condition:       1E-12

   => Auxiliary Basis Set <=

  Basis Set: (AUG-CC-PVTZ AUX)
    Blend: AUG-CC-PVTZ-JKFIT
    Number of shells: 516
    Number of basis function: 1766
    Number of Cartesian functions: 2198
    Spherical Harmonics?: true
    Max angular momentum: 4

  Minimum eigenvalue in the overlap matrix is 5.5019140818E-07.
  Using Symmetric Orthogonalization.

  SCF Guess: Superposition of Atomic Densities via on-the-fly atomic UHF.

  ==> Iterations <==

                           Total Energy        Delta E     RMS |[F,P]|

   @DF-RHF iter   0:  -559.63066919216737   -5.59631e+02   1.85572e-02 
   @DF-RHF iter   1:  -550.95581954097827    8.67485e+00   2.10025e-03 
   @DF-RHF iter   2:  -551.22549098093134   -2.69671e-01   7.37175e-04 DIIS
   @DF-RHF iter   3:  -551.26924451989328   -4.37535e-02   4.15131e-04 DIIS
   @DF-RHF iter   4:  -551.28324008146865   -1.39956e-02   1.22163e-04 DIIS
   @DF-RHF iter   5:  -551.28509479194577   -1.85471e-03   4.79010e-05 DIIS
   @DF-RHF iter   6:  -551.28540019807156   -3.05406e-04   1.71783e-05 DIIS
   @DF-RHF iter   7:  -551.28545019583544   -4.99978e-05   5.33086e-06 DIIS
   @DF-RHF iter   8:  -551.28545624821231   -6.05238e-06   2.91426e-06 DIIS
   @DF-RHF iter   9:  -551.28545812328059   -1.87507e-06   1.52931e-06 DIIS
   @DF-RHF iter  10:  -551.28545885365634   -7.30376e-07   5.85463e-07 DIIS
   @DF-RHF iter  11:  -551.28545895422735   -1.00571e-07   2.43603e-07 DIIS
   @DF-RHF iter  12:  -551.28545896410776   -9.88041e-09   8.72335e-08 DIIS
   @DF-RHF iter  13:  -551.28545896538833   -1.28057e-09   4.36443e-08 DIIS
   @DF-RHF iter  14:  -551.28545896578794   -3.99609e-10   1.84148e-08 DIIS
   @DF-RHF iter  15:  -551.28545896588139   -9.34506e-11   8.02373e-09 DIIS
   @DF-RHF iter  16:  -551.28545896590163   -2.02363e-11   3.24970e-09 DIIS
   @DF-RHF iter  17:  -551.28545896591720   -1.55751e-11   1.57110e-09 DIIS
   @DF-RHF iter  18:  -551.28545896589958    1.76215e-11   4.95704e-10 DIIS
   @DF-RHF iter  19:  -551.28545896591152   -1.19371e-11   2.80293e-10 DIIS
   @DF-RHF iter  20:  -551.28545896591095    5.68434e-13   1.18618e-10 DIIS
   @DF-RHF iter  21:  -551.28545896591777   -6.82121e-12   6.49039e-11 DIIS

  ==> Post-Iterations <==

    Orbital Energies (a.u.)
    -----------------------

    Doubly Occupied:                                                      

       1A    -20.601573     2A    -15.561047     3A    -11.316624  
       4A    -11.273788     5A    -11.273542     6A    -11.262781  
       7A    -11.255367     8A    -11.254072     9A    -11.246159  
      10A    -11.244161    11A    -11.242677    12A    -11.235621  
      13A    -11.235479    14A     -1.416730    15A     -1.248072  
      16A     -1.174253    17A     -1.104027    18A     -1.039509  
      19A     -1.028464    20A     -1.009593    21A     -0.882027  
      22A     -0.873478    23A     -0.838995    24A     -0.810557  
      25A     -0.749142    26A     -0.725031    27A     -0.684513  
      28A     -0.664998    29A     -0.650226    30A     -0.632449  
      31A     -0.614044    32A     -0.608681    33A     -0.602624  
      34A     -0.592051    35A     -0.575487    36A     -0.543304  
      37A     -0.530568    38A     -0.522868    39A     -0.501831  
      40A     -0.494839    41A     -0.417000    42A     -0.395702  
      43A     -0.355973    44A     -0.348646    45A     -0.305844  

    Virtual:                                                              

      46A      0.021342    47A      0.029597    48A      0.032100  
      49A      0.039641    50A      0.042743    51A      0.045238  
      52A      0.054998    53A      0.057106    54A      0.063515  
      55A      0.077455    56A      0.078616    57A      0.084001  
      58A      0.087945    59A      0.093461    60A      0.096935  
      61A      0.102276    62A      0.103799    63A      0.108392  
      64A      0.109718    65A      0.111614    66A      0.114884  
      67A      0.119332    68A      0.121751    69A      0.127190  
      70A      0.129895    71A      0.132722    72A      0.134683  
      73A      0.137207    74A      0.143637    75A      0.146150  
      76A      0.149183    77A      0.150160    78A      0.154129  
      79A      0.160236    80A      0.164633    81A      0.168185  
      82A      0.173825    83A      0.176727    84A      0.182722  
      85A      0.184632    86A      0.187024    87A      0.200994  
      88A      0.204237    89A      0.214536    90A      0.216247  
      91A      0.222253    92A      0.222960    93A      0.226051  
      94A      0.236686    95A      0.240332    96A      0.242245  
      97A      0.246385    98A      0.250336    99A      0.252756  
     100A      0.256058   101A      0.257223   102A      0.263560  
     103A      0.266068   104A      0.272859   105A      0.274389  
     106A      0.277441   107A      0.285495   108A      0.289190  
     109A      0.291013   110A      0.298368   111A      0.300211  
     112A      0.301468   113A      0.307090   114A      0.312157  
     115A      0.316312   116A      0.318242   117A      0.325612  
     118A      0.328233   119A      0.329155   120A      0.333934  
     121A      0.339829   122A      0.344545   123A      0.356114  
     124A      0.357725   125A      0.361978   126A      0.366101  
     127A      0.371719   128A      0.373784   129A      0.386204  
     130A      0.391678   131A      0.396573   132A      0.398313  
     133A      0.404009   134A      0.408587   135A      0.414269  
     136A      0.419001   137A      0.425051   138A      0.427947  
     139A      0.432851   140A      0.434206   141A      0.438384  
     142A      0.439630   143A      0.445917   144A      0.447550  
     145A      0.449028   146A      0.451346   147A      0.457991  
     148A      0.462254   149A      0.464713   150A      0.468011  
     151A      0.471790   152A      0.475979   153A      0.484202  
     154A      0.486097   155A      0.489281   156A      0.491854  
     157A      0.500896   158A      0.501718   159A      0.504175  
     160A      0.508270   161A      0.509462   162A      0.511785  
     163A      0.515026   164A      0.517132   165A      0.520999  
     166A      0.526146   167A      0.529283   168A      0.531550  
     169A      0.534041   170A      0.541308   171A      0.545864  
     172A      0.548653   173A      0.550422   174A      0.555205  
     175A      0.556985   176A      0.565107   177A      0.568212  
     178A      0.579267   179A      0.580465   180A      0.588068  
     181A      0.593953   182A      0.599735   183A      0.605710  
     184A      0.612302   185A      0.614533   186A      0.621330  
     187A      0.627609   188A      0.637624   189A      0.641203  
     190A      0.646542   191A      0.654485   192A      0.659748  
     193A      0.666217   194A      0.679459   195A      0.688013  
     196A      0.691682   197A      0.697063   198A      0.701944  
     199A      0.706992   200A      0.708795   201A      0.716656  
     202A      0.719809   203A      0.730350   204A      0.731548  
     205A      0.733733   206A      0.739526   207A      0.739923  
     208A      0.749518   209A      0.755426   210A      0.764047  
     211A      0.767587   212A      0.773063   213A      0.777561  
     214A      0.798568   215A      0.802707   216A      0.803917  
     217A      0.807901   218A      0.812084   219A      0.816921  
     220A      0.823410   221A      0.829406   222A      0.833653  
     223A      0.837413   224A      0.840090   225A      0.848000  
     226A      0.855617   227A      0.856663   228A      0.866143  
     229A      0.870015   230A      0.876408   231A      0.879660  
     232A      0.882982   233A      0.883545   234A      0.888639  
     235A      0.892595   236A      0.896242   237A      0.906834  
     238A      0.910053   239A      0.911737   240A      0.918476  
     241A      0.927075   242A      0.930394   243A      0.934360  
     244A      0.943893   245A      0.947774   246A      0.952673  
     247A      0.957001   248A      0.963254   249A      0.965162  
     250A      0.970791   251A      0.974917   252A      0.978369  
     253A      0.982004   254A      0.987409   255A      0.990208  
     256A      0.995872   257A      0.998899   258A      1.002730  
     259A      1.014053   260A      1.016863   261A      1.018179  
     262A      1.020569   263A      1.026190   264A      1.031456  
     265A      1.039679   266A      1.041047   267A      1.041618  
     268A      1.047796   269A      1.050015   270A      1.057224  
     271A      1.059256   272A      1.060273   273A      1.069952  
     274A      1.076577   275A      1.078104   276A      1.086006  
     277A      1.089191   278A      1.091921   279A      1.099378  
     280A      1.100498   281A      1.103919   282A      1.106827  
     283A      1.115026   284A      1.116169   285A      1.122839  
     286A      1.123436   287A      1.126522   288A      1.136981  
     289A      1.149728   290A      1.153879   291A      1.159623  
     292A      1.162477   293A      1.166262   294A      1.169555  
     295A      1.173793   296A      1.177730   297A      1.185154  
     298A      1.188876   299A      1.194499   300A      1.202390  
     301A      1.207162   302A      1.208685   303A      1.214076  
     304A      1.219347   305A      1.221995   306A      1.225110  
     307A      1.231435   308A      1.233966   309A      1.245508  
     310A      1.251633   311A      1.257037   312A      1.266177  
     313A      1.274850   314A      1.277950   315A      1.285193  
     316A      1.288809   317A      1.297711   318A      1.299569  
     319A      1.304657   320A      1.312179   321A      1.317419  
     322A      1.326632   323A      1.334495   324A      1.341026  
     325A      1.347252   326A      1.353488   327A      1.359071  
     328A      1.371473   329A      1.378169   330A      1.389046  
     331A      1.393362   332A      1.398269   333A      1.411866  
     334A      1.425448   335A      1.431965   336A      1.442943  
     337A      1.450254   338A      1.453045   339A      1.455077  
     340A      1.462857   341A      1.464601   342A      1.476462  
     343A      1.494955   344A      1.498810   345A      1.504537  
     346A      1.509045   347A      1.515204   348A      1.521612  
     349A      1.528679   350A      1.533740   351A      1.539947  
     352A      1.552342   353A      1.560467   354A      1.575274  
     355A      1.586591   356A      1.591659   357A      1.598911  
     358A      1.607414   359A      1.608725   360A      1.616123  
     361A      1.623284   362A      1.647201   363A      1.654570  
     364A      1.655297   365A      1.660751   366A      1.673209  
     367A      1.677958   368A      1.692226   369A      1.695672  
     370A      1.699224   371A      1.703297   372A      1.712043  
     373A      1.722891   374A      1.727501   375A      1.733979  
     376A      1.741045   377A      1.745432   378A      1.751107  
     379A      1.755547   380A      1.770995   381A      1.776645  
     382A      1.781754   383A      1.795332   384A      1.805366  
     385A      1.815504   386A      1.819280   387A      1.827228  
     388A      1.833942   389A      1.839375   390A      1.842748  
     391A      1.852541   392A      1.863176   393A      1.865768  
     394A      1.868580   395A      1.876155   396A      1.884077  
     397A      1.906373   398A      1.910387   399A      1.919129  
     400A      1.927223   401A      1.942424   402A      1.946592  
     403A      1.953464   404A      1.961011   405A      1.966640  
     406A      1.968854   407A      1.975069   408A      1.982361  
     409A      1.991075   410A      1.998869   411A      2.010223  
     412A      2.019628   413A      2.022270   414A      2.034708  
     415A      2.040153   416A      2.047847   417A      2.054287  
     418A      2.056316   419A      2.065604   420A      2.073208  
     421A      2.079535   422A      2.089927   423A      2.096638  
     424A      2.108383   425A      2.109718   426A      2.119924  
     427A      2.125692   428A      2.131860   429A      2.134885  
     430A      2.140236   431A      2.146849   432A      2.151614  
     433A      2.175863   434A      2.181533   435A      2.187124  
     436A      2.193584   437A      2.195674   438A      2.213217  
     439A      2.222851   440A      2.233982   441A      2.237308  
     442A      2.243413   443A      2.257748   444A      2.267103  
     445A      2.273830   446A      2.294252   447A      2.306144  
     448A      2.312491   449A      2.320323   450A      2.329593  
     451A      2.340163   452A      2.354358   453A      2.362399  
     454A      2.366513   455A      2.377156   456A      2.380776  
     457A      2.400125   458A      2.402333   459A      2.407538  
     460A      2.414609   461A      2.418825   462A      2.433266  
     463A      2.452914   464A      2.457824   465A      2.477279  
     466A      2.485015   467A      2.509063   468A      2.509414  
     469A      2.525716   470A      2.533609   471A      2.549632  
     472A      2.560164   473A      2.567263   474A      2.572575  
     475A      2.581957   476A      2.585938   477A      2.604670  
     478A      2.608461   479A      2.616298   480A      2.645560  
     481A      2.648378   482A      2.657574   483A      2.685235  
     484A      2.715536   485A      2.724801   486A      2.751351  
     487A      2.762858   488A      2.776254   489A      2.806446  
     490A      2.814473   491A      2.820895   492A      2.836521  
     493A      2.856551   494A      2.866036   495A      2.867864  
     496A      2.885299   497A      2.896250   498A      2.899933  
     499A      2.940776   500A      2.952998   501A      2.994705  
     502A      3.002871   503A      3.015413   504A      3.062580  
     505A      3.068224   506A      3.085188   507A      3.104741  
     508A      3.120641   509A      3.152204   510A      3.165539  
     511A      3.195033   512A      3.212712   513A      3.228856  
     514A      3.236849   515A      3.240238   516A      3.249424  
     517A      3.278410   518A      3.292530   519A      3.300851  
     520A      3.307175   521A      3.318453   522A      3.336108  
     523A      3.345232   524A      3.358292   525A      3.369328  
     526A      3.375470   527A      3.387618   528A      3.401226  
     529A      3.409323   530A      3.418785   531A      3.426814  
     532A      3.433271   533A      3.441540   534A      3.446732  
     535A      3.461093   536A      3.474947   537A      3.479145  
     538A      3.491127   539A      3.497933   540A      3.516132  
     541A      3.520742   542A      3.527973   543A      3.537484  
     544A      3.543523   545A      3.553529   546A      3.558875  
     547A      3.563953   548A      3.577628   549A      3.581911  
     550A      3.586557   551A      3.589788   552A      3.597040  
     553A      3.605008   554A      3.630029   555A      3.640647  
     556A      3.648248   557A      3.654479   558A      3.666671  
     559A      3.673988   560A      3.690135   561A      3.696173  
     562A      3.708883   563A      3.717563   564A      3.732142  
     565A      3.744586   566A      3.757166   567A      3.767908  
     568A      3.779386   569A      3.780493   570A      3.787217  
     571A      3.792709   572A      3.816099   573A      3.819533  
     574A      3.833788   575A      3.837310   576A      3.846568  
     577A      3.856630   578A      3.860224   579A      3.874807  
     580A      3.882356   581A      3.890161   582A      3.896008  
     583A      3.899291   584A      3.913944   585A      3.922068  
     586A      3.935818   587A      3.941478   588A      3.943559  
     589A      3.948980   590A      3.963281   591A      3.969685  
     592A      3.973790   593A      3.986989   594A      3.998702  
     595A      4.005367   596A      4.013292   597A      4.025753  
     598A      4.030623   599A      4.034378   600A      4.037868  
     601A      4.040313   602A      4.058565   603A      4.084151  
     604A      4.095223   605A      4.099482   606A      4.111817  
     607A      4.122367   608A      4.127679   609A      4.140809  
     610A      4.146981   611A      4.150163   612A      4.155864  
     613A      4.170544   614A      4.175695   615A      4.186364  
     616A      4.201452   617A      4.202473   618A      4.214033  
     619A      4.224974   620A      4.233849   621A      4.253970  
     622A      4.255443   623A      4.262914   624A      4.275678  
     625A      4.283613   626A      4.294008   627A      4.305624  
     628A      4.316849   629A      4.326311   630A      4.331705  
     631A      4.339817   632A      4.345489   633A      4.355551  
     634A      4.364329   635A      4.371157   636A      4.388141  
     637A      4.390809   638A      4.401438   639A      4.408369  
     640A      4.414775   641A      4.425958   642A      4.432959  
     643A      4.440031   644A      4.444378   645A      4.452595  
     646A      4.459124   647A      4.466170   648A      4.473157  
     649A      4.495687   650A      4.499277   651A      4.506724  
     652A      4.515370   653A      4.524584   654A      4.528292  
     655A      4.535915   656A      4.557820   657A      4.574312  
     658A      4.589847   659A      4.601503   660A      4.619503  
     661A      4.636839   662A      4.644278   663A      4.668685  
     664A      4.680714   665A      4.686390   666A      4.695104  
     667A      4.704377   668A      4.723709   669A      4.733893  
     670A      4.747709   671A      4.770825   672A      4.784637  
     673A      4.799958   674A      4.808644   675A      4.824311  
     676A      4.844599   677A      4.869022   678A      4.873248  
     679A      4.885204   680A      4.898102   681A      4.914418  
     682A      4.932712   683A      4.944139   684A      4.948212  
     685A      4.953752   686A      4.964450   687A      4.984696  
     688A      4.994148   689A      5.011130   690A      5.026228  
     691A      5.032950   692A      5.046352   693A      5.050306  
     694A      5.056947   695A      5.078698   696A      5.096656  
     697A      5.098942   698A      5.112695   699A      5.122472  
     700A      5.136475   701A      5.145740   702A      5.147013  
     703A      5.162870   704A      5.166476   705A      5.172632  
     706A      5.180046   707A      5.211485   708A      5.222154  
     709A      5.233724   710A      5.244188   711A      5.267759  
     712A      5.282156   713A      5.297518   714A      5.304451  
     715A      5.313011   716A      5.325670   717A      5.345718  
     718A      5.360280   719A      5.378560   720A      5.398651  
     721A      5.414161   722A      5.422429   723A      5.429780  
     724A      5.442212   725A      5.447728   726A      5.485910  
     727A      5.489766   728A      5.527697   729A      5.545409  
     730A      5.555913   731A      5.561046   732A      5.571693  
     733A      5.624609   734A      5.632282   735A      5.672984  
     736A      5.703813   737A      5.711026   738A      5.715546  
     739A      5.757671   740A      5.764002   741A      5.801691  
     742A      5.826476   743A      5.827848   744A      5.852211  
     745A      5.874881   746A      5.880636   747A      5.916515  
     748A      5.927421   749A      5.986028   750A      6.067451  
     751A      6.087687   752A      6.122551   753A      6.158388  
     754A      6.187830   755A      6.217808   756A      6.266785  
     757A      6.283004   758A      6.333909   759A      6.374254  
     760A      6.407016   761A      6.438837   762A      6.471367  
     763A      6.483644   764A      6.507416   765A      6.527825  
     766A      6.600464   767A      6.628036   768A      6.712407  
     769A      6.715459   770A      6.740700   771A      6.746848  
     772A      6.887974   773A      6.892570   774A      6.901528  
     775A      6.912689   776A      6.944095   777A      6.976283  
     778A      7.002365   779A      7.050610   780A      7.100405  
     781A      7.107847   782A      7.225773   783A      7.259124  
     784A      7.421520   785A      7.425140   786A      7.445927  
     787A      7.685740   788A      7.712598   789A      7.756848  
     790A      8.011586   791A      8.388976   792A      8.638677  
     793A     15.642837   794A     16.395540   795A     16.679887  
     796A     16.762706   797A     16.832088   798A     18.432399  
     799A     18.828161   800A     19.207878   801A     19.585410  
     802A     20.061306   803A     20.085937   804A     20.599073  
     805A     21.826053  

    Final Occupation by Irrep:
              A 
    DOCC [    45 ]

  Energy converged.

  @DF-RHF Final Energy:  -551.28545896591777

   => Energetics <=

    Nuclear Repulsion Energy =            698.6042013387481120
    One-Electron Energy =               -2133.8904857179454666
    Two-Electron Energy =                 884.0008254132794718
    DFT Exchange-Correlation Energy =       0.0000000000000000
    Empirical Dispersion Energy =           0.0000000000000000
    PCM Polarization Energy =               0.0000000000000000
    EFP Energy =                            0.0000000000000000
    Total Energy =                       -551.2854589659177691



Properties will be evaluated at   0.000000,   0.000000,   0.000000 Bohr

Properties computed using the SCF density matrix

  Nuclear Dipole Moment: (a.u.)
     X:    -0.4758      Y:     0.2194      Z:     1.2101

  Electronic Dipole Moment: (a.u.)
     X:    -0.1894      Y:     0.1162      Z:    -0.2031

  Dipole Moment: (a.u.)
     X:    -0.6652      Y:     0.3355      Z:     1.0070     Total:     1.2527

  Dipole Moment: (Debye)
     X:    -1.6907      Y:     0.8529      Z:     2.5596     Total:     3.1840


*** tstop() called on gpu-1-17.local at Sun Nov 12 12:01:26 2017
Module time:
	user time   =    1138.49 seconds =      18.97 minutes
	system time =      52.18 seconds =       0.87 minutes
	total time  =        493 seconds =       8.22 minutes
Total time:
	user time   =    1138.50 seconds =      18.98 minutes
	system time =      52.18 seconds =       0.87 minutes
	total time  =        493 seconds =       8.22 minutes

  //>>>>>>>>>>>>>>>>>>>>>>>>>>>>>>>>>>>//
  //               DFMP2               //
  //<<<<<<<<<<<<<<<<<<<<<<<<<<<<<<<<<<<//

   => Loading Basis Set <=

    Name: (AUG-CC-PVTZ AUX)
    Role: RIFIT
    Keyword: DF_BASIS_MP2
    atoms 1-11  entry C          line   147 file /cbio/jclab/home/chayas/anaconda/envs/py35/share/psi4/basis/aug-cc-pvtz-ri.gbs 
    atoms 12    entry N          line   205 file /cbio/jclab/home/chayas/anaconda/envs/py35/share/psi4/basis/aug-cc-pvtz-ri.gbs 
    atoms 13    entry O          line   263 file /cbio/jclab/home/chayas/anaconda/envs/py35/share/psi4/basis/aug-cc-pvtz-ri.gbs 
    atoms 14-22 entry H          line    29 file /cbio/jclab/home/chayas/anaconda/envs/py35/share/psi4/basis/aug-cc-pvtz-ri.gbs 

	 --------------------------------------------------------
	                          DF-MP2                         
	      2nd-Order Density-Fitted Moller-Plesset Theory     
	              RMP2 Wavefunction,   8 Threads             
	                                                         
	        Rob Parrish, Justin Turney, Andy Simmonett,      
	           Ed Hohenstein, and C. David Sherrill          
	 --------------------------------------------------------

   => Auxiliary Basis Set <=

  Basis Set: (AUG-CC-PVTZ AUX)
    Blend: AUG-CC-PVTZ-RI
    Number of shells: 490
    Number of basis function: 1792
    Number of Cartesian functions: 2263
    Spherical Harmonics?: true
    Max angular momentum: 4

	 --------------------------------------------------------
	                 NBF =   805, NAUX =  1792
	 --------------------------------------------------------
	   CLASS    FOCC     OCC    AOCC    AVIR     VIR    FVIR
	   PAIRS       0      45      45     760     760       0
	 --------------------------------------------------------


         ------------------------------------------------------------
                                     CPHF                           
                                  Rob Parrish                       
         ------------------------------------------------------------

  ==> Geometry <==

    Molecular point group: c1
    Full point group: C1

    Geometry (in Angstrom), charge = 0, multiplicity = 1:

       Center              X                  Y                   Z               Mass       
    ------------   -----------------  -----------------  -----------------  -----------------
           C         -1.252941960505     0.710512021670    -0.590451568891    12.000000000000
           C         -0.259941960505     0.094512021670     1.523548431109    12.000000000000
           C         -2.330941960505     1.283512021670     0.082548431109    12.000000000000
           C         -1.337941960505     0.667512021670     2.197548431109    12.000000000000
           C          1.579058039495    -1.557487978330    -0.011451568891    12.000000000000
           C          1.303058039495     0.025512021670    -1.800451568891    12.000000000000
           C          2.643058039495    -2.091487978330    -0.720451568891    12.000000000000
           C          2.379058039495    -0.579487978330    -2.429451568891    12.000000000000
           C         -0.216941960505     0.115512021670     0.129548431109    12.000000000000
           C          0.902058039495    -0.478487978330    -0.568451568891    12.000000000000
           C         -2.373941960505     1.262512021670     1.476548431109    12.000000000000
           N          3.062058039495    -1.628487978330    -1.919451568891    14.003074004780
           O         -3.425941960505     1.822512021670     2.133548431109    15.994914619560
           H         -1.233941960505     0.734512021670    -1.677451568891     1.007825032070
           H          0.540058039495    -0.365487978330     2.099548431109     1.007825032070
           H         -3.134941960505     1.745512021670    -0.484451568891     1.007825032070
           H         -1.365941960505     0.648512021670     3.283548431109     1.007825032070
           H          1.295058039495    -1.979487978330     0.947548431109     1.007825032070
           H          0.798058039495     0.866512021670    -2.266451568891     1.007825032070
           H          3.203058039495    -2.935487978330    -0.329451568891     1.007825032070
           H          2.731058039495    -0.223487978330    -3.391451568891     1.007825032070
           H         -3.312941960505     1.728512021670     3.092548431109     1.007825032070

  Nuclear repulsion =  698.604201338748112
  Reference energy  = -551.285458965917769

  ==> Basis Set <==

  Basis Set: AUG-CC-PVTZ
    Blend: AUG-CC-PVTZ
    Number of shells: 263
    Number of basis function: 805
    Number of Cartesian functions: 940
    Spherical Harmonics?: true
    Max angular momentum: 3

  ==> CGRSolver (by Rob Parrish) <==

   Number of roots    =         1
   Preconditioning    =    JACOBI
   Convergence cutoff =     1E-06
   Maximum iterations =       100

  ==> CPHFRHamiltonian (by Rob Parrish) <== 

  ==> DFJK: Density-Fitted J/K Matrices <==

    J tasked:                  Yes
    K tasked:                  Yes
    wK tasked:                  No
    OpenMP threads:              8
    Integrals threads:           8
    Memory (MB):              3576
    Algorithm:                Disk
    Integral Cache:           NONE
    Schwarz Cutoff:          1E-12
    Fitting Condition:       1E-12

   => Auxiliary Basis Set <=

  Basis Set: (AUG-CC-PVTZ AUX)
    Blend: AUG-CC-PVTZ-JKFIT
    Number of shells: 516
    Number of basis function: 1766
    Number of Cartesian functions: 2198
    Spherical Harmonics?: true
    Max angular momentum: 4

  ==> CPHF Iterations <==

  => Iterations <=

             Iter  Converged  Remaining    Residual
  CGR           1          0          1   9.190E-02
  CGR           2          0          1   3.822E-02
  CGR           3          0          1   2.664E-02
  CGR           4          0          1   1.057E-02
  CGR           5          0          1   4.216E-03
  CGR           6          0          1   1.781E-03
  CGR           7          0          1   5.013E-04
  CGR           8          0          1   1.582E-04
  CGR           9          0          1   7.781E-05
  CGR          10          0          1   3.656E-05
  CGR          11          0          1   1.417E-05
  CGR          12          0          1   5.039E-06
  CGR          13          0          1   1.497E-06
  CGR          14          1          0   4.879E-07

    CGRSolver converged.

  ==> DFCorrGrad: Density-Fitted Correlated Gradients <==

    OpenMP threads:              8
    Integrals threads:           8
    Memory (MB):              3576
    Schwarz Cutoff:          0E+00
    Fitting Condition:       1E-12

   => Auxiliary Basis Set <=

  Basis Set: (AUG-CC-PVTZ AUX)
    Blend: AUG-CC-PVTZ-JKFIT
    Number of shells: 516
    Number of basis function: 1766
    Number of Cartesian functions: 2198
    Spherical Harmonics?: true
    Max angular momentum: 4

	-----------------------------------------------------------
	 ==================> DF-MP2 Energies <==================== 
	-----------------------------------------------------------
	 Reference Energy          =    -551.2854589659177691 [Eh]
	 Singles Energy            =      -0.0000000000000001 [Eh]
	 Same-Spin Energy          =      -0.6052582543312649 [Eh]
	 Opposite-Spin Energy      =      -1.8311201128389900 [Eh]
	 Correlation Energy        =      -2.4363783671702550 [Eh]
	 Total Energy              =    -553.7218373330880468 [Eh]
	-----------------------------------------------------------
	 ================> DF-SCS-MP2 Energies <================== 
	-----------------------------------------------------------
	 SCS Same-Spin Scale       =       0.3333333333333333 [-]
	 SCS Opposite-Spin Scale   =       1.2000000000000000 [-]
	 SCS Same-Spin Energy      =      -0.2017527514437550 [Eh]
	 SCS Opposite-Spin Energy  =      -2.1973441354067877 [Eh]
	 SCS Correlation Energy    =      -2.3990968868505429 [Eh]
	 SCS Total Energy          =    -553.6845558527683124 [Eh]
	-----------------------------------------------------------


  -Total Gradient:
     Atom            X                  Y                   Z
    ------   -----------------  -----------------  -----------------
       1        0.007661428975    -0.005938542274    -0.009783474973
       2        0.010558463171    -0.003159933890    -0.005171016596
       3        0.001344367254    -0.001404466153     0.002639157758
       4       -0.006787118573     0.003728213619     0.007037373183
       5       -0.008565301311     0.000703704903     0.006979044676
       6       -0.006978392427     0.007253128888     0.002804108590
       7       -0.007623000401    -0.000702502714     0.010170317086
       8       -0.008396905665     0.009560182176    -0.000453764540
       9        0.002259374807    -0.001439519948    -0.001940695121
      10        0.004458524932    -0.002089868054    -0.002888959479
      11       -0.006881985216     0.004137231375    -0.008203582792
      12        0.012707994338    -0.006614963942    -0.008087418145
      13        0.005595813139    -0.003117271749     0.000665353477
      14        0.000669777167     0.001829417500    -0.006553257161
      15        0.003525297465    -0.004168515047     0.004218598335
      16       -0.002555044506     0.001974657618    -0.005207960818
      17        0.000758602281    -0.000830482277     0.003706791458
      18        0.000193113539    -0.001575680477     0.005715124488
      19       -0.003488753441     0.003467445017    -0.003806527069
      20        0.002117818479    -0.002333641517     0.000693890164
      21        0.001071821232     0.000125094328    -0.002168609540
      22       -0.001645895242     0.000596312621     0.009635507015


*** tstop() called on gpu-1-17.local at Sun Nov 12 12:33:44 2017
Module time:
	user time   =    5095.90 seconds =      84.93 minutes
	system time =     108.18 seconds =       1.80 minutes
	total time  =       2431 seconds =      40.52 minutes
Total time:
	user time   =    5095.91 seconds =      84.93 minutes
	system time =     108.18 seconds =       1.80 minutes
	total time  =       2431 seconds =      40.52 minutes

			-----------------------------------------
			 OPTKING 2.0: for geometry optimizations 
			  - R.A. King,  Bethel University        
			-----------------------------------------

	Internal coordinates to be generated automatically.
	Detected frag 1 with atoms:  1 2 3 4 5 6 7 8 9 10 11 12 13 14 15 16 17 18 19 20
	 21 22
	---Fragment 1 Bond Connectivity---
	 1 : 3 9 14
	 2 : 4 9 15
	 3 : 1 11 16
	 4 : 2 11 17
	 5 : 7 10 18
	 6 : 8 10 19
	 7 : 5 12 20
	 8 : 6 12 21
	 9 : 1 2 10
	 10 : 5 6 9
	 11 : 3 4 13
	 12 : 7 8
	 13 : 11 22
	 14 : 1
	 15 : 2
	 16 : 3
	 17 : 4
	 18 : 5
	 19 : 6
	 20 : 7
	 21 : 8
	 22 : 13

	Assuming in current code that numbering for constraints corresponds to unified fragment.
	Fixed dihedral atom list: 
	     1     9    10     5
	---Fragment 1 Geometry and Gradient---
	 C          -2.3677171658        1.3426731351       -1.1157917599
	 C          -0.4912191158        0.1786018372        2.8790892850
	 C          -4.4048419370        2.4254862092        0.1559939275
	 C          -2.5283438871        1.2614149114        4.1527646985
	 C           2.9839872426       -2.9432257343       -0.0216403290
	 C           2.4624228299        0.0482107341       -3.4023603807
	 C           4.9946558480       -3.9523394893       -1.3614561572
	 C           4.4957681489       -1.0950735763       -4.5909981183
	 C          -0.4099608921        0.2182860860        0.2448110557
	 C           1.7046426506       -0.9042112369       -1.0742177850
	 C          -4.4861001607        2.3858019604        2.7902721567
	 N           5.7864510976       -3.0773962897       -3.6272377905
	 O          -6.4740920525        3.4440485948        4.0318222260
	 H          -2.3318123692        1.3880265623       -3.1699240664
	 H           1.0205617905       -0.6906721839        3.9675715375
	 H          -5.9241817478        3.2985396826       -0.9154807899
	 H          -2.5812562188        1.2255101148        6.2050072789
	 H           2.4473050208       -3.7406901624        1.7906070324
	 H           1.5081111328        1.6374704118       -4.2829727587
	 H           6.0529024824       -5.5472683454       -0.6225732393
	 H           5.1609517477       -0.4223310730       -6.4089146581
	 H          -6.2605529995        3.2664143384        5.8440695875
	             0.0076614290       -0.0059385423       -0.0097834750
	             0.0105584632       -0.0031599339       -0.0051710166
	             0.0013443673       -0.0014044662        0.0026391578
	            -0.0067871186        0.0037282136        0.0070373732
	            -0.0085653013        0.0007037049        0.0069790447
	            -0.0069783924        0.0072531289        0.0028041086
	            -0.0076230004       -0.0007025027        0.0101703171
	            -0.0083969057        0.0095601822       -0.0004537645
	             0.0022593748       -0.0014395199       -0.0019406951
	             0.0044585249       -0.0020898681       -0.0028889595
	            -0.0068819852        0.0041372314       -0.0082035828
	             0.0127079943       -0.0066149639       -0.0080874181
	             0.0055958131       -0.0031172717        0.0006653535
	             0.0006697772        0.0018294175       -0.0065532572
	             0.0035252975       -0.0041685150        0.0042185983
	            -0.0025550445        0.0019746576       -0.0052079608
	             0.0007586023       -0.0008304823        0.0037067915
	             0.0001931135       -0.0015756805        0.0057151245
	            -0.0034887534        0.0034674450       -0.0038065271
	             0.0021178185       -0.0023336415        0.0006938902
	             0.0010718212        0.0001250943       -0.0021686095
	            -0.0016458952        0.0005963126        0.0096355070

	Previous optimization step data not found.  Starting new optimization.

	---Fragment 1 Intrafragment Coordinates---
	 - Coordinate -           - BOHR/RAD -       - ANG/DEG -
	 R(1,3)           =         2.634350	       1.394038
	 R(1,9)           =         2.635962	       1.394891
	 R(1,14)          =         2.054947	       1.087431
	 R(2,4)           =         2.635263	       1.394521
	 R(2,9)           =         2.635830	       1.394821
	 R(2,15)          =         2.055702	       1.087831
	 R(3,11)          =         2.635830	       1.394821
	 R(3,16)          =         2.053941	       1.086899
	 R(4,11)          =         2.636938	       1.395407
	 R(4,17)          =         2.053239	       1.086527
	 R(5,7)           =         2.618436	       1.385616
	 R(5,10)          =         2.627208	       1.390259
	 R(5,18)          =         2.051394	       1.085551
	 R(6,8)           =         2.618101	       1.385439
	 R(6,10)          =         2.627087	       1.390195
	 R(6,19)          =         2.052300	       1.086030
	 R(7,12)          =         2.554649	       1.351862
	 R(7,20)          =         2.051739	       1.085733
	 R(8,12)          =         2.554271	       1.351662
	 R(8,21)          =         2.049359	       1.084474
	 R(9,10)          =         2.733384	       1.446444
	 R(11,13)         =         2.571662	       1.360865
	 R(13,22)         =         1.833410	       0.970199
	 B(1,3,11)        =         2.094553	     120.009056
	 B(1,3,16)        =         2.088505	     119.662516
	 B(1,9,2)         =         2.093692	     119.959722
	 B(1,9,10)        =         2.095161	     120.043881
	 B(2,4,11)        =         2.093699	     119.960108
	 B(2,4,17)        =         2.089577	     119.723926
	 B(2,9,10)        =         2.094332	     119.996376
	 B(3,1,9)         =         2.094940	     120.031219
	 B(3,1,14)        =         2.079469	     119.144799
	 B(3,11,4)        =         2.094306	     119.994870
	 B(3,11,13)       =         2.094549	     120.008801
	 B(4,2,9)         =         2.095181	     120.045019
	 B(4,2,15)        =         2.078675	     119.099297
	 B(4,11,13)       =         2.094331	     119.996326
	 B(5,7,12)        =         2.164985	     124.044505
	 B(5,7,20)        =         2.107580	     120.755430
	 B(5,10,6)        =         2.089740	     119.733286
	 B(5,10,9)        =         2.096830	     120.139502
	 B(6,8,12)        =         2.165235	     124.058807
	 B(6,8,21)        =         2.107691	     120.761802
	 B(6,10,9)        =         2.096613	     120.127065
	 B(7,5,10)        =         2.057859	     117.906640
	 B(7,5,18)        =         2.097992	     120.206075
	 B(7,12,8)        =         2.030669	     116.348751
	 B(8,6,10)        =         2.057882	     117.907980
	 B(8,6,19)        =         2.099588	     120.297531
	 B(9,1,14)        =         2.108776	     120.823969
	 B(9,2,15)        =         2.109330	     120.855683
	 B(10,5,18)       =         2.127334	     121.887285
	 B(10,6,19)       =         2.125715	     121.794487
	 B(11,3,16)       =         2.100127	     120.328425
	 B(11,4,17)       =         2.099910	     120.315955
	 B(11,13,22)      =         1.925489	     110.322421
	 B(12,7,20)       =         2.010618	     115.199932
	 B(12,8,21)       =         2.010259	     115.179383
	 D(1,3,11,4)      =        -0.000325	      -0.018609
	 D(1,3,11,13)     =         3.140978	     179.964785
	 D(1,9,2,4)       =         0.000325	       0.018608
	 D(1,9,2,15)      =        -3.141497	    -179.994534
	 D(1,9,10,5)      =        -2.617524	    -149.973051
	 D(1,9,10,6)      =         0.521629	      29.887146
	 D(2,4,11,3)      =         0.000301	       0.017261
	 D(2,4,11,13)     =        -3.141002	    -179.966135
	 D(2,9,1,3)       =        -0.000348	      -0.019945
	 D(2,9,1,14)      =        -3.141221	    -179.978731
	 D(2,9,10,5)      =         0.524985	      30.079452
	 D(2,9,10,6)      =        -2.619047	    -150.060351
	 D(3,1,9,10)      =        -3.141025	    -179.967461
	 D(3,11,4,17)     =         3.141223	     179.978848
	 D(3,11,13,22)    =         3.140828	     179.956172
	 D(4,2,9,10)      =         3.141002	     179.966149
	 D(4,11,3,16)     =         3.141593	     180.000000
	 D(4,11,13,22)    =        -0.001055	      -0.060434
	 D(5,7,12,8)      =        -0.000128	      -0.007352
	 D(5,10,6,8)      =        -0.000866	      -0.049606
	 D(5,10,6,19)     =         3.141022	     179.967332
	 D(6,8,12,7)      =         0.000445	       0.025489
	 D(6,10,5,7)      =         0.001149	       0.065846
	 D(6,10,5,18)     =        -3.140380	    -179.930499
	 D(7,5,10,9)      =         3.140312	     179.926596
	 D(7,12,8,21)     =         3.141482	     179.993669
	 D(8,6,10,9)      =        -3.140028	    -179.910373
	 D(8,12,7,20)     =         3.139162	     179.860719
	 D(9,1,3,11)      =         0.000348	       0.019955
	 D(9,1,3,16)      =        -3.141571	    -179.998735
	 D(9,2,4,11)      =        -0.000301	      -0.017270
	 D(9,2,4,17)      =        -3.141228	    -179.979086
	 D(9,10,5,18)     =        -0.001217	      -0.069750
	 D(9,10,6,19)     =         0.001860	       0.106565
	 D(10,5,7,12)     =        -0.000661	      -0.037863
	 D(10,5,7,20)     =        -3.139829	    -179.898953
	 D(10,6,8,12)     =         0.000049	       0.002806
	 D(10,6,8,21)     =        -3.140959	    -179.963683
	 D(10,9,1,14)     =         0.001287	       0.073752
	 D(10,9,2,15)     =        -0.000820	      -0.046992
	 D(11,3,1,14)     =         3.141234	     179.979432
	 D(11,4,2,15)     =         3.141517	     179.995641
	 D(12,7,5,18)     =         3.140869	     179.958547
	 D(12,8,6,19)     =         3.141351	     179.986133
	 D(13,11,3,16)    =        -0.000286	      -0.016400
	 D(13,11,4,17)    =        -0.000079	      -0.004548
	 D(14,1,3,16)     =        -0.000685	      -0.039257
	 D(15,2,4,17)     =         0.000590	       0.033826
	 D(18,5,7,20)     =         0.001701	       0.097456
	 D(19,6,8,21)     =         0.000343	       0.019644

	Current energy   :      -553.7218373331

	Generating empirical Hessian (Schlegel '84) for each fragment.
	Adding user-defined constraint: Fragment 1; Coordinate 63:
		Value =    -2.617524; Fixed value    =    -2.617994
		Force =    -0.000235; Force constant =     0.500000
	Removing off-diagonal coupling between coordinate 63 and others.
	Taking RFO optimization step.
	Going to follow RFO solution 1.
	Using RFO vector 1.

	Determining step-restricting scale parameter for RS-RFO.
	Maximum step size allowed    0.10000

	 Iter      |step|        alpha        rfo_root  
	------------------------------------------------
	    0     0.22202       1.00000           1
	    1     0.16715       4.45099           1
	    2     0.13255      13.21228           1
	    3     0.11047      27.28262           1
	    4     0.10153      36.70432           1
	    5     0.10004      38.57573           1
	    6     0.10000      38.62739           1
	------------------------------------------------
	Norm of target step-size    0.10000
	Projected energy change by RFO approximation:        -0.0049993221

	Back-transformation to cartesian coordinates...
	Could not converge backtransformation.
	Using first guess instead.

	--- Internal Coordinate Step in ANG or DEG, aJ/ANG or AJ/DEG ---
	 ---------------------------------------------------------------------------
	   Coordinate                Previous        Force       Change         New 
	   ----------                --------       ------       ------       ------
	    1 R(1,3)          =      1.394038    -0.060226    -0.005950     1.388088
	    2 R(1,9)          =      1.394891     0.000356     0.000307     1.395198
	    3 R(1,14)         =      1.087431    -0.054398    -0.006450     1.080981
	    4 R(2,4)          =      1.394521    -0.062643    -0.006125     1.388397
	    5 R(2,9)          =      1.394821    -0.011342    -0.000906     1.393915
	    6 R(2,15)         =      1.087831    -0.054284    -0.006462     1.081369
	    7 R(3,11)         =      1.394821    -0.085597    -0.008572     1.386249
	    8 R(3,16)         =      1.086899    -0.044870    -0.005308     1.081591
	    9 R(4,11)         =      1.395407    -0.039484    -0.003990     1.391417
	   10 R(4,17)         =      1.086527    -0.030483    -0.003618     1.082909
	   11 R(5,7)          =      1.385616    -0.000969    -0.000114     1.385503
	   12 R(5,10)         =      1.390259     0.009068     0.001514     1.391772
	   13 R(5,18)         =      1.085551    -0.046227    -0.005435     1.080116
	   14 R(6,8)          =      1.385439     0.000392     0.000035     1.385474
	   15 R(6,10)         =      1.390195     0.009746     0.001473     1.391667
	   16 R(6,19)         =      1.086030    -0.048944    -0.005787     1.080243
	   17 R(7,12)         =      1.351862    -0.124503    -0.011215     1.340647
	   18 R(7,20)         =      1.085733    -0.026004    -0.003082     1.082651
	   19 R(8,12)         =      1.351662    -0.122879    -0.011055     1.340607
	   20 R(8,21)         =      1.084474    -0.019053    -0.002234     1.082240
	   21 R(9,10)         =      1.446444     0.154415     0.017263     1.463707
	   22 R(11,13)        =      1.360865    -0.007269    -0.000254     1.360611
	   23 R(13,22)        =      0.970199    -0.076412    -0.006776     0.963423
	   24 B(1,3,11)       =    120.009056    -0.000012    -0.075879   119.933177
	   25 B(1,3,16)       =    119.662516     0.000224     0.511849   120.174365
	   26 B(1,9,2)        =    119.959722    -0.000809    -1.367899   118.591823
	   27 B(1,9,10)       =    120.043881     0.000418     0.707863   120.751745
	   28 B(2,4,11)       =    119.960108     0.000133     0.212100   120.172209
	   29 B(2,4,17)       =    119.723926     0.000021     0.083683   119.807609
	   30 B(2,9,10)       =    119.996376     0.000392     0.659836   120.656212
	   31 B(3,1,9)        =    120.031219     0.000507     0.930507   120.961726
	   32 B(3,1,14)       =    119.144799    -0.000228    -0.412311   118.732488
	   33 B(3,11,4)       =    119.994870    -0.000120    -0.268749   119.726121
	   34 B(3,11,13)      =    120.008801    -0.000825    -1.388461   118.620341
	   35 B(4,2,9)        =    120.045019     0.000301     0.569858   120.614877
	   36 B(4,2,15)       =    119.099297    -0.000079    -0.130127   118.969170
	   37 B(4,11,13)      =    119.996326     0.000944     1.657203   121.653529
	   38 B(5,7,12)       =    124.044505     0.000040    -0.006195   124.038310
	   39 B(5,7,20)       =    120.755430    -0.000070    -0.107127   120.648304
	   40 B(5,10,6)       =    119.733286    -0.001222    -1.993715   117.739571
	   41 B(5,10,9)       =    120.139502     0.000613     1.002233   121.141735
	   42 B(6,8,12)       =    124.058807     0.000033    -0.013606   124.045201
	   43 B(6,8,21)       =    120.761802    -0.000069    -0.107422   120.654380
	   44 B(6,10,9)       =    120.127065     0.000609     0.991629   121.118694
	   45 B(7,5,10)       =    117.906640     0.000540     1.045057   118.951696
	   46 B(7,5,18)       =    120.206075    -0.000211    -0.398118   119.807958
	   47 B(7,12,8)       =    116.348751     0.000073    -0.073637   116.275114
	   48 B(8,6,10)       =    117.907980     0.000536     1.042128   118.950107
	   49 B(8,6,19)       =    120.297531    -0.000223    -0.425174   119.872358
	   50 B(9,1,14)       =    120.823969    -0.000279    -0.518918   120.305051
	   51 B(9,2,15)       =    120.855683    -0.000223    -0.440290   120.415393
	   52 B(10,5,18)      =    121.887285    -0.000329    -0.647459   121.239826
	   53 B(10,6,19)      =    121.794487    -0.000314    -0.617464   121.177023
	   54 B(11,3,16)      =    120.328425    -0.000212    -0.435984   119.892441
	   55 B(11,4,17)      =    120.315955    -0.000154    -0.295848   120.020107
	   56 B(11,13,22)     =    110.322421    -0.000439    -0.947541   109.374879
	   57 B(12,7,20)      =    115.199932     0.000031     0.113087   115.313020
	   58 B(12,8,21)      =    115.179383     0.000036     0.120859   115.300242
	   59 D(1,3,11,4)     =     -0.018609    -0.000001    -0.012626    -0.031234
	   60 D(1,3,11,13)    =    179.964785    -0.000002    -0.030286   179.934500
	   61 D(1,9,2,4)      =      0.018608    -0.000000     0.012157     0.030765
	   62 D(1,9,2,15)     =   -179.994534     0.000018     0.300364  -179.694170
	   63 D(1,9,10,5)     =   -149.973051     0.000015     0.123949  -149.849102
	   64 D(1,9,10,6)     =     29.887146     0.000020     0.264754    30.151900
	   65 D(2,4,11,3)     =      0.017261    -0.000003    -0.044465    -0.027203
	   66 D(2,4,11,13)    =   -179.966135    -0.000002    -0.025733  -179.991868
	   67 D(2,9,1,3)      =     -0.019945    -0.000003    -0.070023    -0.089967
	   68 D(2,9,1,14)     =   -179.978731     0.000014     0.204433  -179.774298
	   69 D(2,9,10,5)     =     30.079452     0.000020     0.244556    30.324007
	   70 D(2,9,10,6)     =   -150.060351     0.000025     0.385360  -149.674991
	   71 D(3,1,9,10)     =   -179.967461     0.000001     0.047092  -179.920369
	   72 D(3,11,4,17)    =    179.978848    -0.000006    -0.106025   179.872823
	   73 D(3,11,13,22)   =    179.956172     0.000000     0.007108   179.963280
	   74 D(4,2,9,10)     =    179.966149    -0.000005    -0.104815   179.861334
	   75 D(4,11,3,16)    =    180.000000    -0.000005    -0.078362   179.921638
	   76 D(4,11,13,22)   =     -0.060434    -0.000000    -0.011243    -0.071677
	   77 D(5,7,12,8)     =     -0.007352     0.000000     0.005734    -0.001618
	   78 D(5,10,6,8)     =     -0.049606     0.000002     0.058626     0.009020
	   79 D(5,10,6,19)    =    179.967332     0.000018     0.302468   180.269800
	   80 D(6,8,12,7)     =      0.025489    -0.000001    -0.020160     0.005329
	   81 D(6,10,5,7)     =      0.065846    -0.000003    -0.071508    -0.005661
	   82 D(6,10,5,18)    =   -179.930499     0.000013     0.187698  -179.742801
	   83 D(7,5,10,9)     =    179.926596     0.000003     0.068712   179.995308
	   84 D(7,12,8,21)    =    179.993669    -0.000008    -0.140741   179.852928
	   85 D(8,6,10,9)     =   -179.910373    -0.000004    -0.081576  -179.991949
	   86 D(8,12,7,20)    =    179.860719    -0.000006    -0.082011   179.778707
	   87 D(9,1,3,11)     =      0.019955     0.000004     0.070961     0.090915
	   88 D(9,1,3,16)     =   -179.998735     0.000008     0.136912  -179.861822
	   89 D(9,2,4,11)     =     -0.017270     0.000003     0.044467     0.027197
	   90 D(9,2,4,17)     =   -179.979086     0.000007     0.106042  -179.873043
	   91 D(9,10,5,18)    =     -0.069750     0.000019     0.327918     0.258168
	   92 D(9,10,6,19)    =      0.106565     0.000012     0.162266     0.268831
	   93 D(10,5,7,12)    =     -0.037863     0.000002     0.039857     0.001994
	   94 D(10,5,7,20)    =   -179.898953     0.000008     0.131774  -179.767179
	   95 D(10,6,8,12)    =      0.002806    -0.000000    -0.012078    -0.009271
	   96 D(10,6,8,21)    =   -179.963683     0.000008     0.114576  -179.849107
	   97 D(10,9,1,14)    =      0.073752     0.000018     0.321548     0.395301
	   98 D(10,9,2,15)    =     -0.046992     0.000013     0.183391     0.136399
	   99 D(11,3,1,14)    =    179.979432    -0.000013    -0.199318   179.780114
	  100 D(11,4,2,15)    =    179.995641    -0.000015    -0.239578   179.756063
	  101 D(12,7,5,18)    =    179.958547    -0.000014    -0.215568   179.742979
	  102 D(12,8,6,19)    =    179.986133    -0.000016    -0.252706   179.733427
	  103 D(13,11,3,16)   =     -0.016400    -0.000006    -0.096229    -0.112628
	  104 D(13,11,4,17)   =     -0.004548    -0.000006    -0.087293    -0.091841
	  105 D(14,1,3,16)    =     -0.039257    -0.000009    -0.133366    -0.172623
	  106 D(15,2,4,17)    =      0.033826    -0.000011    -0.178003    -0.144177
	  107 D(18,5,7,20)    =      0.097456    -0.000008    -0.123651    -0.026194
	  108 D(19,6,8,21)    =      0.019644    -0.000008    -0.126053    -0.106409
	 ---------------------------------------------------------------------------
	Successfully symmetrized geometry.
	 Forces used to impose fixed constraints are not included.
	  Forces zeroed: 63 

  ==> Convergence Check <==

  Measures of convergence in internal coordinates in au.
  Criteria marked as inactive (o), active & met (*), and active & unmet ( ).
  --------------------------------------------------------------------------------------------- ~
   Step     Total Energy     Delta E     MAX Force     RMS Force      MAX Disp      RMS Disp    ~
  --------------------------------------------------------------------------------------------- ~
    Convergence Criteria    1.00e-06 *    3.00e-04 *             o    1.20e-03 *             o  ~
  --------------------------------------------------------------------------------------------- ~
      1    -553.72183733   -5.54e+02      1.87e-02      4.81e-03 o    3.48e-02      9.62e-03 o  ~
  ---------------------------------------------------------------------------------------------

	Writing optimization data to binary file.
	Structure for next step:
	Cartesian Geometry (in Angstrom)
	    C    -1.2706615677   0.7151681149  -0.5626955672
	    C    -0.2763781540   0.1045396609   1.5324248267
	    C    -2.3443603657   1.2869358105   0.1059146006
	    C    -1.3480409960   0.6764755482   2.2047886172
	    C     1.5995258218  -1.5657587946  -0.0355181092
	    C     1.3252767078   0.0087235562  -1.8026117435
	    C     2.6630026743  -2.0983876630  -0.7461101473
	    C     2.4008131865  -0.5935690422  -2.4350706395
	    C    -0.2242856938   0.1163787906   0.1395341397
	    C     0.9065392946  -0.4836436946  -0.5701462474
	    C    -2.3853034756   1.2691544151   1.4914446985
	    N     3.0786111958  -1.6359793408  -1.9338742329
	    O    -3.4496349326   1.8385072307   2.1193754317
	    H    -1.2603255649   0.7367773034  -1.6434108316
	    H     0.5210851771  -0.3472479104   2.1062714045
	    H    -3.1498280309   1.7458009963  -0.4513143891
	    H    -1.3741553471   0.6617219891   3.2872821658
	    H     1.3200871469  -1.9954547255   0.9152322174
	    H     0.8300778273   0.8492476760  -2.2665323576
	    H     3.2187602183  -2.9424593010  -0.3577669342
	    H     2.7510321107  -0.2315955964  -3.3929671265
	    H    -3.3425603637   1.7509294535   3.0728157081
			--------------------------
			 OPTKING Finished Execution 
			--------------------------

    Structure for next step:
    Molecular point group: c1
    Full point group: C1

    Geometry (in Angstrom), charge = 0, multiplicity = 1:

    C           -1.270645813384     0.715403525804    -0.562473684117
    C           -0.276362399748     0.104775071852     1.532646709801
    C           -2.344344611433     1.287171221384     0.106136483682
    C           -1.348025241660     0.676710959123     2.205010500305
    C            1.599541576090    -1.565523383641    -0.035296226169
    C            1.325292462046     0.008958967089    -1.802389860468
    C            2.663018428589    -2.098152252059    -0.745888264201
    C            2.400828940746    -0.593333631306    -2.434848756415
    C           -0.224269939554     0.116614201567     0.139756022730
    C            0.906555048887    -0.483408283658    -0.569924364351
    C           -2.385287721296     1.269389826045     1.491666581585
    N            3.078626950068    -1.635743929918    -1.933652349803
    O           -3.449619178346     1.838742641584     2.119597314721
    H           -1.260309810584     0.737012714371    -1.643188948573
    H            0.521100931343    -0.347012499455     2.106493287549
    H           -3.149812276617     1.746036407270    -0.451092506019
    H           -1.374139592788     0.661957400002     3.287504048894
    H            1.320102901190    -1.995219314585     0.915454100470
    H            0.830093581603     0.849483086897    -2.266310474491
    H            3.218775972593    -2.942223890097    -0.357545051098
    H            2.751047865014    -0.231360185491    -3.392745243463
    H           -3.342544609425     1.751164864442     3.073037591131

gradient() will perform analytic gradient computation.

*** tstart() called on gpu-1-17.local
*** at Sun Nov 12 12:33:45 2017

    SCF Algorithm Type (re)set to DF.

*** tstart() called on gpu-1-17.local
*** at Sun Nov 12 12:33:45 2017

   => Loading Basis Set <=

    Name: AUG-CC-PVTZ
    Role: ORBITAL
    Keyword: BASIS
    atoms 1-11  entry C          line   221 file /cbio/jclab/home/chayas/anaconda/envs/py35/share/psi4/basis/aug-cc-pvtz.gbs 
    atoms 12    entry N          line   267 file /cbio/jclab/home/chayas/anaconda/envs/py35/share/psi4/basis/aug-cc-pvtz.gbs 
    atoms 13    entry O          line   313 file /cbio/jclab/home/chayas/anaconda/envs/py35/share/psi4/basis/aug-cc-pvtz.gbs 
    atoms 14-22 entry H          line    34 file /cbio/jclab/home/chayas/anaconda/envs/py35/share/psi4/basis/aug-cc-pvtz.gbs 


         ---------------------------------------------------------
                                   SCF
            by Justin Turney, Rob Parrish, and Andy Simmonett
                              RHF Reference
                        8 Threads,   4768 MiB Core
         ---------------------------------------------------------

  ==> Geometry <==

    Molecular point group: c1
    Full point group: C1

    Geometry (in Angstrom), charge = 0, multiplicity = 1:

       Center              X                  Y                   Z               Mass       
    ------------   -----------------  -----------------  -----------------  -----------------
           C         -1.270645813384     0.715403525804    -0.562473684117    12.000000000000
           C         -0.276362399748     0.104775071852     1.532646709801    12.000000000000
           C         -2.344344611433     1.287171221384     0.106136483682    12.000000000000
           C         -1.348025241660     0.676710959123     2.205010500305    12.000000000000
           C          1.599541576090    -1.565523383641    -0.035296226169    12.000000000000
           C          1.325292462046     0.008958967089    -1.802389860468    12.000000000000
           C          2.663018428589    -2.098152252059    -0.745888264201    12.000000000000
           C          2.400828940746    -0.593333631306    -2.434848756415    12.000000000000
           C         -0.224269939554     0.116614201567     0.139756022730    12.000000000000
           C          0.906555048887    -0.483408283658    -0.569924364351    12.000000000000
           C         -2.385287721296     1.269389826045     1.491666581585    12.000000000000
           N          3.078626950068    -1.635743929918    -1.933652349803    14.003074004780
           O         -3.449619178346     1.838742641584     2.119597314721    15.994914619560
           H         -1.260309810584     0.737012714371    -1.643188948573     1.007825032070
           H          0.521100931343    -0.347012499455     2.106493287549     1.007825032070
           H         -3.149812276617     1.746036407270    -0.451092506019     1.007825032070
           H         -1.374139592788     0.661957400002     3.287504048894     1.007825032070
           H          1.320102901190    -1.995219314585     0.915454100470     1.007825032070
           H          0.830093581603     0.849483086897    -2.266310474491     1.007825032070
           H          3.218775972593    -2.942223890097    -0.357545051098     1.007825032070
           H          2.751047865014    -0.231360185491    -3.392745243463     1.007825032070
           H         -3.342544609425     1.751164864442     3.073037591131     1.007825032070

  Running in c1 symmetry.

  Rotational constants: A =      0.09839  B =      0.01335  C =      0.01195 [cm^-1]
  Rotational constants: A =   2949.69786  B =    400.31773  C =    358.32014 [MHz]
  Nuclear repulsion =  697.807395069783070

  Charge       = 0
  Multiplicity = 1
  Electrons    = 90
  Nalpha       = 45
  Nbeta        = 45

  ==> Algorithm <==

  SCF Algorithm Type is DF.
  DIIS enabled.
  MOM disabled.
  Fractional occupation disabled.
  Guess Type is READ.
  Energy threshold   = 1.00e-10
  Density threshold  = 1.00e-10
  Integral threshold = 0.00e+00

  ==> Primary Basis <==

  Basis Set: AUG-CC-PVTZ
    Blend: AUG-CC-PVTZ
    Number of shells: 263
    Number of basis function: 805
    Number of Cartesian functions: 940
    Spherical Harmonics?: true
    Max angular momentum: 3

   => Loading Basis Set <=

    Name: (AUG-CC-PVTZ AUX)
    Role: JKFIT
    Keyword: DF_BASIS_SCF
    atoms 1-11  entry C          line   161 file /cbio/jclab/home/chayas/anaconda/envs/py35/share/psi4/basis/aug-cc-pvtz-jkfit.gbs 
    atoms 12    entry N          line   223 file /cbio/jclab/home/chayas/anaconda/envs/py35/share/psi4/basis/aug-cc-pvtz-jkfit.gbs 
    atoms 13    entry O          line   285 file /cbio/jclab/home/chayas/anaconda/envs/py35/share/psi4/basis/aug-cc-pvtz-jkfit.gbs 
    atoms 14-22 entry H          line    69 file /cbio/jclab/home/chayas/anaconda/envs/py35/share/psi4/basis/aug-cc-pvtz-jkfit.gbs 

  Reading orbitals from file 180, no projection.

  ==> Pre-Iterations <==

   -------------------------------------------------------
    Irrep   Nso     Nmo     Nalpha   Nbeta   Ndocc  Nsocc
   -------------------------------------------------------
     A        805     805       0       0       0       0
   -------------------------------------------------------
    Total     805     805      45      45      45       0
   -------------------------------------------------------

  ==> Integral Setup <==

  ==> DFJK: Density-Fitted J/K Matrices <==

    J tasked:                  Yes
    K tasked:                  Yes
    wK tasked:                  No
    OpenMP threads:              8
    Integrals threads:           8
    Memory (MB):              3576
    Algorithm:                Disk
    Integral Cache:           NONE
    Schwarz Cutoff:          1E-12
    Fitting Condition:       1E-12

   => Auxiliary Basis Set <=

  Basis Set: (AUG-CC-PVTZ AUX)
    Blend: AUG-CC-PVTZ-JKFIT
    Number of shells: 516
    Number of basis function: 1766
    Number of Cartesian functions: 2198
    Spherical Harmonics?: true
    Max angular momentum: 4

  Minimum eigenvalue in the overlap matrix is 5.4024610703E-07.
  Using Symmetric Orthogonalization.

  SCF Guess: Orbitals guess was supplied from a previous computation.

  ==> Iterations <==

                           Total Energy        Delta E     RMS |[F,P]|

   @DF-RHF iter   0:  -551.43882585160941   -5.51439e+02   5.79184e-04 
   @DF-RHF iter   1:  -551.28968314521694    1.49143e-01   1.44235e-04 
   @DF-RHF iter   2:  -551.29063190467241   -9.48759e-04   1.10441e-04 DIIS
   @DF-RHF iter   3:  -551.29152097607289   -8.89071e-04   1.75707e-05 DIIS
   @DF-RHF iter   4:  -551.29153531492557   -1.43389e-05   4.27256e-06 DIIS
   @DF-RHF iter   5:  -551.29153749401917   -2.17909e-06   1.37446e-06 DIIS
   @DF-RHF iter   6:  -551.29153779307057   -2.99051e-07   7.99027e-07 DIIS
   @DF-RHF iter   7:  -551.29153790481314   -1.11743e-07   3.32656e-07 DIIS
   @DF-RHF iter   8:  -551.29153794169679   -3.68836e-08   1.41279e-07 DIIS
   @DF-RHF iter   9:  -551.29153794751028   -5.81349e-09   5.10248e-08 DIIS
   @DF-RHF iter  10:  -551.29153794806007   -5.49790e-10   1.74362e-08 DIIS
   @DF-RHF iter  11:  -551.29153794812146   -6.13909e-11   5.90659e-09 DIIS
   @DF-RHF iter  12:  -551.29153794815329   -3.18323e-11   2.98247e-09 DIIS
   @DF-RHF iter  13:  -551.29153794813487    1.84173e-11   1.69660e-09 DIIS
   @DF-RHF iter  14:  -551.29153794815704   -2.21689e-11   7.26900e-10 DIIS
   @DF-RHF iter  15:  -551.29153794813146    2.55795e-11   2.56725e-10 DIIS
   @DF-RHF iter  16:  -551.29153794814533   -1.38698e-11   9.34641e-11 DIIS

  ==> Post-Iterations <==

    Orbital Energies (a.u.)
    -----------------------

    Doubly Occupied:                                                      

       1A    -20.602028     2A    -15.559780     3A    -11.314513  
       4A    -11.271830     5A    -11.271688     6A    -11.265316  
       7A    -11.254181     8A    -11.252316     9A    -11.246542  
      10A    -11.244764    11A    -11.239109    12A    -11.235298  
      13A    -11.235096    14A     -1.419368    15A     -1.254137  
      16A     -1.174890    17A     -1.104819    18A     -1.039552  
      19A     -1.029578    20A     -1.012331    21A     -0.882114  
      22A     -0.873153    23A     -0.842263    24A     -0.812363  
      25A     -0.750389    26A     -0.725725    27A     -0.685415  
      28A     -0.664047    29A     -0.653033    30A     -0.634746  
      31A     -0.614568    32A     -0.607765    33A     -0.603979  
      34A     -0.592186    35A     -0.578963    36A     -0.545059  
      37A     -0.531913    38A     -0.523954    39A     -0.502683  
      40A     -0.495569    41A     -0.417217    42A     -0.397172  
      43A     -0.356552    44A     -0.347864    45A     -0.308291  

    Virtual:                                                              

      46A      0.021425    47A      0.029803    48A      0.032125  
      49A      0.039693    50A      0.042693    51A      0.045485  
      52A      0.055196    53A      0.057118    54A      0.063406  
      55A      0.078121    56A      0.078907    57A      0.084210  
      58A      0.088570    59A      0.093423    60A      0.097016  
      61A      0.102303    62A      0.103918    63A      0.108517  
      64A      0.109747    65A      0.111753    66A      0.114950  
      67A      0.119280    68A      0.122030    69A      0.127215  
      70A      0.129990    71A      0.132620    72A      0.134649  
      73A      0.137115    74A      0.143738    75A      0.146270  
      76A      0.149056    77A      0.149809    78A      0.153966  
      79A      0.160187    80A      0.164236    81A      0.168049  
      82A      0.173884    83A      0.176513    84A      0.182299  
      85A      0.184592    86A      0.186976    87A      0.201150  
      88A      0.204330    89A      0.214549    90A      0.216434  
      91A      0.221974    92A      0.222605    93A      0.226174  
      94A      0.236610    95A      0.240104    96A      0.242721  
      97A      0.246230    98A      0.250595    99A      0.252748  
     100A      0.256081   101A      0.257475   102A      0.263505  
     103A      0.265923   104A      0.272935   105A      0.275142  
     106A      0.277407   107A      0.285033   108A      0.289122  
     109A      0.292531   110A      0.298879   111A      0.300883  
     112A      0.302737   113A      0.306936   114A      0.312523  
     115A      0.316356   116A      0.318570   117A      0.325994  
     118A      0.327579   119A      0.328490   120A      0.333472  
     121A      0.339863   122A      0.344175   123A      0.356070  
     124A      0.357444   125A      0.361886   126A      0.365869  
     127A      0.371557   128A      0.374698   129A      0.386506  
     130A      0.391236   131A      0.396699   132A      0.398329  
     133A      0.403363   134A      0.407683   135A      0.413662  
     136A      0.419283   137A      0.426095   138A      0.427380  
     139A      0.432903   140A      0.434933   141A      0.438737  
     142A      0.439736   143A      0.444918   144A      0.447861  
     145A      0.448655   146A      0.452605   147A      0.457162  
     148A      0.462290   149A      0.466465   150A      0.467571  
     151A      0.471224   152A      0.476086   153A      0.484471  
     154A      0.487038   155A      0.490730   156A      0.491894  
     157A      0.500977   158A      0.502109   159A      0.504408  
     160A      0.509001   161A      0.510092   162A      0.511973  
     163A      0.515650   164A      0.517151   165A      0.520945  
     166A      0.526324   167A      0.529452   168A      0.531974  
     169A      0.534737   170A      0.541613   171A      0.545161  
     172A      0.548979   173A      0.549855   174A      0.553277  
     175A      0.555780   176A      0.564213   177A      0.566488  
     178A      0.578294   179A      0.580660   180A      0.585740  
     181A      0.592985   182A      0.598533   183A      0.605557  
     184A      0.612363   185A      0.613366   186A      0.622109  
     187A      0.628137   188A      0.637098   189A      0.639034  
     190A      0.645819   191A      0.656311   192A      0.659201  
     193A      0.667746   194A      0.680734   195A      0.689399  
     196A      0.691528   197A      0.696393   198A      0.703278  
     199A      0.707135   200A      0.708642   201A      0.717190  
     202A      0.720150   203A      0.729737   204A      0.731305  
     205A      0.732684   206A      0.738826   207A      0.740570  
     208A      0.748908   209A      0.755334   210A      0.763250  
     211A      0.767171   212A      0.772819   213A      0.778073  
     214A      0.797812   215A      0.801993   216A      0.803430  
     217A      0.809275   218A      0.812134   219A      0.815466  
     220A      0.824101   221A      0.830172   222A      0.834517  
     223A      0.838306   224A      0.838722   225A      0.849287  
     226A      0.855182   227A      0.857079   228A      0.866450  
     229A      0.870941   230A      0.877310   231A      0.879192  
     232A      0.882459   233A      0.884898   234A      0.888460  
     235A      0.893218   236A      0.897578   237A      0.906432  
     238A      0.910038   239A      0.912242   240A      0.918221  
     241A      0.925901   242A      0.930748   243A      0.936765  
     244A      0.940843   245A      0.947134   246A      0.952140  
     247A      0.957056   248A      0.963033   249A      0.964418  
     250A      0.970406   251A      0.972279   252A      0.979355  
     253A      0.981710   254A      0.983997   255A      0.988752  
     256A      0.996779   257A      0.998547   258A      1.004768  
     259A      1.012432   260A      1.015071   261A      1.018540  
     262A      1.021120   263A      1.026053   264A      1.030573  
     265A      1.038662   266A      1.039631   267A      1.041246  
     268A      1.047466   269A      1.048564   270A      1.055193  
     271A      1.057007   272A      1.060894   273A      1.066934  
     274A      1.076906   275A      1.077486   276A      1.084238  
     277A      1.087951   278A      1.090737   279A      1.098612  
     280A      1.099821   281A      1.103767   282A      1.106459  
     283A      1.113624   284A      1.115285   285A      1.121425  
     286A      1.122604   287A      1.125439   288A      1.135295  
     289A      1.148708   290A      1.154482   291A      1.161367  
     292A      1.161868   293A      1.165215   294A      1.170115  
     295A      1.175528   296A      1.178575   297A      1.185335  
     298A      1.188426   299A      1.193594   300A      1.201205  
     301A      1.206433   302A      1.209026   303A      1.214796  
     304A      1.217708   305A      1.217940   306A      1.224570  
     307A      1.232729   308A      1.233874   309A      1.246312  
     310A      1.252845   311A      1.256675   312A      1.268555  
     313A      1.274685   314A      1.276877   315A      1.285618  
     316A      1.291270   317A      1.297053   318A      1.299093  
     319A      1.303958   320A      1.311566   321A      1.317967  
     322A      1.325727   323A      1.335230   324A      1.338252  
     325A      1.345658   326A      1.353006   327A      1.357849  
     328A      1.369175   329A      1.377871   330A      1.390474  
     331A      1.391048   332A      1.396344   333A      1.413865  
     334A      1.424331   335A      1.432592   336A      1.439799  
     337A      1.447869   338A      1.451457   339A      1.453141  
     340A      1.460621   341A      1.464265   342A      1.476570  
[...]
	 R(8,12)          =         2.522824	       1.335021
	 R(8,21)          =         2.043100	       1.081162
	 R(9,10)          =         2.762141	       1.461662
	 R(11,13)         =         2.572960	       1.361552
	 R(13,22)         =         1.817850	       0.961965
	 B(1,3,11)        =         2.092523	     119.892726
	 B(1,3,16)        =         2.113883	     121.116588
	 B(1,9,2)         =         2.058553	     117.946399
	 B(1,9,10)        =         2.113273	     121.081598
	 B(2,4,11)        =         2.095284	     120.050940
	 B(2,4,17)        =         2.093781	     119.964838
	 B(2,9,10)        =         2.111239	     120.965104
	 B(3,1,9)         =         2.117955	     121.349875
	 B(3,1,14)        =         2.076517	     118.975650
	 B(3,11,4)        =         2.088079	     119.638099
	 B(3,11,13)       =         2.047793	     117.329880
	 B(4,2,9)         =         2.113964	     121.121233
	 B(4,2,15)        =         2.078253	     119.075104
	 B(4,11,13)       =         2.147312	     123.031924
	 B(5,7,12)        =         2.159822	     123.748657
	 B(5,7,20)        =         2.094374	     119.998802
	 B(5,10,6)        =         2.032049	     116.427820
	 B(5,10,9)        =         2.126084	     121.815641
	 B(6,8,12)        =         2.160026	     123.760396
	 B(6,8,21)        =         2.094234	     119.990776
	 B(6,10,9)        =         2.124954	     121.750871
	 B(7,5,10)        =         2.090747	     119.790954
	 B(7,5,18)        =         2.087289	     119.592829
	 B(7,12,8)        =         2.033263	     116.497400
	 B(8,6,10)        =         2.090451	     119.774004
	 B(8,6,19)        =         2.087526	     119.606412
	 B(9,1,14)        =         2.088229	     119.646688
	 B(9,2,15)        =         2.090424	     119.772466
	 B(10,5,18)       =         2.104729	     120.592113
	 B(10,6,19)       =         2.104848	     120.598920
	 B(11,3,16)       =         2.076734	     118.988122
	 B(11,4,17)       =         2.094075	     119.981643
	 B(11,13,22)      =         1.902392	     108.999037
	 B(12,7,20)       =         2.028972	     116.251545
	 B(12,8,21)       =         2.028897	     116.247219
	 D(1,3,11,4)      =         0.000983	       0.056295
	 D(1,3,11,13)     =         3.140656	     179.946346
	 D(1,9,2,4)       =         0.002713	       0.155464
	 D(1,9,2,15)      =        -3.103091	    -177.794024
	 D(1,9,10,5)      =        -2.616126	    -149.892985
	 D(1,9,10,6)      =         0.541126	      31.004219
	 D(2,4,11,3)      =        -0.003387	      -0.194061
	 D(2,4,11,13)     =         3.140239	     179.922446
	 D(2,9,1,3)       =        -0.005166	      -0.295967
	 D(2,9,1,14)      =        -3.112947	    -178.358709
	 D(2,9,10,5)      =         0.542487	      31.082212
	 D(2,9,10,6)      =        -2.583447	    -148.020585
	 D(3,1,9,10)      =        -3.130237	    -179.349371
	 D(3,11,4,17)     =         3.128007	     179.221573
	 D(3,11,13,22)    =         3.136828	     179.726987
	 D(4,2,9,10)      =         3.127805	     179.210025
	 D(4,11,3,16)     =         3.132524	     179.480418
	 D(4,11,13,22)    =        -0.006754	      -0.387000
	 D(5,7,12,8)      =         0.001544	       0.088476
	 D(5,10,6,8)      =         0.005770	       0.330577
	 D(5,10,6,19)     =        -3.106852	    -178.009479
	 D(6,8,12,7)      =         0.000724	       0.041494
	 D(6,10,5,7)      =        -0.003686	      -0.211211
	 D(6,10,5,18)     =        -3.113984	    -178.418151
	 D(7,5,10,9)      =        -3.130409	    -179.359249
	 D(7,12,8,21)     =         3.134243	     179.578915
	 D(8,6,10,9)      =         3.132503	     179.479212
	 D(8,12,7,20)     =         3.136784	     179.724465
	 D(9,1,3,11)      =         0.003372	       0.193223
	 D(9,1,3,16)      =        -3.127951	    -179.218386
	 D(9,2,4,11)      =         0.001507	       0.086324
	 D(9,2,4,17)      =        -3.129889	    -179.329408
	 D(9,10,5,18)     =         0.042478	       2.433812
	 D(9,10,6,19)     =         0.019882	       1.139156
	 D(10,5,7,12)     =         0.000025	       0.001456
	 D(10,5,7,20)     =        -3.134988	    -179.621577
	 D(10,6,8,12)     =        -0.004527	      -0.259363
	 D(10,6,8,21)     =        -3.137759	    -179.780339
	 D(10,9,1,14)     =         0.045167	       2.587887
	 D(10,9,2,15)     =         0.022001	       1.260537
	 D(11,3,1,14)     =         3.111375	     178.268667
	 D(11,4,2,15)     =         3.107556	     178.049847
	 D(12,7,5,18)     =         3.110638	     178.226433
	 D(12,8,6,19)     =         3.108384	     178.097286
	 D(13,11,3,16)    =        -0.010987	      -0.629531
	 D(13,11,4,17)    =        -0.011553	      -0.661920
	 D(14,1,3,16)     =        -0.019948	      -1.142943
	 D(15,2,4,17)     =        -0.023839	      -1.365886
	 D(18,5,7,20)     =        -0.024375	      -1.396599
	 D(19,6,8,21)     =        -0.024848	      -1.423691

	Current energy   :      -553.7256824201

	Energy change for the previous step:
		Projected    :        -0.0000008638
		Actual       :         0.0000004008

	Performing BFGS update.
	Previous computed or guess Hessian on step 1.
	Steps to be used in Hessian update: 5 4
	Adding user-defined constraint: Fragment 1; Coordinate 63:
		Value =    -2.616126; Fixed value    =    -2.617990
		Force =    -0.001165; Force constant =     0.625000
	Removing off-diagonal coupling between coordinate 63 and others.
	Taking RFO optimization step.
	Going to follow RFO solution 1.
	Using RFO vector 1.
	Norm of target step-size    0.00232
	Projected energy change by RFO approximation:        -0.0000001447

	Back-transformation to cartesian coordinates...
	Could not converge backtransformation.
	Using first guess instead.

	--- Internal Coordinate Step in ANG or DEG, aJ/ANG or AJ/DEG ---
	 ---------------------------------------------------------------------------
	   Coordinate                Previous        Force       Change         New 
	   ----------                --------       ------       ------       ------
	    1 R(1,3)          =      1.383033    -0.000074     0.000010     1.383043
	    2 R(1,9)          =      1.395356     0.000317     0.000033     1.395389
	    3 R(1,14)         =      1.079662     0.000022     0.000010     1.079672
	    4 R(2,4)          =      1.385312     0.000270     0.000036     1.385349
	    5 R(2,9)          =      1.393353     0.000056     0.000015     1.393368
	    6 R(2,15)         =      1.079595     0.000043     0.000013     1.079608
	    7 R(3,11)         =      1.387861     0.000373     0.000045     1.387906
	    8 R(3,16)         =      1.078821     0.000118     0.000025     1.078845
	    9 R(4,11)         =      1.388280    -0.000087    -0.000002     1.388278
	   10 R(4,17)         =      1.081273     0.000050     0.000014     1.081287
	   11 R(5,7)          =      1.385334     0.000049     0.000012     1.385346
	   12 R(5,10)         =      1.392494     0.000027    -0.000000     1.392493
	   13 R(5,18)         =      1.079429     0.000032     0.000012     1.079441
	   14 R(6,8)          =      1.385444     0.000044     0.000010     1.385453
	   15 R(6,10)         =      1.392523     0.000100     0.000009     1.392532
	   16 R(6,19)         =      1.079348     0.000047     0.000013     1.079362
	   17 R(7,12)         =      1.335045     0.000123     0.000020     1.335065
	   18 R(7,20)         =      1.081154     0.000030     0.000007     1.081161
	   19 R(8,12)         =      1.335021     0.000111     0.000019     1.335040
	   20 R(8,21)         =      1.081162     0.000010     0.000002     1.081163
	   21 R(9,10)         =      1.461662     0.000174     0.000037     1.461699
	   22 R(11,13)        =      1.361552     0.000155     0.000019     1.361570
	   23 R(13,22)        =      0.961965     0.000166     0.000025     0.961990
	   24 B(1,3,11)       =    119.892726     0.000001     0.002005   119.894732
	   25 B(1,3,16)       =    121.116588     0.000001     0.002847   121.119435
	   26 B(1,9,2)        =    117.946399     0.000001     0.002015   117.948413
	   27 B(1,9,10)       =    121.081598    -0.000001    -0.002729   121.078869
	   28 B(2,4,11)       =    120.050940    -0.000001    -0.002874   120.048066
	   29 B(2,4,17)       =    119.964838     0.000000    -0.000265   119.964574
	   30 B(2,9,10)       =    120.965104     0.000000     0.000614   120.965718
	   31 B(3,1,9)        =    121.349875    -0.000001    -0.003874   121.346001
	   32 B(3,1,14)       =    118.975650     0.000001     0.002863   118.978512
	   33 B(3,11,4)       =    119.638099     0.000001     0.001375   119.639474
	   34 B(3,11,13)      =    117.329880     0.000000     0.003904   117.333784
	   35 B(4,2,9)        =    121.121233     0.000001     0.001339   121.122572
	   36 B(4,2,15)       =    119.075104    -0.000000    -0.003159   119.071945
	   37 B(4,11,13)      =    123.031924    -0.000001    -0.005282   123.026642
	   38 B(5,7,12)       =    123.748657     0.000001     0.002654   123.751311
	   39 B(5,7,20)       =    119.998802     0.000000     0.002675   120.001477
	   40 B(5,10,6)       =    116.427820     0.000000     0.001335   116.429155
	   41 B(5,10,9)       =    121.815641     0.000000    -0.000188   121.815453
	   42 B(6,8,12)       =    123.760396     0.000001     0.002419   123.762816
	   43 B(6,8,21)       =    119.990776     0.000000     0.002724   119.993500
	   44 B(6,10,9)       =    121.750871    -0.000000    -0.001210   121.749660
	   45 B(7,5,10)       =    119.790954    -0.000000    -0.001472   119.789482
	   46 B(7,5,18)       =    119.592829    -0.000000    -0.001257   119.591571
	   47 B(7,12,8)       =    116.497400    -0.000001    -0.003650   116.493750
	   48 B(8,6,10)       =    119.774004    -0.000000    -0.001390   119.772615
	   49 B(8,6,19)       =    119.606412    -0.000000    -0.001083   119.605329
	   50 B(9,1,14)       =    119.646688    -0.000000     0.000692   119.647380
	   51 B(9,2,15)       =    119.772466    -0.000000     0.001351   119.773817
	   52 B(10,5,18)      =    120.592113     0.000000     0.002528   120.594641
	   53 B(10,6,19)      =    120.598920     0.000000     0.002330   120.601250
	   54 B(11,3,16)      =    118.988122    -0.000002    -0.004976   118.983146
	   55 B(11,4,17)      =    119.981643     0.000001     0.003048   119.984691
	   56 B(11,13,22)     =    108.999037     0.000001     0.007225   109.006261
	   57 B(12,7,20)      =    116.251545    -0.000001    -0.005690   116.245856
	   58 B(12,8,21)      =    116.247219    -0.000001    -0.005576   116.241644
	   59 D(1,3,11,4)     =      0.056295    -0.000000     0.002565     0.058859
	   60 D(1,3,11,13)    =    179.946346    -0.000000     0.001184   179.947530
	   61 D(1,9,2,4)      =      0.155464    -0.000000     0.005631     0.161094
	   62 D(1,9,2,15)     =   -177.794024    -0.000000     0.021029  -177.772995
	   63 D(1,9,10,5)     =   -149.892985     0.000001    -0.002773  -149.895757
	   64 D(1,9,10,6)     =     31.004219     0.000000     0.002249    31.006468
	   65 D(2,4,11,3)     =     -0.194061     0.000000    -0.000616    -0.194677
	   66 D(2,4,11,13)    =    179.922446     0.000000     0.000835   179.923281
	   67 D(2,9,1,3)      =     -0.295967     0.000000    -0.003649    -0.299616
	   68 D(2,9,1,14)     =   -178.358709     0.000000     0.007404  -178.351305
	   69 D(2,9,10,5)     =     31.082212     0.000000     0.004227    31.086439
	   70 D(2,9,10,6)     =   -148.020585     0.000000     0.009249  -148.011336
	   71 D(3,1,9,10)     =   -179.349371    -0.000000     0.003157  -179.346214
	   72 D(3,11,4,17)    =    179.221573    -0.000000    -0.010795   179.210778
	   73 D(3,11,13,22)   =    179.726987    -0.000000     0.000667   179.727655
	   74 D(4,2,9,10)     =    179.210025     0.000000    -0.001200   179.208824
	   75 D(4,11,3,16)    =    179.480418    -0.000000    -0.011104   179.469314
	   76 D(4,11,13,22)   =     -0.387000    -0.000000    -0.000755    -0.387756
	   77 D(5,7,12,8)     =      0.088476     0.000000     0.013166     0.101642
	   78 D(5,10,6,8)     =      0.330577     0.000000     0.018563     0.349140
	   79 D(5,10,6,19)    =   -178.009479     0.000000     0.024305  -177.985174
	   80 D(6,8,12,7)     =      0.041494     0.000000     0.009825     0.051320
	   81 D(6,10,5,7)     =     -0.211211     0.000000     0.002551    -0.208659
	   82 D(6,10,5,18)    =   -178.418151     0.000000     0.010035  -178.408116
	   83 D(7,5,10,9)     =   -179.359249    -0.000000     0.007341  -179.351907
	   84 D(7,12,8,21)    =    179.578915    -0.000000    -0.048744   179.530171
	   85 D(8,6,10,9)     =    179.479212     0.000000     0.013786   179.492998
	   86 D(8,12,7,20)    =    179.724465    -0.000000    -0.047683   179.676782
	   87 D(9,1,3,11)     =      0.193223    -0.000000    -0.000391     0.192833
	   88 D(9,1,3,16)     =   -179.218386     0.000000     0.013622  -179.204764
	   89 D(9,2,4,11)     =      0.086324     0.000000    -0.003569     0.082755
	   90 D(9,2,4,17)     =   -179.329408     0.000000     0.006588  -179.322820
	   91 D(9,10,5,18)    =      2.433812    -0.000000     0.014824     2.448636
	   92 D(9,10,6,19)    =      1.139156     0.000000     0.019528     1.158683
	   93 D(10,5,7,12)    =      0.001456    -0.000000    -0.019473    -0.018017
	   94 D(10,5,7,20)    =   -179.621577     0.000000     0.043575  -179.578001
	   95 D(10,6,8,12)    =     -0.259363    -0.000000    -0.026146    -0.285508
	   96 D(10,6,8,21)    =   -179.780339     0.000000     0.034547  -179.745792
	   97 D(10,9,1,14)    =      2.587887    -0.000000     0.014210     2.602096
	   98 D(10,9,2,15)    =      1.260537     0.000000     0.014198     1.274735
	   99 D(11,3,1,14)    =    178.268667    -0.000000    -0.011411   178.257255
	  100 D(11,4,2,15)    =    178.049847    -0.000000    -0.018771   178.031075
	  101 D(12,7,5,18)    =    178.226433    -0.000000    -0.026812   178.199621
	  102 D(12,8,6,19)    =    178.097286    -0.000000    -0.031773   178.065513
	  103 D(13,11,3,16)   =     -0.629531    -0.000000    -0.012485    -0.642015
	  104 D(13,11,4,17)   =     -0.661920    -0.000000    -0.009343    -0.671263
	  105 D(14,1,3,16)    =     -1.142943     0.000000     0.002602    -1.140341
	  106 D(15,2,4,17)    =     -1.365886    -0.000000    -0.008614    -1.374500
	  107 D(18,5,7,20)    =     -1.396599     0.000000     0.036236    -1.360363
	  108 D(19,6,8,21)    =     -1.423691     0.000000     0.028920    -1.394771
	 ---------------------------------------------------------------------------
	Successfully symmetrized geometry.
	 Forces used to impose fixed constraints are not included.
	  Forces zeroed: 63 

  ==> Convergence Check <==

  Measures of convergence in internal coordinates in au.
  Criteria marked as inactive (o), active & met (*), and active & unmet ( ).
  ---------------------------------------------------------------------------------------------
   Step     Total Energy     Delta E     MAX Force     RMS Force      MAX Disp      RMS Disp   
  ---------------------------------------------------------------------------------------------
    Convergence Criteria    1.00e-06 *    3.00e-04 *             o    1.20e-03 *             o
  ---------------------------------------------------------------------------------------------
      6    -553.72568242    4.01e-07 *    4.52e-05 *    1.26e-05 o    8.51e-04 *    2.23e-04 o  ~
  ---------------------------------------------------------------------------------------------


  **** Optimization is complete! (in 6 steps) ****

  ==> Optimization Summary <==

  Measures of convergence in internal coordinates in au.
  --------------------------------------------------------------------------------------------------------------- ~
   Step         Total Energy             Delta E       MAX Force       RMS Force        MAX Disp        RMS Disp  ~
  --------------------------------------------------------------------------------------------------------------- ~
      1    -553.721837333088   -553.721837333088      0.01874255      0.00481198      0.03479690      0.00961634  ~
      2    -553.725015132380     -0.003177799292      0.00551901      0.00156064      0.02434765      0.00960633  ~
      3    -553.725648309061     -0.000633176681      0.00098712      0.00026956      0.01458361      0.00451624  ~
      4    -553.725681342542     -0.000033033481      0.00035471      0.00007563      0.00498058      0.00123463  ~
      5    -553.725682820872     -0.000001478330      0.00007720      0.00002575      0.00227299      0.00061729  ~
      6    -553.725682420071      0.000000400801      0.00004525      0.00001302      0.00085075      0.00022313  ~
  --------------------------------------------------------------------------------------------------------------- ~

	Writing optimization data to binary file.
	Final energy is   -553.7256824200707
	Final (previous) structure:
	Cartesian Geometry (in Angstrom)
	    C    -1.2840243856   0.7070395745  -0.5524861431
	    C    -0.2836212517   0.1042728461   1.5323685750
	    C    -2.3479852661   1.2853283997   0.1156079572
	    C    -1.3437137938   0.6835020497   2.2104450089
	    C     1.5981801275  -1.5783921453  -0.0541961163
	    C     1.3352846071   0.0036822786  -1.7954994643
	    C     2.6697959062  -2.1029828779  -0.7581811642
	    C     2.4161795683  -0.5872447178  -2.4294756451
	    C    -0.2338040358   0.1031787215   0.1399072225
	    C     0.8947065791  -0.4938318609  -0.5717793817
	    C    -2.3815879880   1.2748481378   1.5030221219
	    N     3.0889393213  -1.6282243991  -1.9334543455
	    O    -3.4526481678   1.8597389308   2.1068066151
	    H    -1.2866802865   0.6985645886  -1.6321117173
	    H     0.5304692875  -0.3229938898   2.0982529990
	    H    -3.1641241343   1.7401902492  -0.4237180794
	    H    -1.3580106194   0.6832890107   3.2916236645
	    H     1.2985218375  -2.0333646763   0.8776688706
	    H     0.8591855827   0.8628984519  -2.2427915244
	    H     3.2145158009  -2.9488741175  -0.3623996917
	    H     2.7634073457  -0.2015887714  -3.3779551130
	    H    -3.3561353583   1.7808293339   3.0606590438
	Saving final (previous) structure.
			--------------------------
			 OPTKING Finished Execution 
			--------------------------

    Final optimized geometry and variables:
    Molecular point group: c1
    Full point group: C1

    Geometry (in Angstrom), charge = 0, multiplicity = 1:

    C           -1.284024385596     0.707039574484    -0.552486143098
    C           -0.283621251655     0.104272846138     1.532368574987
    C           -2.347985266095     1.285328399662     0.115607957193
    C           -1.343713793771     0.683502049671     2.210445008896
    C            1.598180127521    -1.578392145313    -0.054196116286
    C            1.335284607136     0.003682278571    -1.795499464271
    C            2.669795906230    -2.102982877887    -0.758181164166
    C            2.416179568337    -0.587244717788    -2.429475645095
    C           -0.233804035837     0.103178721488     0.139907222536
    C            0.894706579119    -0.493831860899    -0.571779381682
    C           -2.381587987971     1.274848137766     1.503022121858
    N            3.088939321263    -1.628224399104    -1.933454345536
    O           -3.452648167793     1.859738930840     2.106806615130
    H           -1.286680286475     0.698564588637    -1.632111717260
    H            0.530469287509    -0.322993889824     2.098252998990
    H           -3.164124134334     1.740190249161    -0.423718079412
    H           -1.358010619449     0.683289010688     3.291623664507
    H            1.298521837479    -2.033364676255     0.877668870605
    H            0.859185582726     0.862898451916    -2.242791524419
    H            3.214515800913    -2.948874117508    -0.362399691742
    H            2.763407345747    -0.201588771358    -3.377955113011
    H           -3.356135358314     1.780829333947     3.060659043792

	Cleaning optimization helper files.

*** Psi4 exiting successfully. Buy a developer a beer!
