
    -----------------------------------------------------------------------
          Psi4: An Open-Source Ab Initio Electronic Structure Package
                               Psi4 1.1 release

                         Git: Rev {HEAD} add49b9 


    R. M. Parrish, L. A. Burns, D. G. A. Smith, A. C. Simmonett,
    A. E. DePrince III, E. G. Hohenstein, U. Bozkaya, A. Yu. Sokolov,
    R. Di Remigio, R. M. Richard, J. F. Gonthier, A. M. James,
    H. R. McAlexander, A. Kumar, M. Saitow, X. Wang, B. P. Pritchard,
    P. Verma, H. F. Schaefer III, K. Patkowski, R. A. King, E. F. Valeev,
    F. A. Evangelista, J. M. Turney, T. D. Crawford, and C. D. Sherrill,
    J. Chem. Theory Comput. in press (2017).
    (doi: 10.1021/acs.jctc.7b00174)

    -----------------------------------------------------------------------


    Psi4 started on: Sunday, 12 November 2017 03:38PM

    Process ID:   8415
    PSIDATADIR: /cbio/jclab/home/chayas/anaconda/envs/py35/share/psi4
    Memory:     500.0 MiB
    Threads:    8
    
  ==> Input File <==

--------------------------------------------------------------------------

memory 5 Gb

molecule phepyrOH_zwitterion {
  symmetry C1
  0 1 
  C      1.885   -1.036   -0.112
  C      2.878   -1.652   2.002
  C      0.807   -0.463   0.561
  C      1.800   -1.079   2.676
  C      4.906   -3.082   0.584
  C      4.252   -1.943   -1.436
  C      5.971   -3.637   -0.111
  C      5.333   -2.528   -2.080
  C      2.921   -1.631   0.608
  C      4.040   -2.226   -0.090
  C      0.764   -0.484   1.955
  N      6.152   -3.348   -1.407
  O      -0.227   0.042   2.574
  H      1.904   -1.011   -1.199
  H      3.678   -2.112   2.577
  H      0.011   -0.006   -0.025
  H      1.791   -1.108   3.764
  H      4.765   -3.320   1.634
  H      3.592   -1.279   -1.987
  H      6.692   -4.312   0.330
  H      5.574   -2.366   -3.121
  H      6.941   -3.766   -1.898
  units Angstrom
}

dih_string = "1 9 10 5 195"
set optking fixed_dihedral = $dih_string

optimize('MP2/aug-cc-PVTZ')
--------------------------------------------------------------------------

  Memory set to   4.657 GiB by Python driver.
gradient() will perform analytic gradient computation.

*** tstart() called on gpu-1-6.local
*** at Sun Nov 12 15:38:33 2017

    SCF Algorithm Type (re)set to DF.

*** tstart() called on gpu-1-6.local
*** at Sun Nov 12 15:38:33 2017

   => Loading Basis Set <=

    Name: AUG-CC-PVTZ
    Role: ORBITAL
    Keyword: BASIS
    atoms 1-11  entry C          line   221 file /cbio/jclab/home/chayas/anaconda/envs/py35/share/psi4/basis/aug-cc-pvtz.gbs 
    atoms 12    entry N          line   267 file /cbio/jclab/home/chayas/anaconda/envs/py35/share/psi4/basis/aug-cc-pvtz.gbs 
    atoms 13    entry O          line   313 file /cbio/jclab/home/chayas/anaconda/envs/py35/share/psi4/basis/aug-cc-pvtz.gbs 
    atoms 14-22 entry H          line    34 file /cbio/jclab/home/chayas/anaconda/envs/py35/share/psi4/basis/aug-cc-pvtz.gbs 


         ---------------------------------------------------------
                                   SCF
            by Justin Turney, Rob Parrish, and Andy Simmonett
                              RHF Reference
                        8 Threads,   4768 MiB Core
         ---------------------------------------------------------

  ==> Geometry <==

    Molecular point group: c1
    Full point group: C1

    Geometry (in Angstrom), charge = 0, multiplicity = 1:

       Center              X                  Y                   Z               Mass       
    ------------   -----------------  -----------------  -----------------  -----------------
           C         -1.297478415662     0.733896411890    -0.557600507071    12.000000000000
           C         -0.304478415662     0.117896411890     1.556399492929    12.000000000000
           C         -2.375478415662     1.306896411890     0.115399492929    12.000000000000
           C         -1.382478415662     0.690896411890     2.230399492929    12.000000000000
           C          1.723521584338    -1.312103588110     0.138399492929    12.000000000000
           C          1.069521584338    -0.173103588110    -1.881600507071    12.000000000000
           C          2.788521584338    -1.867103588110    -0.556600507071    12.000000000000
           C          2.150521584338    -0.758103588110    -2.525600507071    12.000000000000
           C         -0.261478415662     0.138896411890     0.162399492929    12.000000000000
           C          0.857521584338    -0.456103588110    -0.535600507071    12.000000000000
           C         -2.418478415662     1.285896411890     1.509399492929    12.000000000000
           N          2.969521584338    -1.578103588110    -1.852600507071    14.003074004780
           O         -3.409478415662     1.811896411890     2.128399492929    15.994914619560
           H         -1.278478415662     0.758896411890    -1.644600507071     1.007825032070
           H          0.495521584338    -0.342103588110     2.131399492929     1.007825032070
           H         -3.171478415662     1.763896411890    -0.470600507071     1.007825032070
           H         -1.391478415662     0.661896411890     3.318399492929     1.007825032070
           H          1.582521584338    -1.550103588110     1.188399492929     1.007825032070
           H          0.409521584338     0.490896411890    -2.432600507071     1.007825032070
           H          3.509521584338    -2.542103588110    -0.115600507071     1.007825032070
           H          2.391521584338    -0.596103588110    -3.566600507071     1.007825032070
           H          3.758521584338    -1.996103588110    -2.343600507071     1.007825032070

  Running in c1 symmetry.

  Rotational constants: A =      0.09648  B =      0.01383  C =      0.01215 [cm^-1]
  Rotational constants: A =   2892.52597  B =    414.66934  C =    364.23222 [MHz]
  Nuclear repulsion =  701.980410414021549

  Charge       = 0
  Multiplicity = 1
  Electrons    = 90
  Nalpha       = 45
  Nbeta        = 45

  ==> Algorithm <==

  SCF Algorithm Type is DF.
  DIIS enabled.
  MOM disabled.
  Fractional occupation disabled.
  Guess Type is SAD.
  Energy threshold   = 1.00e-10
  Density threshold  = 1.00e-10
  Integral threshold = 0.00e+00

  ==> Primary Basis <==

  Basis Set: AUG-CC-PVTZ
    Blend: AUG-CC-PVTZ
    Number of shells: 263
    Number of basis function: 805
    Number of Cartesian functions: 940
    Spherical Harmonics?: true
    Max angular momentum: 3

   => Loading Basis Set <=

    Name: (AUG-CC-PVTZ AUX)
    Role: JKFIT
    Keyword: DF_BASIS_SCF
    atoms 1-11  entry C          line   161 file /cbio/jclab/home/chayas/anaconda/envs/py35/share/psi4/basis/aug-cc-pvtz-jkfit.gbs 
    atoms 12    entry N          line   223 file /cbio/jclab/home/chayas/anaconda/envs/py35/share/psi4/basis/aug-cc-pvtz-jkfit.gbs 
    atoms 13    entry O          line   285 file /cbio/jclab/home/chayas/anaconda/envs/py35/share/psi4/basis/aug-cc-pvtz-jkfit.gbs 
    atoms 14-22 entry H          line    69 file /cbio/jclab/home/chayas/anaconda/envs/py35/share/psi4/basis/aug-cc-pvtz-jkfit.gbs 

  ==> Pre-Iterations <==

   -------------------------------------------------------
    Irrep   Nso     Nmo     Nalpha   Nbeta   Ndocc  Nsocc
   -------------------------------------------------------
     A        805     805       0       0       0       0
   -------------------------------------------------------
    Total     805     805      45      45      45       0
   -------------------------------------------------------

  ==> Integral Setup <==

  ==> DFJK: Density-Fitted J/K Matrices <==

    J tasked:                  Yes
    K tasked:                  Yes
    wK tasked:                  No
    OpenMP threads:              8
    Integrals threads:           8
    Memory (MB):              3576
    Algorithm:                Disk
    Integral Cache:           NONE
    Schwarz Cutoff:          1E-12
    Fitting Condition:       1E-12

   => Auxiliary Basis Set <=

  Basis Set: (AUG-CC-PVTZ AUX)
    Blend: AUG-CC-PVTZ-JKFIT
    Number of shells: 516
    Number of basis function: 1766
    Number of Cartesian functions: 2198
    Spherical Harmonics?: true
    Max angular momentum: 4

  Minimum eigenvalue in the overlap matrix is 6.0790019971E-07.
  Using Symmetric Orthogonalization.

  SCF Guess: Superposition of Atomic Densities via on-the-fly atomic UHF.

  ==> Iterations <==

                           Total Energy        Delta E     RMS |[F,P]|

   @DF-RHF iter   0:  -559.26947371392112   -5.59269e+02   2.11001e-02 
   @DF-RHF iter   1:  -550.80004846877796    8.46943e+00   2.32988e-03 
   @DF-RHF iter   2:  -551.04712616250049   -2.47078e-01   1.81701e-03 DIIS
   @DF-RHF iter   3:  -551.18735079154271   -1.40225e-01   5.67363e-04 DIIS
   @DF-RHF iter   4:  -551.21258173106150   -2.52309e-02   1.58616e-04 DIIS
   @DF-RHF iter   5:  -551.21546561536081   -2.88388e-03   8.29203e-05 DIIS
   @DF-RHF iter   6:  -551.21615736182753   -6.91746e-04   3.23423e-05 DIIS
   @DF-RHF iter   7:  -551.21630219359315   -1.44832e-04   1.04727e-05 DIIS
   @DF-RHF iter   8:  -551.21632605780962   -2.38642e-05   4.48563e-06 DIIS
   @DF-RHF iter   9:  -551.21633377845876   -7.72065e-06   2.34691e-06 DIIS
   @DF-RHF iter  10:  -551.21633525300592   -1.47455e-06   1.20707e-06 DIIS
   @DF-RHF iter  11:  -551.21633551781440   -2.64808e-07   4.20748e-07 DIIS
   @DF-RHF iter  12:  -551.21633556446284   -4.66484e-08   1.86192e-07 DIIS
   @DF-RHF iter  13:  -551.21633557134214   -6.87930e-09   8.08100e-08 DIIS
   @DF-RHF iter  14:  -551.21633557249947   -1.15733e-09   3.92334e-08 DIIS
   @DF-RHF iter  15:  -551.21633557272526   -2.25782e-10   1.02942e-08 DIIS
   @DF-RHF iter  16:  -551.21633557275732   -3.20597e-11   4.74743e-09 DIIS
   @DF-RHF iter  17:  -551.21633557276141   -4.09273e-12   2.23506e-09 DIIS
   @DF-RHF iter  18:  -551.21633557275038    1.10276e-11   7.51114e-10 DIIS
   @DF-RHF iter  19:  -551.21633557276630   -1.59162e-11   3.21778e-10 DIIS
   @DF-RHF iter  20:  -551.21633557277642   -1.01181e-11   1.50998e-10 DIIS
   @DF-RHF iter  21:  -551.21633557275732    1.90994e-11   7.94635e-11 DIIS

  ==> Post-Iterations <==

    Orbital Energies (a.u.)
    -----------------------

    Doubly Occupied:                                                      

       1A    -20.437826     2A    -15.691072     3A    -11.351812  
       4A    -11.351752     5A    -11.302563     6A    -11.280812  
       7A    -11.280749     8A    -11.249821     9A    -11.231490  
      10A    -11.231449    11A    -11.217086    12A    -11.192527  
      13A    -11.192480    14A     -1.377830    15A     -1.261470  
      16A     -1.178639    17A     -1.109283    18A     -1.105667  
      19A     -1.000012    20A     -0.991448    21A     -0.934989  
      22A     -0.901448    23A     -0.832266    24A     -0.817023  
      25A     -0.785936    26A     -0.728901    27A     -0.716918  
      28A     -0.698939    29A     -0.668437    30A     -0.649496  
      31A     -0.618554    32A     -0.612579    33A     -0.606073  
      34A     -0.587749    35A     -0.559113    36A     -0.535874  
      37A     -0.522025    38A     -0.485356    39A     -0.481964  
      40A     -0.469240    41A     -0.416096    42A     -0.390316  
      43A     -0.348220    44A     -0.326910    45A     -0.235421  

    Virtual:                                                              

      46A     -0.006553    47A      0.011984    48A      0.022639  
      49A      0.024223    50A      0.037935    51A      0.043407  
      52A      0.043668    53A      0.057632    54A      0.058708  
      55A      0.059699    56A      0.062263    57A      0.068538  
      58A      0.068971    59A      0.072210    60A      0.083449  
      61A      0.094337    62A      0.096058    63A      0.100797  
      64A      0.108152    65A      0.109309    66A      0.119142  
      67A      0.120176    68A      0.122276    69A      0.127438  
      70A      0.127471    71A      0.135205    72A      0.138442  
      73A      0.139298    74A      0.146774    75A      0.149705  
      76A      0.151843    77A      0.159451    78A      0.163094  
      79A      0.164051    80A      0.170495    81A      0.171122  
      82A      0.176102    83A      0.179874    84A      0.181988  
      85A      0.184760    86A      0.189127    87A      0.195592  
      88A      0.198648    89A      0.203383    90A      0.207140  
      91A      0.214728    92A      0.218186    93A      0.222014  
      94A      0.230316    95A      0.232577    96A      0.234522  
      97A      0.239321    98A      0.249694    99A      0.251574  
     100A      0.252273   101A      0.255711   102A      0.261137  
     103A      0.266704   104A      0.273154   105A      0.275391  
     106A      0.282991   107A      0.288748   108A      0.290230  
     109A      0.294910   110A      0.298506   111A      0.302162  
     112A      0.304310   113A      0.311392   114A      0.311649  
     115A      0.316374   116A      0.322996   117A      0.329864  
     118A      0.331497   119A      0.337812   120A      0.340864  
     121A      0.347627   122A      0.348549   123A      0.351235  
     124A      0.351908   125A      0.357075   126A      0.357827  
     127A      0.367179   128A      0.373951   129A      0.375763  
     130A      0.378448   131A      0.387323   132A      0.390937  
     133A      0.396044   134A      0.399819   135A      0.405594  
     136A      0.405621   137A      0.414690   138A      0.416720  
     139A      0.421640   140A      0.427227   141A      0.435367  
     142A      0.439956   143A      0.444703   144A      0.446590  
     145A      0.449449   146A      0.450629   147A      0.452826  
     148A      0.461445   149A      0.464420   150A      0.467841  
     151A      0.468709   152A      0.474921   153A      0.476857  
     154A      0.478318   155A      0.483754   156A      0.485653  
     157A      0.488434   158A      0.492229   159A      0.498288  
     160A      0.501273   161A      0.503348   162A      0.509206  
     163A      0.513955   164A      0.516748   165A      0.523372  
     166A      0.525576   167A      0.525978   168A      0.529849  
     169A      0.542097   170A      0.547257   171A      0.548713  
     172A      0.552286   173A      0.557365   174A      0.563319  
     175A      0.564461   176A      0.565489   177A      0.567685  
     178A      0.582746   179A      0.588162   180A      0.601163  
     181A      0.607846   182A      0.608359   183A      0.616447  
     184A      0.619494   185A      0.623655   186A      0.624192  
     187A      0.637225   188A      0.644022   189A      0.644615  
     190A      0.654498   191A      0.659763   192A      0.662959  
     193A      0.666005   194A      0.680520   195A      0.681754  
     196A      0.686374   197A      0.690507   198A      0.700476  
     199A      0.702070   200A      0.704929   201A      0.709561  
     202A      0.715427   203A      0.720678   204A      0.722643  
     205A      0.735516   206A      0.739773   207A      0.742753  
     208A      0.746673   209A      0.760036   210A      0.763754  
     211A      0.768105   212A      0.773975   213A      0.774493  
     214A      0.780990   215A      0.789349   216A      0.792402  
     217A      0.798910   218A      0.805144   219A      0.814533  
     220A      0.827028   221A      0.828192   222A      0.830777  
     223A      0.846223   224A      0.848579   225A      0.858782  
     226A      0.859379   227A      0.863837   228A      0.868238  
     229A      0.872908   230A      0.873546   231A      0.883554  
     232A      0.891272   233A      0.898014   234A      0.899159  
     235A      0.904755   236A      0.909935   237A      0.911597  
     238A      0.915313   239A      0.919141   240A      0.922440  
     241A      0.924074   242A      0.931649   243A      0.934456  
     244A      0.936885   245A      0.940504   246A      0.954202  
     247A      0.960457   248A      0.965899   249A      0.966261  
     250A      0.967861   251A      0.973333   252A      0.979379  
     253A      0.985179   254A      0.986121   255A      0.991607  
     256A      0.995315   257A      0.996315   258A      1.005583  
     259A      1.011001   260A      1.013336   261A      1.019896  
     262A      1.021458   263A      1.021674   264A      1.022263  
     265A      1.031310   266A      1.032212   267A      1.038950  
     268A      1.045476   269A      1.046244   270A      1.054995  
     271A      1.060363   272A      1.062258   273A      1.072126  
     274A      1.075483   275A      1.083021   276A      1.094706  
     277A      1.097700   278A      1.106447   279A      1.108061  
     280A      1.114125   281A      1.116527   282A      1.126284  
     283A      1.132411   284A      1.132624   285A      1.138088  
     286A      1.146400   287A      1.148763   288A      1.152818  
     289A      1.154402   290A      1.161573   291A      1.163912  
     292A      1.167293   293A      1.173980   294A      1.183134  
     295A      1.183445   296A      1.188162   297A      1.197918  
     298A      1.202059   299A      1.207963   300A      1.209415  
     301A      1.213810   302A      1.214302   303A      1.215329  
     304A      1.225670   305A      1.231018   306A      1.233345  
     307A      1.239879   308A      1.241881   309A      1.250351  
     310A      1.254685   311A      1.256826   312A      1.265199  
     313A      1.274062   314A      1.276719   315A      1.285462  
     316A      1.296904   317A      1.297699   318A      1.304787  
     319A      1.310467   320A      1.312937   321A      1.325627  
     322A      1.328317   323A      1.338184   324A      1.345801  
     325A      1.351575   326A      1.359062   327A      1.364475  
     328A      1.370793   329A      1.376724   330A      1.389784  
     331A      1.390770   332A      1.395119   333A      1.402520  
     334A      1.406802   335A      1.413603   336A      1.434154  
     337A      1.437369   338A      1.443883   339A      1.449405  
     340A      1.450451   341A      1.473035   342A      1.479020  
     343A      1.481342   344A      1.486404   345A      1.493410  
     346A      1.501442   347A      1.509246   348A      1.511536  
     349A      1.514348   350A      1.518276   351A      1.526847  
     352A      1.537802   353A      1.558744   354A      1.565628  
     355A      1.575101   356A      1.575650   357A      1.589884  
     358A      1.602092   359A      1.602969   360A      1.606117  
     361A      1.629319   362A      1.638459   363A      1.644741  
     364A      1.655536   365A      1.659171   366A      1.663125  
     367A      1.673508   368A      1.680579   369A      1.680944  
     370A      1.689813   371A      1.698560   372A      1.703072  
     373A      1.712363   374A      1.725943   375A      1.731405  
     376A      1.746693   377A      1.761758   378A      1.766709  
     379A      1.771862   380A      1.785778   381A      1.788865  
     382A      1.801719   383A      1.808932   384A      1.817469  
     385A      1.821736   386A      1.823449   387A      1.829354  
     388A      1.844613   389A      1.850328   390A      1.860977  
     391A      1.866653   392A      1.873245   393A      1.881791  
     394A      1.887975   395A      1.906307   396A      1.907320  
     397A      1.916568   398A      1.927198   399A      1.931825  
     400A      1.935734   401A      1.942630   402A      1.966945  
     403A      1.969510   404A      1.974066   405A      1.979539  
     406A      1.982087   407A      2.000431   408A      2.011580  
     409A      2.014710   410A      2.018752   411A      2.019543  
     412A      2.033400   413A      2.038826   414A      2.040871  
     415A      2.047223   416A      2.053784   417A      2.054038  
     418A      2.061138   419A      2.068162   420A      2.069891  
     421A      2.071767   422A      2.087389   423A      2.094338  
     424A      2.100716   425A      2.110276   426A      2.115823  
     427A      2.130587   428A      2.140313   429A      2.158284  
     430A      2.159173   431A      2.161874   432A      2.175236  
     433A      2.177718   434A      2.184192   435A      2.188497  
     436A      2.201819   437A      2.202345   438A      2.223874  
     439A      2.226506   440A      2.235938   441A      2.257062  
     442A      2.280832   443A      2.292468   444A      2.294855  
     445A      2.306462   446A      2.310890   447A      2.313998  
     448A      2.322452   449A      2.333933   450A      2.346426  
     451A      2.360352   452A      2.370909   453A      2.381929  
     454A      2.387538   455A      2.398045   456A      2.408852  
     457A      2.417975   458A      2.429157   459A      2.434326  
     460A      2.439677   461A      2.440587   462A      2.464941  
     463A      2.472494   464A      2.479760   465A      2.499580  
     466A      2.500630   467A      2.517647   468A      2.529381  
     469A      2.530711   470A      2.537381   471A      2.553973  
     472A      2.555869   473A      2.561179   474A      2.575757  
     475A      2.581740   476A      2.612153   477A      2.617996  
     478A      2.625924   479A      2.651786   480A      2.666315  
     481A      2.670814   482A      2.679121   483A      2.695891  
     484A      2.718030   485A      2.734442   486A      2.743649  
     487A      2.760903   488A      2.768978   489A      2.785318  
     490A      2.807752   491A      2.810625   492A      2.830986  
     493A      2.843028   494A      2.880916   495A      2.887935  
     496A      2.893566   497A      2.920643   498A      2.927445  
     499A      2.966903   500A      2.989904   501A      3.010641  
     502A      3.027920   503A      3.046176   504A      3.061584  
     505A      3.089172   506A      3.098408   507A      3.115292  
     508A      3.123796   509A      3.147508   510A      3.152503  
     511A      3.173568   512A      3.195891   513A      3.200136  
     514A      3.229028   515A      3.233271   516A      3.252583  
     517A      3.283869   518A      3.288843   519A      3.305580  
     520A      3.318671   521A      3.319186   522A      3.334439  
     523A      3.357790   524A      3.370617   525A      3.373093  
     526A      3.375367   527A      3.380692   528A      3.393455  
     529A      3.394859   530A      3.398149   531A      3.405695  
     532A      3.422496   533A      3.435607   534A      3.451270  
     535A      3.471348   536A      3.481881   537A      3.491852  
     538A      3.511525   539A      3.517385   540A      3.527454  
     541A      3.534280   542A      3.541363   543A      3.543171  
     544A      3.553382   545A      3.565092   546A      3.568118  
     547A      3.570305   548A      3.590156   549A      3.594035  
     550A      3.615424   551A      3.620198   552A      3.627581  
     553A      3.641738   554A      3.643722   555A      3.654196  
     556A      3.663119   557A      3.676151   558A      3.687841  
     559A      3.695438   560A      3.699544   561A      3.709159  
     562A      3.718556   563A      3.723700   564A      3.730837  
     565A      3.746087   566A      3.747215   567A      3.769626  
     568A      3.778683   569A      3.778991   570A      3.798178  
     571A      3.801588   572A      3.807622   573A      3.822857  
     574A      3.826173   575A      3.843323   576A      3.847846  
     577A      3.860132   578A      3.864893   579A      3.878021  
     580A      3.886345   581A      3.900070   582A      3.911159  
     583A      3.918560   584A      3.923765   585A      3.932737  
     586A      3.937116   587A      3.947477   588A      3.955893  
     589A      3.962618   590A      3.977579   591A      3.982187  
     592A      3.986572   593A      4.008045   594A      4.010185  
     595A      4.017171   596A      4.019461   597A      4.020706  
     598A      4.037329   599A      4.038790   600A      4.046299  
     601A      4.062749   602A      4.074308   603A      4.080799  
     604A      4.098569   605A      4.112420   606A      4.120050  
     607A      4.130019   608A      4.141312   609A      4.147641  
     610A      4.163687   611A      4.176173   612A      4.185779  
     613A      4.188814   614A      4.196857   615A      4.215959  
     616A      4.217103   617A      4.221231   618A      4.222039  
     619A      4.235610   620A      4.244828   621A      4.250859  
     622A      4.254811   623A      4.261732   624A      4.277103  
     625A      4.288750   626A      4.302968   627A      4.309639  
     628A      4.313567   629A      4.328926   630A      4.332438  
     631A      4.338711   632A      4.343860   633A      4.356785  
     634A      4.366990   635A      4.376979   636A      4.384338  
     637A      4.385599   638A      4.404215   639A      4.413095  
     640A      4.420687   641A      4.430924   642A      4.439610  
     643A      4.448686   644A      4.450251   645A      4.461110  
     646A      4.475035   647A      4.481910   648A      4.485964  
     649A      4.492801   650A      4.521526   651A      4.529346  
     652A      4.534475   653A      4.540365   654A      4.553859  
     655A      4.554328   656A      4.564975   657A      4.587616  
     658A      4.595617   659A      4.623584   660A      4.638377  
     661A      4.644801   662A      4.669541   663A      4.678471  
     664A      4.686187   665A      4.720607   666A      4.725576  
     667A      4.728334   668A      4.744616   669A      4.751954  
     670A      4.767646   671A      4.769635   672A      4.780426  
     673A      4.790313   674A      4.800570   675A      4.804288  
     676A      4.852933   677A      4.856811   678A      4.874526  
     679A      4.891417   680A      4.892568   681A      4.918971  
     682A      4.923212   683A      4.931118   684A      4.931719  
     685A      4.942478   686A      4.942733   687A      4.975007  
     688A      4.975360   689A      5.031962   690A      5.034452  
     691A      5.040453   692A      5.051529   693A      5.055521  
     694A      5.075446   695A      5.089997   696A      5.093375  
     697A      5.110666   698A      5.127514   699A      5.133565  
     700A      5.139891   701A      5.150411   702A      5.156937  
     703A      5.163386   704A      5.163815   705A      5.169664  
     706A      5.191285   707A      5.205470   708A      5.226285  
     709A      5.238349   710A      5.238604   711A      5.273964  
     712A      5.292090   713A      5.317644   714A      5.327612  
     715A      5.339747   716A      5.349566   717A      5.369278  
     718A      5.393319   719A      5.413601   720A      5.425882  
     721A      5.434040   722A      5.446993   723A      5.485810  
     724A      5.513968   725A      5.522746   726A      5.530102  
     727A      5.546158   728A      5.551400   729A      5.576836  
     730A      5.585482   731A      5.636360   732A      5.682515  
     733A      5.697336   734A      5.717920   735A      5.737027  
     736A      5.748874   737A      5.759326   738A      5.769250  
     739A      5.801086   740A      5.816175   741A      5.830868  
     742A      5.842096   743A      5.863948   744A      5.896142  
     745A      5.918606   746A      5.976244   747A      5.983591  
     748A      5.992431   749A      6.077506   750A      6.111621  
     751A      6.126263   752A      6.174470   753A      6.189693  
     754A      6.215284   755A      6.231275   756A      6.281969  
     757A      6.319582   758A      6.332418   759A      6.430277  
     760A      6.465827   761A      6.483736   762A      6.499689  
     763A      6.556376   764A      6.584408   765A      6.631673  
     766A      6.641870   767A      6.691527   768A      6.729617  
     769A      6.731293   770A      6.767030   771A      6.833695  
     772A      6.858254   773A      6.885363   774A      6.950895  
     775A      6.962310   776A      6.969343   777A      6.975901  
     778A      7.058419   779A      7.117407   780A      7.131942  
     781A      7.188794   782A      7.227018   783A      7.246406  
     784A      7.482982   785A      7.510492   786A      7.605715  
     787A      7.680440   788A      7.796923   789A      7.823997  
     790A      7.898348   791A      8.022127   792A      8.092359  
     793A     16.026416   794A     16.186966   795A     16.407649  
     796A     17.296331   797A     17.344026   798A     18.939721  
     799A     19.593819   800A     19.791965   801A     20.012847  
     802A     20.380439   803A     20.509048   804A     20.841350  
     805A     21.533647  

    Final Occupation by Irrep:
              A 
    DOCC [    45 ]

  Energy converged.

  @DF-RHF Final Energy:  -551.21633557275732

   => Energetics <=

    Nuclear Repulsion Energy =            701.9804104140215486
    One-Electron Energy =               -2140.4622322125824212
    Two-Electron Energy =                 887.2654862258034427
    DFT Exchange-Correlation Energy =       0.0000000000000000
    Empirical Dispersion Energy =           0.0000000000000000
    PCM Polarization Energy =               0.0000000000000000
    EFP Energy =                            0.0000000000000000
    Total Energy =                       -551.2163355727573162



Properties will be evaluated at   0.000000,   0.000000,   0.000000 Bohr

Properties computed using the SCF density matrix

  Nuclear Dipole Moment: (a.u.)
     X:     5.8864      Y:    -3.1281      Z:    -3.6737

  Electronic Dipole Moment: (a.u.)
     X:    -0.3614      Y:     0.1925      Z:     0.2253

  Dipole Moment: (a.u.)
     X:     5.5250      Y:    -2.9356      Z:    -3.4484     Total:     7.1439

  Dipole Moment: (Debye)
     X:    14.0431      Y:    -7.4616      Z:    -8.7651     Total:    18.1579


*** tstop() called on gpu-1-6.local at Sun Nov 12 15:45:54 2017
Module time:
	user time   =    1094.31 seconds =      18.24 minutes
	system time =      48.80 seconds =       0.81 minutes
	total time  =        441 seconds =       7.35 minutes
Total time:
	user time   =    1094.31 seconds =      18.24 minutes
	system time =      48.80 seconds =       0.81 minutes
	total time  =        441 seconds =       7.35 minutes

  //>>>>>>>>>>>>>>>>>>>>>>>>>>>>>>>>>>>//
  //               DFMP2               //
  //<<<<<<<<<<<<<<<<<<<<<<<<<<<<<<<<<<<//

   => Loading Basis Set <=

    Name: (AUG-CC-PVTZ AUX)
    Role: RIFIT
    Keyword: DF_BASIS_MP2
    atoms 1-11  entry C          line   147 file /cbio/jclab/home/chayas/anaconda/envs/py35/share/psi4/basis/aug-cc-pvtz-ri.gbs 
    atoms 12    entry N          line   205 file /cbio/jclab/home/chayas/anaconda/envs/py35/share/psi4/basis/aug-cc-pvtz-ri.gbs 
    atoms 13    entry O          line   263 file /cbio/jclab/home/chayas/anaconda/envs/py35/share/psi4/basis/aug-cc-pvtz-ri.gbs 
    atoms 14-22 entry H          line    29 file /cbio/jclab/home/chayas/anaconda/envs/py35/share/psi4/basis/aug-cc-pvtz-ri.gbs 

	 --------------------------------------------------------
	                          DF-MP2                         
	      2nd-Order Density-Fitted Moller-Plesset Theory     
	              RMP2 Wavefunction,   8 Threads             
	                                                         
	        Rob Parrish, Justin Turney, Andy Simmonett,      
	           Ed Hohenstein, and C. David Sherrill          
	 --------------------------------------------------------

   => Auxiliary Basis Set <=

  Basis Set: (AUG-CC-PVTZ AUX)
    Blend: AUG-CC-PVTZ-RI
    Number of shells: 490
    Number of basis function: 1792
    Number of Cartesian functions: 2263
    Spherical Harmonics?: true
    Max angular momentum: 4

	 --------------------------------------------------------
	                 NBF =   805, NAUX =  1792
	 --------------------------------------------------------
	   CLASS    FOCC     OCC    AOCC    AVIR     VIR    FVIR
	   PAIRS       0      45      45     760     760       0
	 --------------------------------------------------------


         ------------------------------------------------------------
                                     CPHF                           
                                  Rob Parrish                       
         ------------------------------------------------------------

  ==> Geometry <==

    Molecular point group: c1
    Full point group: C1

    Geometry (in Angstrom), charge = 0, multiplicity = 1:

       Center              X                  Y                   Z               Mass       
    ------------   -----------------  -----------------  -----------------  -----------------
           C         -1.297478415662     0.733896411890    -0.557600507071    12.000000000000
           C         -0.304478415662     0.117896411890     1.556399492929    12.000000000000
           C         -2.375478415662     1.306896411890     0.115399492929    12.000000000000
           C         -1.382478415662     0.690896411890     2.230399492929    12.000000000000
           C          1.723521584338    -1.312103588110     0.138399492929    12.000000000000
           C          1.069521584338    -0.173103588110    -1.881600507071    12.000000000000
           C          2.788521584338    -1.867103588110    -0.556600507071    12.000000000000
           C          2.150521584338    -0.758103588110    -2.525600507071    12.000000000000
           C         -0.261478415662     0.138896411890     0.162399492929    12.000000000000
           C          0.857521584338    -0.456103588110    -0.535600507071    12.000000000000
           C         -2.418478415662     1.285896411890     1.509399492929    12.000000000000
           N          2.969521584338    -1.578103588110    -1.852600507071    14.003074004780
           O         -3.409478415662     1.811896411890     2.128399492929    15.994914619560
           H         -1.278478415662     0.758896411890    -1.644600507071     1.007825032070
           H          0.495521584338    -0.342103588110     2.131399492929     1.007825032070
           H         -3.171478415662     1.763896411890    -0.470600507071     1.007825032070
           H         -1.391478415662     0.661896411890     3.318399492929     1.007825032070
           H          1.582521584338    -1.550103588110     1.188399492929     1.007825032070
           H          0.409521584338     0.490896411890    -2.432600507071     1.007825032070
           H          3.509521584338    -2.542103588110    -0.115600507071     1.007825032070
           H          2.391521584338    -0.596103588110    -3.566600507071     1.007825032070
           H          3.758521584338    -1.996103588110    -2.343600507071     1.007825032070

  Nuclear repulsion =  701.980410414021549
  Reference energy  = -551.216335572757316

  ==> Basis Set <==

  Basis Set: AUG-CC-PVTZ
    Blend: AUG-CC-PVTZ
    Number of shells: 263
    Number of basis function: 805
    Number of Cartesian functions: 940
    Spherical Harmonics?: true
    Max angular momentum: 3

  ==> CGRSolver (by Rob Parrish) <==

   Number of roots    =         1
   Preconditioning    =    JACOBI
   Convergence cutoff =     1E-06
   Maximum iterations =       100

  ==> CPHFRHamiltonian (by Rob Parrish) <== 

  ==> DFJK: Density-Fitted J/K Matrices <==

    J tasked:                  Yes
    K tasked:                  Yes
    wK tasked:                  No
    OpenMP threads:              8
    Integrals threads:           8
    Memory (MB):              3576
    Algorithm:                Disk
    Integral Cache:           NONE
    Schwarz Cutoff:          1E-12
    Fitting Condition:       1E-12

   => Auxiliary Basis Set <=

  Basis Set: (AUG-CC-PVTZ AUX)
    Blend: AUG-CC-PVTZ-JKFIT
    Number of shells: 516
    Number of basis function: 1766
    Number of Cartesian functions: 2198
    Spherical Harmonics?: true
    Max angular momentum: 4

  ==> CPHF Iterations <==

  => Iterations <=

             Iter  Converged  Remaining    Residual
  CGR           1          0          1   1.608E-01
  CGR           2          0          1   6.381E-02
  CGR           3          0          1   3.124E-02
  CGR           4          0          1   9.378E-03
  CGR           5          0          1   3.239E-03
  CGR           6          0          1   1.146E-03
  CGR           7          0          1   4.219E-04
  CGR           8          0          1   1.531E-04
  CGR           9          0          1   4.568E-05
  CGR          10          0          1   1.607E-05
  CGR          11          0          1   8.613E-06
  CGR          12          0          1   3.094E-06
  CGR          13          0          1   1.509E-06
  CGR          14          1          0   5.533E-07

    CGRSolver converged.

  ==> DFCorrGrad: Density-Fitted Correlated Gradients <==

    OpenMP threads:              8
    Integrals threads:           8
    Memory (MB):              3576
    Schwarz Cutoff:          0E+00
    Fitting Condition:       1E-12

   => Auxiliary Basis Set <=

  Basis Set: (AUG-CC-PVTZ AUX)
    Blend: AUG-CC-PVTZ-JKFIT
    Number of shells: 516
    Number of basis function: 1766
    Number of Cartesian functions: 2198
    Spherical Harmonics?: true
    Max angular momentum: 4

	-----------------------------------------------------------
	 ==================> DF-MP2 Energies <==================== 
	-----------------------------------------------------------
	 Reference Energy          =    -551.2163355727573162 [Eh]
	 Singles Energy            =      -0.0000000000000002 [Eh]
	 Same-Spin Energy          =      -0.6065001943795563 [Eh]
	 Opposite-Spin Energy      =      -1.8410779724697688 [Eh]
	 Correlation Energy        =      -2.4475781668493255 [Eh]
	 Total Energy              =    -553.6639137396066417 [Eh]
	-----------------------------------------------------------
	 ================> DF-SCS-MP2 Energies <================== 
	-----------------------------------------------------------
	 SCS Same-Spin Scale       =       0.3333333333333333 [-]
	 SCS Opposite-Spin Scale   =       1.2000000000000000 [-]
	 SCS Same-Spin Energy      =      -0.2021667314598521 [Eh]
	 SCS Opposite-Spin Energy  =      -2.2092935669637224 [Eh]
	 SCS Correlation Energy    =      -2.4114602984235751 [Eh]
	 SCS Total Energy          =    -553.6277958711808651 [Eh]
	-----------------------------------------------------------


  -Total Gradient:
     Atom            X                  Y                   Z
    ------   -----------------  -----------------  -----------------
       1        0.032287840680    -0.023333978131    -0.004306064578
       2        0.024747664939    -0.006963956955    -0.031340440110
       3       -0.028547727241     0.014017978275     0.055061699125
       4       -0.055651074177     0.030595855076    -0.001576478263
       5       -0.039691214841     0.021746793294     0.008558216262
       6       -0.027746358118     0.013930382209     0.034075354179
       7        0.016226561945    -0.002031251283    -0.032880559880
       8        0.029216236381    -0.021816412830     0.003809243861
       9       -0.042480649367     0.022553955946     0.026506640034
      10        0.055595598086    -0.029598174262    -0.034695126109
      11        0.066476058078    -0.035146244684    -0.042045874452
      12       -0.022211134771     0.011772341821     0.013871855474
      13       -0.020986433896     0.011080152278     0.013183881940
      14        0.002320985318     0.000703108361    -0.006502742621
      15        0.004868458433    -0.004507742553     0.001891604404
      16       -0.002284249260     0.002323966043    -0.009013310584
      17        0.004780991866    -0.003641462186     0.007101756228
      18       -0.002471322057     0.000948662713     0.008618453946
      19       -0.007614306836     0.004562857079    -0.002587701149
      20        0.002960508936    -0.001618192228    -0.000268621990
      21        0.001646050934    -0.001088517989    -0.002155268177
      22        0.008557514966    -0.004490119982    -0.005306517544


*** tstop() called on gpu-1-6.local at Sun Nov 12 16:17:58 2017
Module time:
	user time   =    5125.79 seconds =      85.43 minutes
	system time =     104.19 seconds =       1.74 minutes
	total time  =       2365 seconds =      39.42 minutes
Total time:
	user time   =    5125.79 seconds =      85.43 minutes
	system time =     104.19 seconds =       1.74 minutes
	total time  =       2365 seconds =      39.42 minutes

			-----------------------------------------
			 OPTKING 2.0: for geometry optimizations 
			  - R.A. King,  Bethel University        
			-----------------------------------------

	Internal coordinates to be generated automatically.
	Detected frag 1 with atoms:  1 2 3 4 5 6 7 8 9 10 11 12 13 14 15 16 17 18 19 20
	 21 22
	---Fragment 1 Bond Connectivity---
	 1 : 3 9 14
	 2 : 4 9 15
	 3 : 1 11 16
	 4 : 2 11 17
	 5 : 7 10 18
	 6 : 8 10 19
	 7 : 5 12 20
	 8 : 6 12 21
	 9 : 1 2 10
	 10 : 5 6 9
	 11 : 3 4 13
	 12 : 7 8 22
	 13 : 11
	 14 : 1
	 15 : 2
	 16 : 3
	 17 : 4
	 18 : 5
	 19 : 6
	 20 : 7
	 21 : 8
	 22 : 12

	Assuming in current code that numbering for constraints corresponds to unified fragment.
	Fixed dihedral atom list: 
	     1     9    10     5
	---Fragment 1 Geometry and Gradient---
	 C          -2.4518788689        1.3868632284       -1.0537122499
	 C          -0.5753808190        0.2227919305        2.9411687950
	 C          -4.4890036402        2.4696763025        0.2180734375
	 C          -2.6125055902        1.3056050047        4.2148442086
	 C           3.2569837785       -2.4795164395        0.2615371386
	 C           2.0211028876       -0.3271183741       -3.5557096499
	 C           5.2695421100       -3.5283144433       -1.0518225238
	 C           4.0638968373       -1.4326081619       -4.7726932794
	 C          -0.4941225953        0.2624761793        0.3068905658
	 C           1.6204809474       -0.8619108698       -1.0121382750
	 C          -4.5702618639        2.4299920537        2.8523516668
	 N           5.6115825401       -2.9821835909       -3.5009075920
	 O          -6.4429804616        3.4239879996        4.0220921430
	 H          -2.4159740724        1.4341063817       -3.1078445564
	 H           0.9364000873       -0.6464820906        4.0277613214
	 H          -5.9932256420        3.3332811453       -0.8893060764
	 H          -2.6295131254        1.2508029468        6.2708662411
	 H           2.9905323938       -2.9292712591        2.2457495781
	 H           0.7738836399        0.9276597781       -4.5969487491
	 H           6.6320346518       -4.8038795830       -0.2184532992
	 H           4.5193208353       -1.1264725284       -6.7398981838
	 H           7.1025764589       -3.7720891144       -4.4287631233
	             0.0322878407       -0.0233339781       -0.0043060646
	             0.0247476649       -0.0069639570       -0.0313404401
	            -0.0285477272        0.0140179783        0.0550616991
	            -0.0556510742        0.0305958551       -0.0015764783
	            -0.0396912148        0.0217467933        0.0085582163
	            -0.0277463581        0.0139303822        0.0340753542
	             0.0162265619       -0.0020312513       -0.0328805599
	             0.0292162364       -0.0218164128        0.0038092439
	            -0.0424806494        0.0225539559        0.0265066400
	             0.0555955981       -0.0295981743       -0.0346951261
	             0.0664760581       -0.0351462447       -0.0420458745
	            -0.0222111348        0.0117723418        0.0138718555
	            -0.0209864339        0.0110801523        0.0131838819
	             0.0023209853        0.0007031084       -0.0065027426
	             0.0048684584       -0.0045077426        0.0018916044
	            -0.0022842493        0.0023239660       -0.0090133106
	             0.0047809919       -0.0036414622        0.0071017562
	            -0.0024713221        0.0009486627        0.0086184539
	            -0.0076143068        0.0045628571       -0.0025877011
	             0.0029605089       -0.0016181922       -0.0002686220
	             0.0016460509       -0.0010885180       -0.0021552682
	             0.0085575150       -0.0044901200       -0.0053065175

	Previous optimization step data not found.  Starting new optimization.

	---Fragment 1 Intrafragment Coordinates---
	 - Coordinate -           - BOHR/RAD -       - ANG/DEG -
	 R(1,3)           =         2.634350	       1.394038
	 R(1,9)           =         2.635962	       1.394891
	 R(1,14)          =         2.054989	       1.087453
	 R(2,4)           =         2.635263	       1.394521
	 R(2,9)           =         2.635830	       1.394821
	 R(2,15)          =         2.054702	       1.087302
	 R(3,11)          =         2.635830	       1.394821
	 R(3,16)          =         2.057860	       1.088972
	 R(4,11)          =         2.636938	       1.395407
	 R(4,17)          =         2.056823	       1.088424
	 R(5,7)           =         2.622076	       1.387543
	 R(5,10)          =         2.630026	       1.391750
	 R(5,18)          =         2.051920	       1.085829
	 R(6,8)           =         2.622244	       1.387632
	 R(6,10)          =         2.629878	       1.391671
	 R(6,19)          =         2.052852	       1.086323
	 R(7,12)          =         2.532443	       1.340111
	 R(7,20)          =         2.044005	       1.081641
	 R(8,12)          =         2.532579	       1.340183
	 R(8,21)          =         2.042309	       1.080743
	 R(9,10)          =         2.734160	       1.446855
	 R(11,13)         =         2.421445	       1.281373
	 R(12,22)         =         1.925598	       1.018983
	 B(1,3,11)        =         2.094553	     120.009056
	 B(1,3,16)        =         2.069123	     118.552025
	 B(1,9,2)         =         2.093692	     119.959722
	 B(1,9,10)        =         2.095337	     120.053983
	 B(2,4,11)        =         2.093699	     119.960108
	 B(2,4,17)        =         2.069829	     118.592446
	 B(2,9,10)        =         2.094156	     119.986294
	 B(3,1,9)         =         2.094940	     120.031219
	 B(3,1,14)        =         2.079025	     119.119344
	 B(3,11,4)        =         2.094306	     119.994870
	 B(3,11,13)       =         2.094918	     120.029973
	 B(4,2,9)         =         2.095181	     120.045019
	 B(4,2,15)        =         2.079455	     119.143974
	 B(4,11,13)       =         2.093961	     119.975136
	 B(5,7,12)        =         2.096482	     120.119592
	 B(5,7,20)        =         2.161595	     123.850262
	 B(5,10,6)        =         2.092864	     119.912278
	 B(5,10,9)        =         2.095021	     120.035873
	 B(6,8,12)        =         2.095505	     120.063589
	 B(6,8,21)        =         2.162237	     123.887081
	 B(6,10,9)        =         2.095300	     120.051848
	 B(7,5,10)        =         2.072635	     118.753266
	 B(7,5,18)        =         2.090191	     119.759117
	 B(7,12,8)        =         2.135365	     122.347393
	 B(7,12,22)       =         2.073856	     118.823183
	 B(8,6,10)        =         2.073518	     118.803836
	 B(8,6,19)        =         2.089307	     119.708477
	 B(8,12,22)       =         2.073964	     118.829400
	 B(9,1,14)        =         2.109221	     120.849435
	 B(9,2,15)        =         2.108550	     120.811005
	 B(10,5,18)       =         2.120358	     121.487583
	 B(10,6,19)       =         2.120360	     121.487667
	 B(11,3,16)       =         2.119509	     121.438903
	 B(11,4,17)       =         2.119657	     121.447411
	 B(12,7,20)       =         2.025106	     116.030027
	 B(12,8,21)       =         2.025442	     116.049307
	 D(1,3,11,4)      =        -0.000325	      -0.018609
	 D(1,3,11,13)     =        -3.141004	    -179.966279
	 D(1,9,2,4)       =         0.000325	       0.018608
	 D(1,9,2,15)      =        -3.141527	    -179.996257
	 D(1,9,10,5)      =        -2.879803	    -165.000570
	 D(1,9,10,6)      =         0.262008	      15.011955
	 D(2,4,11,3)      =         0.000301	       0.017261
	 D(2,4,11,13)     =         3.140981	     179.964960
	 D(2,9,1,3)       =        -0.000348	      -0.019945
	 D(2,9,1,14)      =         3.141027	     179.967567
	 D(2,9,10,5)      =         0.262007	      15.011870
	 D(2,9,10,6)      =        -2.879368	    -164.975605
	 D(3,1,9,10)      =         3.141462	     179.992491
	 D(3,11,4,17)     =         3.140700	     179.948827
	 D(4,2,9,10)      =        -3.141485	    -179.993820
	 D(4,11,3,16)     =         3.140472	     179.935781
	 D(5,7,12,8)      =         0.000170	       0.009716
	 D(5,7,12,22)     =         3.140769	     179.952808
	 D(5,10,6,8)      =         0.000428	       0.024547
	 D(5,10,6,19)     =         3.141133	     179.973638
	 D(6,8,12,7)      =         0.000909	       0.052072
	 D(6,8,12,22)     =        -3.139691	    -179.891017
	 D(6,10,5,7)      =         0.000609	       0.034905
	 D(6,10,5,18)     =         3.141022	     179.967322
	 D(7,5,10,9)      =        -3.140765	    -179.952588
	 D(7,12,8,21)     =         3.141575	     179.999005
	 D(8,6,10,9)      =        -3.141383	    -179.987962
	 D(8,12,7,20)     =         3.139652	     179.888794
	 D(9,1,3,11)      =         0.000348	       0.019955
	 D(9,1,3,16)      =        -3.140471	    -179.935743
	 D(9,2,4,11)      =        -0.000301	      -0.017270
	 D(9,2,4,17)      =        -3.140734	    -179.950778
	 D(9,10,5,18)     =        -0.000352	      -0.020171
	 D(9,10,6,19)     =        -0.000678	      -0.038871
	 D(10,5,7,12)     =        -0.000924	      -0.052968
	 D(10,5,7,20)     =        -3.140234	    -179.922135
	 D(10,6,8,12)     =        -0.001190	      -0.068205
	 D(10,6,8,21)     =         3.141405	     179.989227
	 D(10,9,1,14)     =        -0.000349	      -0.019997
	 D(10,9,2,15)     =        -0.000152	      -0.008685
	 D(11,3,1,14)     =        -3.141030	    -179.967773
	 D(11,4,2,15)     =         3.141546	     179.997347
	 D(12,7,5,18)     =        -3.141358	    -179.986582
	 D(12,8,6,19)     =         3.141275	     179.981778
	 D(13,11,3,16)    =        -0.000207	      -0.011889
	 D(13,11,4,17)    =        -0.001806	      -0.103475
	 D(14,1,3,16)     =         0.001336	       0.076530
	 D(15,2,4,17)     =         0.001114	       0.063839
	 D(18,5,7,20)     =         0.002518	       0.144251
	 D(19,6,8,21)     =         0.000684	       0.039210
	 D(20,7,12,22)    =        -0.002934	      -0.168114
	 D(21,8,12,22)    =         0.000976	       0.055916

	Current energy   :      -553.6639137396

	Generating empirical Hessian (Schlegel '84) for each fragment.
	Adding user-defined constraint: Fragment 1; Coordinate 64:
		Value =    -2.879803; Fixed value    =    -2.879793
		Force =     0.000005; Force constant =     0.500000
	Removing off-diagonal coupling between coordinate 64 and others.
	Taking RFO optimization step.
	Going to follow RFO solution 1.
	Using RFO vector 1.

	Determining step-restricting scale parameter for RS-RFO.
	Maximum step size allowed    0.10000

	 Iter      |step|        alpha        rfo_root  
	------------------------------------------------
	    0     0.26939       1.00000           1
	    1     0.19996       6.32214           1
	    2     0.14555      20.47905           1
	    3     0.11526      40.80991           1
	    4     0.10269      55.82345           1
	    5     0.10011      59.69568           1
	    6     0.10000      59.86792           1
	------------------------------------------------
	Norm of target step-size    0.10000
	Projected energy change by RFO approximation:        -0.0101378205

	Back-transformation to cartesian coordinates...
	Could not converge backtransformation.
	Using first guess instead.

	--- Internal Coordinate Step in ANG or DEG, aJ/ANG or AJ/DEG ---
	 ---------------------------------------------------------------------------
	   Coordinate                Previous        Force       Change         New 
	   ----------                --------       ------       ------       ------
	    1 R(1,3)          =      1.394038    -0.191609    -0.011428     1.382610
	    2 R(1,9)          =      1.394891     0.172410     0.010227     1.405118
	    3 R(1,14)         =      1.087453    -0.054019    -0.003600     1.083853
	    4 R(2,4)          =      1.394521    -0.194537    -0.011619     1.382902
	    5 R(2,9)          =      1.394821     0.173568     0.010296     1.405117
	    6 R(2,15)         =      1.087302    -0.053465    -0.003559     1.083742
	    7 R(3,11)         =      1.394821     0.266153     0.016069     1.410890
	    8 R(3,16)         =      1.088972    -0.061751    -0.004131     1.084841
	    9 R(4,11)         =      1.395407     0.262769     0.015875     1.411282
	   10 R(4,17)         =      1.088424    -0.058960    -0.003941     1.084482
	   11 R(5,7)          =      1.387543    -0.195085    -0.011520     1.376023
	   12 R(5,10)         =      1.391750     0.214103     0.012826     1.404576
	   13 R(5,18)         =      1.085829    -0.069593    -0.004600     1.081230
	   14 R(6,8)          =      1.387632    -0.195597    -0.011552     1.376080
	   15 R(6,10)         =      1.391671     0.213812     0.012801     1.404472
	   16 R(6,19)         =      1.086323    -0.071904    -0.004761     1.081562
	   17 R(7,12)         =      1.340111     0.136365     0.007405     1.347516
	   18 R(7,20)         =      1.081641    -0.023676    -0.001564     1.080077
	   19 R(8,12)         =      1.340183     0.136493     0.007413     1.347596
	   20 R(8,21)         =      1.080743    -0.018783    -0.001236     1.079507
	   21 R(9,10)         =      1.446855    -0.153829    -0.009913     1.436942
	   22 R(11,13)        =      1.281373    -0.223664    -0.010748     1.270625
	   23 R(12,22)        =      1.018983    -0.090832    -0.005529     1.013454
	   24 B(1,3,11)       =    120.009056     0.000485     0.436473   120.445529
	   25 B(1,3,16)       =    118.552025     0.000222     0.233784   118.785809
	   26 B(1,9,2)        =    119.959722    -0.000747    -0.686565   119.273157
	   27 B(1,9,10)       =    120.053983     0.000356     0.327779   120.381762
	   28 B(2,4,11)       =    119.960108     0.000500     0.449411   120.409519
	   29 B(2,4,17)       =    118.592446     0.000212     0.224930   118.817376
	   30 B(2,9,10)       =    119.986294     0.000391     0.358787   120.345081
	   31 B(3,1,9)        =    120.031219     0.000518     0.444490   120.475709
	   32 B(3,1,14)       =    119.119344    -0.000389    -0.352030   118.767314
	   33 B(3,11,4)       =    119.994870    -0.001276    -1.087506   118.907364
	   34 B(3,11,13)      =    120.029973     0.000631     0.536998   120.566971
	   35 B(4,2,9)        =    120.045019     0.000520     0.443652   120.488671
	   36 B(4,2,15)       =    119.143974    -0.000398    -0.359296   118.784678
	   37 B(4,11,13)      =    119.975136     0.000645     0.550510   120.525646
	   38 B(5,7,12)       =    120.119592     0.000018     0.006677   120.126268
	   39 B(5,7,20)       =    123.850262    -0.000145    -0.136578   123.713684
	   40 B(5,10,6)       =    119.912278    -0.001446    -1.259354   118.652924
	   41 B(5,10,9)       =    120.035873     0.000735     0.640201   120.676074
	   42 B(6,8,12)       =    120.063589     0.000031     0.018129   120.081718
	   43 B(6,8,21)       =    123.887081    -0.000153    -0.143802   123.743279
	   44 B(6,10,9)       =    120.051848     0.000711     0.619153   120.671001
	   45 B(7,5,10)       =    118.753266     0.000800     0.713535   119.466801
	   46 B(7,5,18)       =    119.759117    -0.000616    -0.573264   119.185853
	   47 B(7,12,8)       =    122.347393    -0.000193    -0.183429   122.163964
	   48 B(7,12,22)      =    118.823183     0.000096     0.091503   118.914687
	   49 B(8,6,10)       =    118.803836     0.000789     0.704454   119.508290
	   50 B(8,6,19)       =    119.708477    -0.000604    -0.562326   119.146151
	   51 B(8,12,22)      =    118.829400     0.000097     0.091928   118.921328
	   52 B(9,1,14)       =    120.849435    -0.000129    -0.092531   120.756904
	   53 B(9,2,15)       =    120.811005    -0.000122    -0.084427   120.726578
	   54 B(10,5,18)      =    121.487583    -0.000184    -0.140237   121.347346
	   55 B(10,6,19)      =    121.487667    -0.000185    -0.142113   121.345554
	   56 B(11,3,16)      =    121.438903    -0.000707    -0.670263   120.768640
	   57 B(11,4,17)      =    121.447411    -0.000712    -0.674348   120.773063
	   58 B(12,7,20)      =    116.030027     0.000127     0.129841   116.159867
	   59 B(12,8,21)      =    116.049307     0.000122     0.125645   116.174951
	   60 D(1,3,11,4)     =     -0.018609    -0.000006    -0.031687    -0.050296
	   61 D(1,3,11,13)    =   -179.966279    -0.000006    -0.033721  -180.000000
	   62 D(1,9,2,4)      =      0.018608    -0.000007    -0.040668    -0.022060
	   63 D(1,9,2,15)     =   -179.996257     0.000014     0.073516  -179.922741
	   64 D(1,9,10,5)     =   -165.000570    -0.000010    -0.041872  -165.042441
	   65 D(1,9,10,6)     =     15.011955    -0.000013    -0.062446    14.949509
	   66 D(2,4,11,3)     =      0.017261    -0.000006    -0.031535    -0.014273
	   67 D(2,4,11,13)    =    179.964960    -0.000006    -0.030225   179.934735
	   68 D(2,9,1,3)      =     -0.019945    -0.000005    -0.022745    -0.042690
	   69 D(2,9,1,14)     =    179.967567     0.000017     0.088755   180.056322
	   70 D(2,9,10,5)     =     15.011870    -0.000013    -0.061193    14.950677
	   71 D(2,9,10,6)     =   -164.975605    -0.000016    -0.081767  -165.057373
	   72 D(3,1,9,10)     =    179.992491    -0.000007    -0.041990   179.950502
	   73 D(3,11,4,17)    =    179.948827    -0.000007    -0.037615   179.911212
	   74 D(4,2,9,10)     =   -179.993820    -0.000005    -0.021434  -180.015254
	   75 D(4,11,3,16)    =    179.935781    -0.000008    -0.040686   179.895095
	   76 D(5,7,12,8)     =      0.009716    -0.000001    -0.006046     0.003670
	   77 D(5,7,12,22)    =    179.952808    -0.000001    -0.003253   179.949555
	   78 D(5,10,6,8)     =      0.024547    -0.000002    -0.013852     0.010695
	   79 D(5,10,6,19)    =    179.973638     0.000012     0.061613   180.035252
	   80 D(6,8,12,7)     =      0.052072    -0.000001    -0.004136     0.047936
	   81 D(6,8,12,22)    =   -179.891017    -0.000001    -0.006929  -179.897946
	   82 D(6,10,5,7)     =      0.034905     0.000001     0.004483     0.039388
	   83 D(6,10,5,18)    =    179.967322     0.000015     0.078756   180.046078
	   84 D(7,5,10,9)     =   -179.952588    -0.000002    -0.015913  -179.968502
	   85 D(7,12,8,21)    =    179.999005    -0.000006    -0.030484   179.968521
	   86 D(8,6,10,9)     =   -179.987962     0.000001     0.006546  -179.981416
	   87 D(8,12,7,20)    =    179.888794    -0.000006    -0.033792   179.855002
	   88 D(9,1,3,11)     =      0.019955     0.000011     0.058940     0.078895
	   89 D(9,1,3,16)     =   -179.935743     0.000013     0.068176  -179.867567
	   90 D(9,2,4,11)     =     -0.017270     0.000013     0.067418     0.050148
	   91 D(9,2,4,17)     =   -179.950778     0.000014     0.073998  -179.876780
	   92 D(9,10,5,18)    =     -0.020171     0.000012     0.058359     0.038188
	   93 D(9,10,6,19)    =     -0.038871     0.000015     0.082011     0.043141
	   94 D(10,5,7,12)    =     -0.052968     0.000001     0.005657    -0.047311
	   95 D(10,5,7,20)    =   -179.922135     0.000007     0.035242  -179.886893
	   96 D(10,6,8,12)    =     -0.068205     0.000003     0.014126    -0.054078
	   97 D(10,6,8,21)    =    179.989227     0.000008     0.042405   180.031632
	   98 D(10,9,1,14)    =     -0.019997     0.000014     0.069510     0.049513
	   99 D(10,9,2,15)    =     -0.008685     0.000017     0.092750     0.084065
	  100 D(11,3,1,14)    =   -179.967773    -0.000010    -0.050397  -180.018170
	  101 D(11,4,2,15)    =    179.997347    -0.000009    -0.044612   179.952735
	  102 D(12,7,5,18)    =   -179.986582    -0.000013    -0.067274  -180.053856
	  103 D(12,8,6,19)    =    179.981778    -0.000012    -0.059869   179.921909
	  104 D(13,11,3,16)   =     -0.011889    -0.000008    -0.042003    -0.053891
	  105 D(13,11,4,17)   =     -0.103475    -0.000007    -0.036305    -0.139779
	  106 D(14,1,3,16)    =      0.076530    -0.000008    -0.041161     0.035368
	  107 D(15,2,4,17)    =      0.063839    -0.000007    -0.038032     0.025807
	  108 D(18,5,7,20)    =      0.144251    -0.000007    -0.037688     0.106563
	  109 D(19,6,8,21)    =      0.039210    -0.000006    -0.031590     0.007619
	  110 D(20,7,12,22)   =     -0.168114    -0.000006    -0.030999    -0.199113
	  111 D(21,8,12,22)   =      0.055916    -0.000006    -0.033277     0.022639
	 ---------------------------------------------------------------------------
	Successfully symmetrized geometry.
	 Forces used to impose fixed constraints are not included.
	  Forces zeroed: 64 

  ==> Convergence Check <==

  Measures of convergence in internal coordinates in au.
  Criteria marked as inactive (o), active & met (*), and active & unmet ( ).
  --------------------------------------------------------------------------------------------- ~
   Step     Total Energy     Delta E     MAX Force     RMS Force      MAX Disp      RMS Disp    ~
  --------------------------------------------------------------------------------------------- ~
    Convergence Criteria    1.00e-06 *    3.00e-04 *             o    1.20e-03 *             o  ~
  --------------------------------------------------------------------------------------------- ~
      1    -553.66391374   -5.54e+02      3.23e-02      9.75e-03 o    3.04e-02      9.49e-03 o  ~
  ---------------------------------------------------------------------------------------------

	Writing optimization data to binary file.
	Structure for next step:
	Cartesian Geometry (in Angstrom)
	    C    -1.3061259922   0.7397495761  -0.5569031666
	    C    -0.3105840210   0.1202123178   1.5655009372
	    C    -2.3768404725   1.3080220683   0.1081143901
	    C    -1.3785189561   0.6883179821   2.2357156394
	    C     1.7346600119  -1.3184415588   0.1352699515
	    C     1.0779287229  -0.1768919668  -1.8902573097
	    C     2.7911030472  -1.8699666061  -0.5526167257
	    C     2.1493147023  -0.7561789644  -2.5306903264
	    C    -0.2591069687   0.1380085408   0.1614395208
	    C     0.8522008028  -0.4529306299  -0.5318056798
	    C    -2.4323517197   1.2931311318   1.5178337487
	    N     2.9743304443  -1.5808409909  -1.8559332206
	    O    -3.4152444960   1.8146793073   2.1313459963
	    H    -1.2914245486   0.7662501121  -1.6403325900
	    H     0.4846728950  -0.3364509842   2.1430149082
	    H    -3.1711962526   1.7632838200  -0.4737924221
	    H    -1.3895828398   0.6610625011   3.3197990368
	    H     1.6015045791  -1.5615258442   1.1803713959
	    H     0.4262353758   0.4835542730  -2.4460299052
	    H     3.5089481736  -2.5440474996  -0.1089047450
	    H     2.3866911515  -0.5916314950  -3.5708404040
	    H     3.7588612162  -1.9966440289  -2.3445101854
			--------------------------
			 OPTKING Finished Execution 
			--------------------------

    Structure for next step:
    Molecular point group: c1
    Full point group: C1

    Geometry (in Angstrom), charge = 0, multiplicity = 1:

    C           -1.305468346801     0.739381426481    -0.557306944413
    C           -0.309926375610     0.119844168195     1.565097159373
    C           -2.376182827110     1.307653918706     0.107710612277
    C           -1.377861310680     0.687949832547     2.235311861575
    C            1.735317657235    -1.318809708418     0.134866173657
    C            1.078586368289    -0.177260116353    -1.890661087505
    C            2.791760692629    -1.870334755716    -0.553020503559
    C            2.149972347717    -0.756547114023    -2.531094104194
    C           -0.258449323338     0.137640391203     0.161035743009
    C            0.852858448150    -0.453298779492    -0.532209457587
    C           -2.431694074362     1.292762982230     1.517429970834
    N            2.974988089663    -1.581209140466    -1.856336998394
    O           -3.414586850583     1.814311157673     2.130942218473
    H           -1.290766903237     0.765881962488    -1.640736367882
    H            0.485330540373    -0.336819133785     2.142611130356
    H           -3.170538607233     1.762915670398    -0.474196199983
    H           -1.388925194437     0.660694351539     3.319395258940
    H            1.602162224478    -1.561893993738     1.179967618090
    H            0.426893021216     0.483186123386    -2.446433683046
    H            3.509605818999    -2.544415649155    -0.109308522827
    H            2.387348796874    -0.591999644574    -3.571244181849
    H            3.759518861606    -1.997012178465    -2.344913963276

gradient() will perform analytic gradient computation.

*** tstart() called on gpu-1-6.local
*** at Sun Nov 12 16:17:59 2017

    SCF Algorithm Type (re)set to DF.

*** tstart() called on gpu-1-6.local
*** at Sun Nov 12 16:17:59 2017

   => Loading Basis Set <=

    Name: AUG-CC-PVTZ
    Role: ORBITAL
    Keyword: BASIS
    atoms 1-11  entry C          line   221 file /cbio/jclab/home/chayas/anaconda/envs/py35/share/psi4/basis/aug-cc-pvtz.gbs 
    atoms 12    entry N          line   267 file /cbio/jclab/home/chayas/anaconda/envs/py35/share/psi4/basis/aug-cc-pvtz.gbs 
    atoms 13    entry O          line   313 file /cbio/jclab/home/chayas/anaconda/envs/py35/share/psi4/basis/aug-cc-pvtz.gbs 
    atoms 14-22 entry H          line    34 file /cbio/jclab/home/chayas/anaconda/envs/py35/share/psi4/basis/aug-cc-pvtz.gbs 


         ---------------------------------------------------------
                                   SCF
            by Justin Turney, Rob Parrish, and Andy Simmonett
                              RHF Reference
                        8 Threads,   4768 MiB Core
         ---------------------------------------------------------

  ==> Geometry <==

    Molecular point group: c1
    Full point group: C1

    Geometry (in Angstrom), charge = 0, multiplicity = 1:

       Center              X                  Y                   Z               Mass       
    ------------   -----------------  -----------------  -----------------  -----------------
           C         -1.305468346801     0.739381426481    -0.557306944413    12.000000000000
           C         -0.309926375610     0.119844168195     1.565097159373    12.000000000000
           C         -2.376182827110     1.307653918706     0.107710612277    12.000000000000
           C         -1.377861310680     0.687949832547     2.235311861575    12.000000000000
           C          1.735317657235    -1.318809708418     0.134866173657    12.000000000000
           C          1.078586368289    -0.177260116353    -1.890661087505    12.000000000000
           C          2.791760692629    -1.870334755716    -0.553020503559    12.000000000000
           C          2.149972347717    -0.756547114023    -2.531094104194    12.000000000000
           C         -0.258449323338     0.137640391203     0.161035743009    12.000000000000
           C          0.852858448150    -0.453298779492    -0.532209457587    12.000000000000
           C         -2.431694074362     1.292762982230     1.517429970834    12.000000000000
           N          2.974988089663    -1.581209140466    -1.856336998394    14.003074004780
           O         -3.414586850583     1.814311157673     2.130942218473    15.994914619560
           H         -1.290766903237     0.765881962488    -1.640736367882     1.007825032070
           H          0.485330540373    -0.336819133785     2.142611130356     1.007825032070
           H         -3.170538607233     1.762915670398    -0.474196199983     1.007825032070
           H         -1.388925194437     0.660694351539     3.319395258940     1.007825032070
           H          1.602162224478    -1.561893993738     1.179967618090     1.007825032070
           H          0.426893021216     0.483186123386    -2.446433683046     1.007825032070
           H          3.509605818999    -2.544415649155    -0.109308522827     1.007825032070
           H          2.387348796874    -0.591999644574    -3.571244181849     1.007825032070
           H          3.759518861606    -1.997012178465    -2.344913963276     1.007825032070

  Running in c1 symmetry.

  Rotational constants: A =      0.09576  B =      0.01378  C =      0.01210 [cm^-1]
  Rotational constants: A =   2870.82094  B =    413.16763  C =    362.73363 [MHz]
  Nuclear repulsion =  700.718877111615029

  Charge       = 0
  Multiplicity = 1
  Electrons    = 90
  Nalpha       = 45
  Nbeta        = 45

  ==> Algorithm <==

  SCF Algorithm Type is DF.
  DIIS enabled.
  MOM disabled.
  Fractional occupation disabled.
  Guess Type is READ.
  Energy threshold   = 1.00e-10
  Density threshold  = 1.00e-10
  Integral threshold = 0.00e+00

  ==> Primary Basis <==

  Basis Set: AUG-CC-PVTZ
    Blend: AUG-CC-PVTZ
    Number of shells: 263
    Number of basis function: 805
    Number of Cartesian functions: 940
    Spherical Harmonics?: true
    Max angular momentum: 3

   => Loading Basis Set <=

    Name: (AUG-CC-PVTZ AUX)
    Role: JKFIT
    Keyword: DF_BASIS_SCF
    atoms 1-11  entry C          line   161 file /cbio/jclab/home/chayas/anaconda/envs/py35/share/psi4/basis/aug-cc-pvtz-jkfit.gbs 
    atoms 12    entry N          line   223 file /cbio/jclab/home/chayas/anaconda/envs/py35/share/psi4/basis/aug-cc-pvtz-jkfit.gbs 
    atoms 13    entry O          line   285 file /cbio/jclab/home/chayas/anaconda/envs/py35/share/psi4/basis/aug-cc-pvtz-jkfit.gbs 
    atoms 14-22 entry H          line    69 file /cbio/jclab/home/chayas/anaconda/envs/py35/share/psi4/basis/aug-cc-pvtz-jkfit.gbs 

  Reading orbitals from file 180, no projection.

  ==> Pre-Iterations <==

   -------------------------------------------------------
    Irrep   Nso     Nmo     Nalpha   Nbeta   Ndocc  Nsocc
   -------------------------------------------------------
     A        805     805       0       0       0       0
   -------------------------------------------------------
    Total     805     805      45      45      45       0
   -------------------------------------------------------

  ==> Integral Setup <==

  ==> DFJK: Density-Fitted J/K Matrices <==

    J tasked:                  Yes
    K tasked:                  Yes
    wK tasked:                  No
    OpenMP threads:              8
    Integrals threads:           8
    Memory (MB):              3576
    Algorithm:                Disk
    Integral Cache:           NONE
    Schwarz Cutoff:          1E-12
    Fitting Condition:       1E-12

   => Auxiliary Basis Set <=

  Basis Set: (AUG-CC-PVTZ AUX)
    Blend: AUG-CC-PVTZ-JKFIT
    Number of shells: 516
    Number of basis function: 1766
    Number of Cartesian functions: 2198
    Spherical Harmonics?: true
    Max angular momentum: 4

  Minimum eigenvalue in the overlap matrix is 6.1790642974E-07.
  Using Symmetric Orthogonalization.

  SCF Guess: Orbitals guess was supplied from a previous computation.

  ==> Iterations <==

                           Total Energy        Delta E     RMS |[F,P]|

   @DF-RHF iter   0:  -551.30392389996655   -5.51304e+02   5.25824e-04 
   @DF-RHF iter   1:  -551.22816847976412    7.57554e-02   9.17259e-05 
   @DF-RHF iter   2:  -551.22855461538484   -3.86136e-04   5.95833e-05 DIIS
   @DF-RHF iter   3:  -551.22874299777595   -1.88382e-04   1.32902e-05 DIIS
   @DF-RHF iter   4:  -551.22877181296451   -2.88152e-05   7.89555e-06 DIIS
   @DF-RHF iter   5:  -551.22878877322137   -1.69603e-05   3.06766e-06 DIIS
   @DF-RHF iter   6:  -551.22879463884192   -5.86562e-06   1.76375e-06 DIIS
   @DF-RHF iter   7:  -551.22879559878959   -9.59948e-07   5.14421e-07 DIIS
   @DF-RHF iter   8:  -551.22879563460526   -3.58157e-08   1.61304e-07 DIIS
   @DF-RHF iter   9:  -551.22879563762649   -3.02123e-09   5.30173e-08 DIIS
   @DF-RHF iter  10:  -551.22879563802644   -3.99950e-10   2.67204e-08 DIIS
   @DF-RHF iter  11:  -551.22879563807464   -4.82032e-11   9.24194e-09 DIIS
   @DF-RHF iter  12:  -551.22879563810113   -2.64890e-11   4.72853e-09 DIIS
   @DF-RHF iter  13:  -551.22879563808556    1.55751e-11   1.46030e-09 DIIS
   @DF-RHF iter  14:  -551.22879563808533    2.27374e-13   4.69252e-10 DIIS
   @DF-RHF iter  15:  -551.22879563809158   -6.25278e-12   2.20012e-10 DIIS
   @DF-RHF iter  16:  -551.22879563811591   -2.43290e-11   1.08426e-10 DIIS
   @DF-RHF iter  17:  -551.22879563807237    4.35421e-11   3.80198e-11 DIIS

  ==> Post-Iterations <==

    Orbital Energies (a.u.)
    -----------------------

    Doubly Occupied:                                                      

       1A    -20.450263     2A    -15.681229     3A    -11.345165  
       4A    -11.345121     5A    -11.301488     6A    -11.275037  
       7A    -11.275000     8A    -11.259773     9A    -11.233416  
      10A    -11.233381    11A    -11.219810    12A    -11.195659  
      13A    -11.195626    14A     -1.366814    15A     -1.275670  
      16A     -1.173386    17A     -1.108691    18A     -1.101434  
      19A     -1.004259    20A     -0.992140    21A     -0.926536  
      22A     -0.898782    23A     -0.825918    24A     -0.815883  
      25A     -0.789245    26A     -0.722613    27A     -0.717067  
      28A     -0.693653    29A     -0.666062    30A     -0.641353  
      31A     -0.618618    32A     -0.615513    33A     -0.608514  
      34A     -0.585125    35A     -0.560134    36A     -0.541487  
      37A     -0.521811    38A     -0.493354    39A     -0.486162  
      40A     -0.470122    41A     -0.414826    42A     -0.392181  
      43A     -0.356759    44A     -0.332901    45A     -0.238690  

    Virtual:                                                              

      46A     -0.003963    47A      0.013580    48A      0.025230  
      49A      0.025533    50A      0.038472    51A      0.044014  
      52A      0.045178    53A      0.059408    54A      0.060010  
      55A      0.062295    56A      0.063998    57A      0.069220  
      58A      0.069489    59A      0.074581    60A      0.085242  
      61A      0.095343    62A      0.096806    63A      0.101243  
      64A      0.109571    65A      0.110832    66A      0.119304  
      67A      0.119978    68A      0.122168    69A      0.127896  
      70A      0.128280    71A      0.135925    72A      0.138590  
      73A      0.139798    74A      0.146836    75A      0.150093  
      76A      0.151235    77A      0.159268    78A      0.163358  
      79A      0.163553    80A      0.169749    81A      0.171478  
      82A      0.176510    83A      0.180709    84A      0.182016  
      85A      0.183275    86A      0.190283    87A      0.195669  
      88A      0.198238    89A      0.203442    90A      0.207675  
      91A      0.215342    92A      0.220047    93A      0.222421  
      94A      0.230578    95A      0.232317    96A      0.235850  
      97A      0.239715    98A      0.247836    99A      0.250938  
     100A      0.253513   101A      0.257164   102A      0.260851  
     103A      0.268209   104A      0.274112   105A      0.276184  
     106A      0.284106   107A      0.286502   108A      0.290266  
     109A      0.295304   110A      0.298634   111A      0.301247  
     112A      0.305027   113A      0.311824   114A      0.312565  
     115A      0.316977   116A      0.323603   117A      0.328928  
     118A      0.333347   119A      0.339583   120A      0.340801  
     121A      0.347822   122A      0.348849   123A      0.351823  
     124A      0.352644   125A      0.356587   126A      0.358130  
     127A      0.367646   128A      0.372796   129A      0.375435  
     130A      0.381296   131A      0.387808   132A      0.390792  
     133A      0.397971   134A      0.400364   135A      0.406133  
     136A      0.407392   137A      0.415782   138A      0.419002  
     139A      0.423910   140A      0.428547   141A      0.436510  
     142A      0.441004   143A      0.444008   144A      0.447057  
     145A      0.449812   146A      0.450080   147A      0.454513  
     148A      0.460406   149A      0.463814   150A      0.467873  
     151A      0.468621   152A      0.475171   153A      0.476953  
     154A      0.478858   155A      0.484007   156A      0.486480  
     157A      0.490128   158A      0.493052   159A      0.497373  
     160A      0.500950   161A      0.503213   162A      0.508728  
     163A      0.512730   164A      0.517865   165A      0.523675  
     166A      0.526520   167A      0.527169   168A      0.532252  
     169A      0.541067   170A      0.544984   171A      0.548818  
     172A      0.550698   173A      0.556536   174A      0.562695  
     175A      0.563292   176A      0.566897   177A      0.567916  
     178A      0.580077   179A      0.586846   180A      0.602970  
     181A      0.606107   182A      0.606986   183A      0.615643  
     184A      0.619585   185A      0.622723   186A      0.624819  
     187A      0.638518   188A      0.643665   189A      0.645801  
     190A      0.654037   191A      0.658894   192A      0.663001  
     193A      0.663317   194A      0.680860   195A      0.683538  
     196A      0.687151   197A      0.690745   198A      0.701165  
     199A      0.701819   200A      0.705295   201A      0.710394  
     202A      0.714866   203A      0.718582   204A      0.719131  
     205A      0.734921   206A      0.739047   207A      0.742753  
     208A      0.747514   209A      0.759368   210A      0.764614  
     211A      0.769219   212A      0.774334   213A      0.775062  
     214A      0.781733   215A      0.790559   216A      0.791687  
     217A      0.798052   218A      0.805893   219A      0.812991  
     220A      0.828256   221A      0.829219   222A      0.833030  
     223A      0.846956   224A      0.847953   225A      0.860173  
     226A      0.861586   227A      0.864612   228A      0.867673  
     229A      0.872365   230A      0.874828   231A      0.883316  
     232A      0.890820   233A      0.897461   234A      0.899740  
     235A      0.903211   236A      0.909155   237A      0.910584  
     238A      0.914113   239A      0.917250   240A      0.922819  
     241A      0.924358   242A      0.929866   243A      0.934136  
     244A      0.934730   245A      0.941052   246A      0.955457  
     247A      0.960629   248A      0.964027   249A      0.965995  
     250A      0.969078   251A      0.973081   252A      0.979903  
     253A      0.984936   254A      0.985044   255A      0.991141  
     256A      0.994770   257A      0.996900   258A      1.002414  
     259A      1.009767   260A      1.011374   261A      1.020333  
     262A      1.020863   263A      1.022174   264A      1.023511  
     265A      1.030213   266A      1.032381   267A      1.039105  
     268A      1.045178   269A      1.046443   270A      1.054386  
     271A      1.060880   272A      1.061461   273A      1.073486  
     274A      1.075783   275A      1.082814   276A      1.096435  
     277A      1.098347   278A      1.107044   279A      1.107880  
     280A      1.115474   281A      1.116090   282A      1.125264  
     283A      1.131255   284A      1.131482   285A      1.136739  
     286A      1.144991   287A      1.147327   288A      1.153237  
     289A      1.153714   290A      1.161842   291A      1.163207  
     292A      1.169457   293A      1.173333   294A      1.182878  
     295A      1.184142   296A      1.186551   297A      1.196305  
     298A      1.201945   299A      1.206156   300A      1.210190  
     301A      1.213496   302A      1.214556   303A      1.215276  
     304A      1.225693   305A      1.228845   306A      1.235463  
     307A      1.240423   308A      1.241293   309A      1.251314  
     310A      1.253186   311A      1.256637   312A      1.264929  
     313A      1.272901   314A      1.276904   315A      1.287090  
     316A      1.296641   317A      1.297659   318A      1.302571  
     319A      1.308316   320A      1.311531   321A      1.324646  
[...]
	 B(3,11,13)       =         2.138745	     122.541078
	 B(4,2,9)         =         2.130234	     122.053436
	 B(4,2,15)        =         2.064379	     118.280192
	 B(4,11,13)       =         2.138713	     122.539255
	 B(5,7,12)        =         2.109316	     120.854907
	 B(5,7,20)        =         2.141201	     122.681795
	 B(5,10,6)        =         1.989412	     113.984884
	 B(5,10,9)        =         2.146966	     123.012085
	 B(6,8,12)        =         2.109240	     120.850552
	 B(6,8,21)        =         2.141397	     122.693004
	 B(6,10,9)        =         2.146001	     122.956817
	 B(7,5,10)        =         2.131598	     122.131573
	 B(7,5,18)        =         2.043638	     117.091810
	 B(7,12,8)        =         2.094953	     120.031949
	 B(7,12,22)       =         2.094088	     119.982433
	 B(8,6,10)        =         2.131634	     122.133651
	 B(8,6,19)        =         2.043332	     117.074303
	 B(8,12,22)       =         2.094103	     119.983245
	 B(9,1,14)        =         2.088446	     119.659118
	 B(9,2,15)        =         2.087904	     119.628088
	 B(10,5,18)       =         2.107714	     120.763102
	 B(10,6,19)       =         2.107853	     120.771064
	 B(11,3,16)       =         2.040729	     116.925166
	 B(11,4,17)       =         2.040924	     116.936304
	 B(12,7,20)       =         2.032583	     116.458404
	 B(12,8,21)       =         2.032535	     116.455658
	 D(1,3,11,4)      =        -0.016443	      -0.942099
	 D(1,3,11,13)     =         3.129192	     179.289483
	 D(1,9,2,4)       =        -0.023574	      -1.350716
	 D(1,9,2,15)      =        -3.125201	    -179.060822
	 D(1,9,10,5)      =        -2.887002	    -165.413046
	 D(1,9,10,6)      =         0.208822	      11.964623
	 D(2,4,11,3)      =        -0.003135	      -0.179624
	 D(2,4,11,13)     =         3.134416	     179.588799
	 D(2,9,1,3)       =         0.003868	       0.221598
	 D(2,9,1,14)      =        -3.102999	    -177.788766
	 D(2,9,10,5)      =         0.196544	      11.261157
	 D(2,9,10,6)      =        -2.990817	    -171.361174
	 D(3,1,9,10)      =         3.090121	     177.050890
	 D(3,11,4,17)     =         3.134126	     179.572181
	 D(4,2,9,10)      =        -3.109870	    -178.182404
	 D(4,11,3,16)     =         3.114129	     178.426429
	 D(5,7,12,8)      =        -0.010240	      -0.586714
	 D(5,7,12,22)     =         3.141135	     179.973772
	 D(5,10,6,8)      =        -0.022404	      -1.283682
	 D(5,10,6,19)     =        -3.134059	    -179.568357
	 D(6,8,12,7)      =         0.003908	       0.223931
	 D(6,8,12,22)     =         3.135719	     179.663441
	 D(6,10,5,7)      =         0.016095	       0.922188
	 D(6,10,5,18)     =        -3.101472	    -177.701273
	 D(7,5,10,9)      =         3.115657	     178.514022
	 D(7,12,8,21)     =         3.140019	     179.909860
	 D(8,6,10,9)      =        -3.121993	    -178.877024
	 D(8,12,7,20)     =         3.117674	     178.629571
	 D(9,1,3,11)      =         0.016084	       0.921573
	 D(9,1,3,16)      =        -3.114055	    -178.422181
	 D(9,2,4,11)      =         0.023329	       1.336629
	 D(9,2,4,17)      =        -3.113762	    -178.405418
	 D(9,10,5,18)     =        -0.001910	      -0.109439
	 D(9,10,6,19)     =         0.049538	       2.838301
	 D(10,5,7,12)     =        -0.000576	      -0.033015
	 D(10,5,7,20)     =        -3.127620	    -179.199410
	 D(10,6,8,12)     =         0.013326	       0.763544
	 D(10,6,8,21)     =        -3.122435	    -178.902343
	 D(10,9,1,14)     =        -0.016746	      -0.959475
	 D(10,9,2,15)     =         0.071689	       4.107490
	 D(11,3,1,14)     =         3.123412	     178.958317
	 D(11,4,2,15)     =         3.125472	     179.076364
	 D(12,7,5,18)     =         3.117828	     178.638369
	 D(12,8,6,19)     =         3.126030	     179.108338
	 D(13,11,3,16)    =        -0.023422	      -1.341990
	 D(13,11,4,17)    =        -0.011509	      -0.659396
	 D(14,1,3,16)     =        -0.006727	      -0.385437
	 D(15,2,4,17)     =        -0.011618	      -0.665683
	 D(18,5,7,20)     =        -0.009216	      -0.528026
	 D(19,6,8,21)     =        -0.009731	      -0.557549
	 D(20,7,12,22)    =        -0.014136	      -0.809944
	 D(21,8,12,22)    =        -0.011356	      -0.650630

	Current energy   :      -553.6823990905

	Energy change for the previous step:
		Projected    :         0.0000011117
		Actual       :         0.0000010888

	Performing BFGS update.
	Previous computed or guess Hessian on step 1.
	Steps to be used in Hessian update: 8 7
	Adding user-defined constraint: Fragment 1; Coordinate 64:
		Value =    -2.887002; Fixed value    =    -2.879790
		Force =     0.005049; Force constant =     0.700000
	Removing off-diagonal coupling between coordinate 64 and others.
	Taking RFO optimization step.
	Going to follow RFO solution 1.
	Rejecting RFO root 1 because normalization gives large value.
	Using RFO vector 2.
	Norm of target step-size    0.00277
	Projected energy change by RFO approximation:        -0.0000006643

	Back-transformation to cartesian coordinates...
	Could not converge backtransformation.
	Using first guess instead.

	--- Internal Coordinate Step in ANG or DEG, aJ/ANG or AJ/DEG ---
	 ---------------------------------------------------------------------------
	   Coordinate                Previous        Force       Change         New 
	   ----------                --------       ------       ------       ------
	    1 R(1,3)          =      1.357103    -0.000030    -0.000004     1.357099
	    2 R(1,9)          =      1.425274    -0.000126    -0.000012     1.425262
	    3 R(1,14)         =      1.079710     0.000061     0.000008     1.079718
	    4 R(2,4)          =      1.357098     0.000014    -0.000001     1.357097
	    5 R(2,9)          =      1.425365    -0.000235    -0.000013     1.425351
	    6 R(2,15)         =      1.079843     0.000055     0.000006     1.079849
	    7 R(3,11)         =      1.450132    -0.000183    -0.000015     1.450117
	    8 R(3,16)         =      1.080093    -0.000006     0.000003     1.080096
	    9 R(4,11)         =      1.450167    -0.000101    -0.000010     1.450157
	   10 R(4,17)         =      1.080073    -0.000018     0.000001     1.080074
	   11 R(5,7)          =      1.356395    -0.000027    -0.000011     1.356384
	   12 R(5,10)         =      1.429704    -0.000139    -0.000006     1.429698
	   13 R(5,18)         =      1.076307     0.000072     0.000010     1.076317
	   14 R(6,8)          =      1.356343     0.000038    -0.000006     1.356337
	   15 R(6,10)         =      1.429823    -0.000311    -0.000022     1.429801
	   16 R(6,19)         =      1.076371     0.000090     0.000015     1.076387
	   17 R(7,12)         =      1.360503    -0.000152    -0.000002     1.360501
	   18 R(7,20)         =      1.077607     0.000006     0.000001     1.077607
	   19 R(8,12)         =      1.360482    -0.000069     0.000003     1.360485
	   20 R(8,21)         =      1.077611    -0.000007    -0.000001     1.077611
	   21 R(9,10)         =      1.395755    -0.000459    -0.000037     1.395718
	   22 R(11,13)        =      1.239566     0.000074     0.000004     1.239570
	   23 R(12,22)        =      1.004321    -0.000005     0.000001     1.004322
	   24 B(1,3,11)       =    122.158034    -0.000000     0.000746   122.158781
	   25 B(1,3,16)       =    120.913738     0.000000    -0.001464   120.912273
	   26 B(1,9,2)        =    116.683914     0.000001     0.002012   116.685927
	   27 B(1,9,10)       =    121.654018    -0.000001    -0.001830   121.652189
	   28 B(2,4,11)       =    122.132022    -0.000001     0.000006   122.132028
	   29 B(2,4,17)       =    120.931201     0.000001    -0.000942   120.930259
	   30 B(2,9,10)       =    121.583725    -0.000000    -0.000290   121.583435
	   31 B(3,1,9)        =    122.033585    -0.000001    -0.001374   122.032210
	   32 B(3,1,14)       =    118.278399     0.000000    -0.000853   118.277546
	   33 B(3,11,4)       =    114.919243     0.000001     0.000483   114.919726
	   34 B(3,11,13)      =    122.541078    -0.000000    -0.000179   122.540898
	   35 B(4,2,9)        =    122.053436    -0.000000    -0.001308   122.052128
	   36 B(4,2,15)       =    118.280192     0.000000    -0.001192   118.279000
	   37 B(4,11,13)      =    122.539255    -0.000000    -0.000043   122.539212
	   38 B(5,7,12)       =    120.854907     0.000000    -0.000123   120.854784
	   39 B(5,7,20)       =    122.681795    -0.000001    -0.000285   122.681510
	   40 B(5,10,6)       =    113.984884     0.000001     0.002328   113.987212
	   41 B(5,10,9)       =    123.012085    -0.000001    -0.000997   123.011088
	   42 B(6,8,12)       =    120.850552     0.000000     0.000546   120.851098
	   43 B(6,8,21)       =    122.693004    -0.000001    -0.000272   122.692732
	   44 B(6,10,9)       =    122.956817    -0.000000    -0.001301   122.955516
	   45 B(7,5,10)       =    122.131573    -0.000000    -0.001096   122.130476
	   46 B(7,5,18)       =    117.091810    -0.000001    -0.001136   117.090673
	   47 B(7,12,8)       =    120.031949    -0.000001    -0.000034   120.031915
	   48 B(7,12,22)      =    119.982433     0.000000    -0.000048   119.982385
	   49 B(8,6,10)       =    122.133651    -0.000000    -0.001677   122.131974
	   50 B(8,6,19)       =    117.074303    -0.000001    -0.001815   117.072488
	   51 B(8,12,22)      =    119.983245     0.000000    -0.000095   119.983150
	   52 B(9,1,14)       =    119.659118     0.000001     0.003106   119.662225
	   53 B(9,2,15)       =    119.628088     0.000000     0.001999   119.630087
	   54 B(10,5,18)      =    120.763102     0.000001     0.002168   120.765270
	   55 B(10,6,19)      =    120.771064     0.000002     0.003717   120.774781
	   56 B(11,3,16)      =    116.925166    -0.000000     0.000658   116.925824
	   57 B(11,4,17)      =    116.936304    -0.000000     0.000937   116.937241
	   58 B(12,7,20)      =    116.458404     0.000001     0.000196   116.458601
	   59 B(12,8,21)      =    116.455658     0.000000    -0.000247   116.455411
	   60 D(1,3,11,4)     =     -0.942099     0.000000     0.058254    -0.883844
	   61 D(1,3,11,13)    =    179.289483    -0.000000    -0.029626   179.259856
	   62 D(1,9,2,4)      =     -1.350716    -0.000001     0.007684    -1.343032
	   63 D(1,9,2,15)     =   -179.060822    -0.000001     0.022642  -179.038180
	   64 D(1,9,10,5)     =   -165.413046     0.000005     0.001485  -165.411561
	   65 D(1,9,10,6)     =     11.964623     0.000003     0.002394    11.967016
	   66 D(2,4,11,3)     =     -0.179624    -0.000000    -0.049002    -0.228627
	   67 D(2,4,11,13)    =    179.588799     0.000000     0.038877   179.627676
	   68 D(2,9,1,3)      =      0.221598     0.000001     0.001644     0.223243
	   69 D(2,9,1,14)     =   -177.788766     0.000000    -0.028830  -177.817596
	   70 D(2,9,10,5)     =     11.261157     0.000003    -0.000716    11.260441
	   71 D(2,9,10,6)     =   -171.361174     0.000001     0.000193  -171.360981
	   72 D(3,1,9,10)     =    177.050890    -0.000001    -0.000520   177.050370
	   73 D(3,11,4,17)    =    179.572181    -0.000000    -0.048577   179.523604
	   74 D(4,2,9,10)     =   -178.182404     0.000001     0.009899  -178.172505
	   75 D(4,11,3,16)    =    178.426429     0.000000     0.052069   178.478497
	   76 D(5,7,12,8)     =     -0.586714    -0.000000     0.004634    -0.582080
	   77 D(5,7,12,22)    =    179.973772     0.000000     0.025106   179.998877
	   78 D(5,10,6,8)     =     -1.283682    -0.000001    -0.002852    -1.286534
	   79 D(5,10,6,19)    =   -179.568357    -0.000001    -0.012059  -179.580416
	   80 D(6,8,12,7)     =      0.223931     0.000000     0.004036     0.227967
	   81 D(6,8,12,22)    =    179.663441    -0.000000    -0.016435   179.647006
	   82 D(6,10,5,7)     =      0.922188     0.000001     0.011502     0.933691
	   83 D(6,10,5,18)    =   -177.701273     0.000001     0.014787  -177.686486
	   84 D(7,5,10,9)     =    178.514022    -0.000001     0.012258   178.526280
	   85 D(7,12,8,21)    =    179.909860     0.000000     0.009470   179.919330
	   86 D(8,6,10,9)     =   -178.877024     0.000001    -0.003615  -178.880639
	   87 D(8,12,7,20)    =    178.629571    -0.000000    -0.012131   178.617439
	   88 D(9,1,3,11)     =      0.921573    -0.000001    -0.036573     0.885000
	   89 D(9,1,3,16)     =   -178.422181    -0.000001    -0.030158  -178.452339
	   90 D(9,2,4,11)     =      1.336629     0.000000     0.017926     1.354555
	   91 D(9,2,4,17)     =   -178.405418     0.000000     0.017480  -178.387939
	   92 D(9,10,5,18)    =     -0.109439    -0.000001     0.015542    -0.093896
	   93 D(9,10,6,19)    =      2.838301     0.000001    -0.012822     2.825479
	   94 D(10,5,7,12)    =     -0.033015    -0.000001    -0.012774    -0.045788
	   95 D(10,5,7,20)    =   -179.199410    -0.000000     0.005055  -179.194355
	   96 D(10,6,8,12)    =      0.763544     0.000000    -0.004694     0.758851
	   97 D(10,6,8,21)    =   -178.902343     0.000000    -0.010474  -178.912817
	   98 D(10,9,1,14)    =     -0.959475    -0.000001    -0.030994    -0.990469
	   99 D(10,9,2,15)    =      4.107490     0.000001     0.024857     4.132347
	  100 D(11,3,1,14)    =    178.958317    -0.000000    -0.006427   178.951889
	  101 D(11,4,2,15)    =    179.076364     0.000000     0.003232   179.079596
	  102 D(12,7,5,18)    =    178.638369    -0.000000    -0.015900   178.622469
	  103 D(12,8,6,19)    =    179.108338     0.000000     0.004281   179.112619
	  104 D(13,11,3,16)   =     -1.341990    -0.000000    -0.035812    -1.377802
	  105 D(13,11,4,17)   =     -0.659396     0.000000     0.039302    -0.620094
	  106 D(14,1,3,16)    =     -0.385437    -0.000000    -0.000013    -0.385450
	  107 D(15,2,4,17)    =     -0.665683     0.000000     0.002786    -0.662898
	  108 D(18,5,7,20)    =     -0.528026    -0.000000     0.001928    -0.526098
	  109 D(19,6,8,21)    =     -0.557549     0.000000    -0.001499    -0.559048
	  110 D(20,7,12,22)   =     -0.809944     0.000000     0.008340    -0.801603
	  111 D(21,8,12,22)   =     -0.650630     0.000000    -0.011002    -0.661632
	 ---------------------------------------------------------------------------
	Successfully symmetrized geometry.
	 Forces used to impose fixed constraints are not included.
	  Forces zeroed: 64 

  ==> Convergence Check <==

  Measures of convergence in internal coordinates in au.
  Criteria marked as inactive (o), active & met (*), and active & unmet ( ).
  ---------------------------------------------------------------------------------------------
   Step     Total Energy     Delta E     MAX Force     RMS Force      MAX Disp      RMS Disp   
  ---------------------------------------------------------------------------------------------
    Convergence Criteria    1.00e-06 *    3.00e-04 *             o    1.20e-03 *             o
  ---------------------------------------------------------------------------------------------
      9    -553.68239909    1.09e-06      1.81e-04 *    3.53e-05 o    1.02e-03 *    2.63e-04 o  ~
  ---------------------------------------------------------------------------------------------


  **** Optimization is complete! (in 9 steps) ****

  ==> Optimization Summary <==

  Measures of convergence in internal coordinates in au.
  --------------------------------------------------------------------------------------------------------------- ~
   Step         Total Energy             Delta E       MAX Force       RMS Force        MAX Disp        RMS Disp  ~
  --------------------------------------------------------------------------------------------------------------- ~
      1    -553.663913739607   -553.663913739607      0.03230515      0.00975071      0.03036663      0.00948591  ~
      2    -553.672516366914     -0.008602627307      0.02110345      0.00673305      0.02917275      0.00948516  ~
      3    -553.678156317694     -0.005639950780      0.01250395      0.00405154      0.02791889      0.00948371  ~
      4    -553.681191868539     -0.003035550845      0.00556755      0.00180985      0.03260978      0.00949067  ~
      5    -553.682217026656     -0.001025158117      0.00117560      0.00041465      0.05335936      0.00949072  ~
      6    -553.682386062982     -0.000169036326      0.00037182      0.00011824      0.01213025      0.00283530  ~
      7    -553.682398977060     -0.000012914078      0.00018122      0.00004276      0.00491351      0.00102366  ~
      8    -553.682400179255     -0.000001202196      0.00026148      0.00003938      0.00151247      0.00036336  ~
      9    -553.682399090467      0.000001088788      0.00029439      0.00004499      0.00101673      0.00026323  ~
  --------------------------------------------------------------------------------------------------------------- ~

	Writing optimization data to binary file.
	Final energy is   -553.6823990904675
	Final (previous) structure:
	Cartesian Geometry (in Angstrom)
	    C    -1.2894805685   0.8050113710  -0.5425508049
	    C    -0.3293462764   0.1259352372   1.5798680890
	    C    -2.3658996077   1.3243020843   0.1004020099
	    C    -1.3877233994   0.6599652114   2.2404478211
	    C     1.7841736335  -1.2872603677   0.1219071660
	    C     1.0970024558  -0.2131085621  -1.9089494414
	    C     2.8048679255  -1.8693058609  -0.5557464459
	    C     2.1337019858  -0.8079169875  -2.5501379165
	    C    -0.2168593010   0.1827652323   0.1600860633
	    C     0.8573259044  -0.4023794967  -0.5121223891
	    C    -2.4883701955   1.2987846388   1.5451279664
	    N     2.9874268539  -1.6303944521  -1.8826083685
	    O    -3.4622006976   1.7823695882   2.1403798734
	    H    -1.2709606146   0.8424354356  -1.6214532060
	    H     0.4634019241  -0.3215482407   2.1607036196
	    H    -3.1805467802   1.7694000244  -0.4517194252
	    H    -1.4421533969   0.6291273671   3.3187070962
	    H     1.6828117287  -1.5361411435   1.1641264220
	    H     0.4683055756   0.4372021944  -2.4923973300
	    H     3.5009067242  -2.5472550038  -0.0897517981
	    H     2.3328377399  -0.6579777019  -3.5985220979
	    H     3.7478150338  -2.0680498219  -2.3714106515
	Saving final (previous) structure.
			--------------------------
			 OPTKING Finished Execution 
			--------------------------

    Final optimized geometry and variables:
    Molecular point group: c1
    Full point group: C1

    Geometry (in Angstrom), charge = 0, multiplicity = 1:

    C           -1.289480568523     0.805011370958    -0.542550804925
    C           -0.329346276377     0.125935237193     1.579868088962
    C           -2.365899607659     1.324302084319     0.100402009911
    C           -1.387723399422     0.659965211403     2.240447821057
    C            1.784173633491    -1.287260367718     0.121907165989
    C            1.097002455841    -0.213108562119    -1.908949441385
    C            2.804867925467    -1.869305860877    -0.555746445890
    C            2.133701985785    -0.807916987545    -2.550137916499
    C           -0.216859301015     0.182765232332     0.160086063328
    C            0.857325904375    -0.402379496695    -0.512122389100
    C           -2.488370195478     1.298784638798     1.545127966425
    N            2.987426853921    -1.630394452131    -1.882608368465
    O           -3.462200697622     1.782369588247     2.140379873371
    H           -1.270960614571     0.842435435594    -1.621453206006
    H            0.463401924099    -0.321548240721     2.160703619629
    H           -3.180546780225     1.769400024448    -0.451719425166
    H           -1.442153396883     0.629127367130     3.318707096188
    H            1.682811728679    -1.536141143474     1.164126422042
    H            0.468305575619     0.437202194436    -2.492397329954
    H            3.500906724213    -2.547255003836    -0.089751798050
    H            2.332837739938    -0.657977701943    -3.598522097939
    H            3.747815033770    -2.068049821918    -2.371410651475

	Cleaning optimization helper files.

*** Psi4 exiting successfully. Buy a developer a beer!
