
    -----------------------------------------------------------------------
          Psi4: An Open-Source Ab Initio Electronic Structure Package
                               Psi4 1.1 release

                         Git: Rev {HEAD} add49b9 


    R. M. Parrish, L. A. Burns, D. G. A. Smith, A. C. Simmonett,
    A. E. DePrince III, E. G. Hohenstein, U. Bozkaya, A. Yu. Sokolov,
    R. Di Remigio, R. M. Richard, J. F. Gonthier, A. M. James,
    H. R. McAlexander, A. Kumar, M. Saitow, X. Wang, B. P. Pritchard,
    P. Verma, H. F. Schaefer III, K. Patkowski, R. A. King, E. F. Valeev,
    F. A. Evangelista, J. M. Turney, T. D. Crawford, and C. D. Sherrill,
    J. Chem. Theory Comput. in press (2017).
    (doi: 10.1021/acs.jctc.7b00174)

    -----------------------------------------------------------------------


    Psi4 started on: Sunday, 12 November 2017 02:23PM

    Process ID:  25895
    PSIDATADIR: /cbio/jclab/home/chayas/anaconda/envs/py35/share/psi4
    Memory:     500.0 MiB
    Threads:    8
    
  ==> Input File <==

--------------------------------------------------------------------------

memory 5 Gb

molecule phepyrOH_neutral {
  symmetry C1
  0 1 
  C      1.885   -1.036   -0.112
  C      2.878   -1.652   2.002
  C      0.807   -0.463   0.561
  C      1.800   -1.079   2.676
  C      3.862   -2.773   -1.356
  C      5.298   -2.250   0.501
  C      4.965   -3.329   -1.983
  C      6.337   -2.829   -0.209
  C      2.921   -1.631   0.608
  C      4.040   -2.225   -0.090
  C      0.764   -0.484   1.955
  N      6.202   -3.372   -1.440
  O      -0.288   0.076   2.612
  H      1.904   -1.012   -1.199
  H      3.678   -2.112   2.578
  H      0.003   -0.001   -0.006
  H      1.772   -1.098   3.762
  H      2.895   -2.772   -1.850
  H      5.475   -1.833   1.487
  H      4.879   -3.768   -2.972
  H      7.337   -2.875   0.208
  H      -0.355   1.020   2.398
  units Angstrom
}

dih_string = "3 11 13 22 300"
set optking fixed_dihedral = $dih_string

optimize('MP2/aug-cc-PVTZ')
--------------------------------------------------------------------------

  Memory set to   4.657 GiB by Python driver.
gradient() will perform analytic gradient computation.

*** tstart() called on gpu-1-7.local
*** at Sun Nov 12 14:23:17 2017

    SCF Algorithm Type (re)set to DF.

*** tstart() called on gpu-1-7.local
*** at Sun Nov 12 14:23:17 2017

   => Loading Basis Set <=

    Name: AUG-CC-PVTZ
    Role: ORBITAL
    Keyword: BASIS
    atoms 1-11  entry C          line   221 file /cbio/jclab/home/chayas/anaconda/envs/py35/share/psi4/basis/aug-cc-pvtz.gbs 
    atoms 12    entry N          line   267 file /cbio/jclab/home/chayas/anaconda/envs/py35/share/psi4/basis/aug-cc-pvtz.gbs 
    atoms 13    entry O          line   313 file /cbio/jclab/home/chayas/anaconda/envs/py35/share/psi4/basis/aug-cc-pvtz.gbs 
    atoms 14-22 entry H          line    34 file /cbio/jclab/home/chayas/anaconda/envs/py35/share/psi4/basis/aug-cc-pvtz.gbs 


         ---------------------------------------------------------
                                   SCF
            by Justin Turney, Rob Parrish, and Andy Simmonett
                              RHF Reference
                        8 Threads,   4768 MiB Core
         ---------------------------------------------------------

  ==> Geometry <==

    Molecular point group: c1
    Full point group: C1

    Geometry (in Angstrom), charge = 0, multiplicity = 1:

       Center              X                  Y                   Z               Mass       
    ------------   -----------------  -----------------  -----------------  -----------------
           C         -1.252507353199     0.703531131228    -0.583687120170    12.000000000000
           C         -0.259507353199     0.087531131228     1.530312879830    12.000000000000
           C         -2.330507353199     1.276531131228     0.089312879830    12.000000000000
           C         -1.337507353199     0.660531131228     2.204312879830    12.000000000000
           C          0.724492646801    -1.033468868772    -1.827687120170    12.000000000000
           C          2.160492646801    -0.510468868772     0.029312879830    12.000000000000
           C          1.827492646801    -1.589468868772    -2.454687120170    12.000000000000
           C          3.199492646801    -1.089468868772    -0.680687120170    12.000000000000
           C         -0.216507353199     0.108531131228     0.136312879830    12.000000000000
           C          0.902492646801    -0.485468868772    -0.561687120170    12.000000000000
           C         -2.373507353199     1.255531131228     1.483312879830    12.000000000000
           N          3.064492646801    -1.632468868772    -1.911687120170    14.003074004780
           O         -3.425507353199     1.815531131228     2.140312879830    15.994914619560
           H         -1.233507353199     0.727531131228    -1.670687120170     1.007825032070
           H          0.540492646801    -0.372468868772     2.106312879830     1.007825032070
           H         -3.134507353199     1.738531131228    -0.477687120170     1.007825032070
           H         -1.365507353199     0.641531131228     3.290312879830     1.007825032070
           H         -0.242507353199    -1.032468868772    -2.321687120170     1.007825032070
           H          2.337492646801    -0.093468868772     1.015312879830     1.007825032070
           H          1.741492646801    -2.028468868772    -3.443687120170     1.007825032070
           H          4.199492646801    -1.135468868772    -0.263687120170     1.007825032070
           H         -3.492507353199     2.759531131228     1.926312879830     1.007825032070

  Running in c1 symmetry.

  Rotational constants: A =      0.09693  B =      0.01354  C =      0.01209 [cm^-1]
  Rotational constants: A =   2905.96135  B =    405.91158  C =    362.47953 [MHz]
  Nuclear repulsion =  698.505137049491509

  Charge       = 0
  Multiplicity = 1
  Electrons    = 90
  Nalpha       = 45
  Nbeta        = 45

  ==> Algorithm <==

  SCF Algorithm Type is DF.
  DIIS enabled.
  MOM disabled.
  Fractional occupation disabled.
  Guess Type is SAD.
  Energy threshold   = 1.00e-10
  Density threshold  = 1.00e-10
  Integral threshold = 0.00e+00

  ==> Primary Basis <==

  Basis Set: AUG-CC-PVTZ
    Blend: AUG-CC-PVTZ
    Number of shells: 263
    Number of basis function: 805
    Number of Cartesian functions: 940
    Spherical Harmonics?: true
    Max angular momentum: 3

   => Loading Basis Set <=

    Name: (AUG-CC-PVTZ AUX)
    Role: JKFIT
    Keyword: DF_BASIS_SCF
    atoms 1-11  entry C          line   161 file /cbio/jclab/home/chayas/anaconda/envs/py35/share/psi4/basis/aug-cc-pvtz-jkfit.gbs 
    atoms 12    entry N          line   223 file /cbio/jclab/home/chayas/anaconda/envs/py35/share/psi4/basis/aug-cc-pvtz-jkfit.gbs 
    atoms 13    entry O          line   285 file /cbio/jclab/home/chayas/anaconda/envs/py35/share/psi4/basis/aug-cc-pvtz-jkfit.gbs 
    atoms 14-22 entry H          line    69 file /cbio/jclab/home/chayas/anaconda/envs/py35/share/psi4/basis/aug-cc-pvtz-jkfit.gbs 

  ==> Pre-Iterations <==

   -------------------------------------------------------
    Irrep   Nso     Nmo     Nalpha   Nbeta   Ndocc  Nsocc
   -------------------------------------------------------
     A        805     805       0       0       0       0
   -------------------------------------------------------
    Total     805     805      45      45      45       0
   -------------------------------------------------------

  ==> Integral Setup <==

  ==> DFJK: Density-Fitted J/K Matrices <==

    J tasked:                  Yes
    K tasked:                  Yes
    wK tasked:                  No
    OpenMP threads:              8
    Integrals threads:           8
    Memory (MB):              3576
    Algorithm:                Disk
    Integral Cache:           NONE
    Schwarz Cutoff:          1E-12
    Fitting Condition:       1E-12

   => Auxiliary Basis Set <=

  Basis Set: (AUG-CC-PVTZ AUX)
    Blend: AUG-CC-PVTZ-JKFIT
    Number of shells: 516
    Number of basis function: 1766
    Number of Cartesian functions: 2198
    Spherical Harmonics?: true
    Max angular momentum: 4

  Minimum eigenvalue in the overlap matrix is 6.2863803534E-07.
  Using Symmetric Orthogonalization.

  SCF Guess: Superposition of Atomic Densities via on-the-fly atomic UHF.

  ==> Iterations <==

                           Total Energy        Delta E     RMS |[F,P]|

   @DF-RHF iter   0:  -560.99669224704201   -5.60997e+02   2.13829e-02 
   @DF-RHF iter   1:  -551.00729226077351    9.98940e+00   1.60022e-03 
   @DF-RHF iter   2:  -551.23178024888716   -2.24488e-01   9.33090e-04 DIIS
   @DF-RHF iter   3:  -551.26871828758249   -3.69380e-02   3.98714e-04 DIIS
   @DF-RHF iter   4:  -551.28049768002609   -1.17794e-02   1.36502e-04 DIIS
   @DF-RHF iter   5:  -551.28213562939595   -1.63795e-03   5.22456e-05 DIIS
   @DF-RHF iter   6:  -551.28243301911209   -2.97390e-04   2.04842e-05 DIIS
   @DF-RHF iter   7:  -551.28249322388922   -6.02048e-05   8.22456e-06 DIIS
   @DF-RHF iter   8:  -551.28250520143183   -1.19775e-05   3.53117e-06 DIIS
   @DF-RHF iter   9:  -551.28250894527389   -3.74384e-06   1.94307e-06 DIIS
   @DF-RHF iter  10:  -551.28251002774584   -1.08247e-06   6.78041e-07 DIIS
   @DF-RHF iter  11:  -551.28251009727569   -6.95298e-08   2.05200e-07 DIIS
   @DF-RHF iter  12:  -551.28251010793508   -1.06594e-08   8.46237e-08 DIIS
   @DF-RHF iter  13:  -551.28251010949339   -1.55831e-09   4.13457e-08 DIIS
   @DF-RHF iter  14:  -551.28251010987481   -3.81419e-10   2.03556e-08 DIIS
   @DF-RHF iter  15:  -551.28251010998281   -1.08002e-10   5.89665e-09 DIIS
   @DF-RHF iter  16:  -551.28251010998167    1.13687e-12   2.70034e-09 DIIS
   @DF-RHF iter  17:  -551.28251010998622   -4.54747e-12   8.94797e-10 DIIS
   @DF-RHF iter  18:  -551.28251010998474    1.47793e-12   3.65340e-10 DIIS
   @DF-RHF iter  19:  -551.28251010997701    7.73070e-12   1.56116e-10 DIIS
   @DF-RHF iter  20:  -551.28251010996848    8.52651e-12   7.09987e-11 DIIS

  ==> Post-Iterations <==

    Orbital Energies (a.u.)
    -----------------------

    Doubly Occupied:                                                      

       1A    -20.591476     2A    -15.562517     3A    -11.308905  
       4A    -11.274611     5A    -11.274594     6A    -11.263853  
       7A    -11.252718     8A    -11.252151     9A    -11.247572  
      10A    -11.244861    11A    -11.243727    12A    -11.237025  
      13A    -11.236914    14A     -1.409267    15A     -1.249203  
      16A     -1.174048    17A     -1.104029    18A     -1.039571  
      19A     -1.028195    20A     -1.008810    21A     -0.880226  
      22A     -0.872919    23A     -0.835906    24A     -0.810613  
      25A     -0.747826    26A     -0.723710    27A     -0.683228  
      28A     -0.665625    29A     -0.649053    30A     -0.635292  
      31A     -0.630995    32A     -0.610455    33A     -0.596195  
      34A     -0.591746    35A     -0.555114    36A     -0.541590  
      37A     -0.528217    38A     -0.518926    39A     -0.500817  
      40A     -0.487163    41A     -0.418221    42A     -0.399762  
      43A     -0.354247    44A     -0.349348    45A     -0.312217  

    Virtual:                                                              

      46A      0.022754    47A      0.028777    48A      0.031883  
      49A      0.038878    50A      0.041987    51A      0.044738  
      52A      0.054513    53A      0.056114    54A      0.060615  
      55A      0.074688    56A      0.078682    57A      0.083129  
      58A      0.087246    59A      0.093115    60A      0.095020  
      61A      0.102221    62A      0.106505    63A      0.108121  
      64A      0.111710    65A      0.113161    66A      0.116211  
      67A      0.119153    68A      0.120529    69A      0.126370  
      70A      0.128774    71A      0.132647    72A      0.133869  
      73A      0.137157    74A      0.141890    75A      0.147699  
      76A      0.148370    77A      0.151868    78A      0.153226  
      79A      0.157211    80A      0.160421    81A      0.168217  
      82A      0.171384    83A      0.175823    84A      0.182688  
      85A      0.184403    86A      0.186596    87A      0.201517  
      88A      0.204317    89A      0.210756    90A      0.216323  
      91A      0.221591    92A      0.225082    93A      0.228879  
      94A      0.233757    95A      0.240599    96A      0.242386  
      97A      0.244919    98A      0.249843    99A      0.253363  
     100A      0.259377   101A      0.259580   102A      0.263391  
     103A      0.265955   104A      0.272452   105A      0.274283  
     106A      0.275278   107A      0.286737   108A      0.288776  
     109A      0.293452   110A      0.293907   111A      0.299733  
     112A      0.301172   113A      0.304577   114A      0.314005  
     115A      0.317827   116A      0.319045   117A      0.324119  
     118A      0.327655   119A      0.330293   120A      0.336174  
     121A      0.339543   122A      0.341878   123A      0.348473  
     124A      0.356489   125A      0.359926   126A      0.362965  
     127A      0.369433   128A      0.372282   129A      0.380077  
     130A      0.384895   131A      0.393339   132A      0.396859  
     133A      0.397739   134A      0.409474   135A      0.419508  
     136A      0.420464   137A      0.425844   138A      0.428105  
     139A      0.430714   140A      0.435514   141A      0.435984  
     142A      0.439751   143A      0.443601   144A      0.448559  
     145A      0.451625   146A      0.454296   147A      0.460203  
     148A      0.462085   149A      0.467473   150A      0.470102  
     151A      0.475171   152A      0.477447   153A      0.484955  
     154A      0.488000   155A      0.489764   156A      0.491129  
     157A      0.499243   158A      0.501690   159A      0.503906  
     160A      0.506296   161A      0.508514   162A      0.513638  
     163A      0.515806   164A      0.518540   165A      0.521754  
     166A      0.525217   167A      0.527657   168A      0.530563  
     169A      0.534383   170A      0.539576   171A      0.542704  
     172A      0.547584   173A      0.551480   174A      0.557615  
     175A      0.560499   176A      0.562785   177A      0.571417  
     178A      0.577277   179A      0.582017   180A      0.588470  
     181A      0.592752   182A      0.598779   183A      0.607719  
     184A      0.613486   185A      0.614074   186A      0.624268  
     187A      0.625392   188A      0.631772   189A      0.636819  
     190A      0.637398   191A      0.651232   192A      0.657389  
     193A      0.661317   194A      0.674678   195A      0.680334  
     196A      0.686031   197A      0.690838   198A      0.699164  
     199A      0.705002   200A      0.708185   201A      0.709444  
     202A      0.719278   203A      0.721704   204A      0.726763  
     205A      0.730889   206A      0.735969   207A      0.740792  
     208A      0.750497   209A      0.757836   210A      0.764848  
     211A      0.767369   212A      0.769336   213A      0.773434  
     214A      0.777652   215A      0.789756   216A      0.798691  
     217A      0.802589   218A      0.810410   219A      0.817426  
     220A      0.822663   221A      0.829670   222A      0.840943  
     223A      0.842507   224A      0.844546   225A      0.853016  
     226A      0.856544   227A      0.860328   228A      0.870156  
     229A      0.871539   230A      0.879548   231A      0.880931  
     232A      0.881449   233A      0.887953   234A      0.894519  
     235A      0.897793   236A      0.903197   237A      0.906045  
     238A      0.911643   239A      0.919020   240A      0.920876  
     241A      0.929455   242A      0.932890   243A      0.940297  
     244A      0.947885   245A      0.950028   246A      0.954190  
     247A      0.960606   248A      0.962721   249A      0.965499  
     250A      0.973984   251A      0.975802   252A      0.980560  
     253A      0.983357   254A      0.989057   255A      0.992480  
     256A      0.998716   257A      1.001389   258A      1.005604  
     259A      1.011631   260A      1.013426   261A      1.014755  
     262A      1.023573   263A      1.024636   264A      1.030530  
     265A      1.035682   266A      1.037280   267A      1.039327  
     268A      1.044014   269A      1.050883   270A      1.054180  
     271A      1.058896   272A      1.063169   273A      1.071775  
     274A      1.084530   275A      1.086337   276A      1.089154  
     277A      1.093526   278A      1.096274   279A      1.098033  
     280A      1.099005   281A      1.104581   282A      1.107521  
     283A      1.115402   284A      1.119266   285A      1.122032  
     286A      1.124414   287A      1.130178   288A      1.140664  
     289A      1.152336   290A      1.154022   291A      1.158561  
     292A      1.161247   293A      1.166061   294A      1.173718  
     295A      1.175398   296A      1.180460   297A      1.183813  
     298A      1.188015   299A      1.190622   300A      1.193600  
     301A      1.201224   302A      1.209539   303A      1.213880  
     304A      1.216698   305A      1.219810   306A      1.221649  
     307A      1.228732   308A      1.232314   309A      1.236555  
     310A      1.251997   311A      1.263549   312A      1.273569  
     313A      1.275483   314A      1.277703   315A      1.279663  
     316A      1.290072   317A      1.293090   318A      1.301851  
     319A      1.305305   320A      1.313048   321A      1.316150  
     322A      1.320734   323A      1.327654   324A      1.333231  
     325A      1.338130   326A      1.346379   327A      1.353445  
     328A      1.363293   329A      1.372291   330A      1.382769  
     331A      1.386937   332A      1.395316   333A      1.409303  
     334A      1.415935   335A      1.420813   336A      1.427636  
     337A      1.444008   338A      1.450961   339A      1.456208  
     340A      1.461583   341A      1.464593   342A      1.480561  
     343A      1.487642   344A      1.497463   345A      1.504873  
     346A      1.508192   347A      1.513868   348A      1.520682  
     349A      1.530219   350A      1.536547   351A      1.544614  
     352A      1.548974   353A      1.556829   354A      1.575406  
     355A      1.578406   356A      1.588409   357A      1.594738  
     358A      1.606845   359A      1.611551   360A      1.617958  
     361A      1.625467   362A      1.632338   363A      1.643159  
     364A      1.657119   365A      1.660447   366A      1.669711  
     367A      1.675301   368A      1.676936   369A      1.689175  
     370A      1.693511   371A      1.703180   372A      1.711324  
     373A      1.719874   374A      1.722943   375A      1.734508  
     376A      1.738746   377A      1.741236   378A      1.746689  
     379A      1.767236   380A      1.772142   381A      1.783214  
     382A      1.786436   383A      1.792137   384A      1.801942  
     385A      1.811912   386A      1.819385   387A      1.827299  
     388A      1.829193   389A      1.835931   390A      1.845679  
     391A      1.854490   392A      1.858382   393A      1.866631  
     394A      1.874954   395A      1.889655   396A      1.902307  
     397A      1.908987   398A      1.913299   399A      1.915331  
     400A      1.929005   401A      1.933891   402A      1.941894  
     403A      1.952655   404A      1.963585   405A      1.966817  
     406A      1.971146   407A      1.979715   408A      1.996423  
     409A      1.999618   410A      2.009021   411A      2.012289  
     412A      2.015883   413A      2.023291   414A      2.029318  
     415A      2.041625   416A      2.045516   417A      2.050378  
     418A      2.058196   419A      2.067908   420A      2.075087  
     421A      2.081129   422A      2.095935   423A      2.098052  
     424A      2.103868   425A      2.110727   426A      2.119955  
     427A      2.125097   428A      2.132344   429A      2.137788  
     430A      2.143196   431A      2.145831   432A      2.150321  
     433A      2.160693   434A      2.185952   435A      2.192251  
     436A      2.195276   437A      2.197482   438A      2.205735  
     439A      2.219457   440A      2.227946   441A      2.236475  
     442A      2.241370   443A      2.247729   444A      2.263428  
     445A      2.271911   446A      2.296826   447A      2.300882  
     448A      2.308603   449A      2.313507   450A      2.325398  
     451A      2.346898   452A      2.349658   453A      2.365071  
     454A      2.366828   455A      2.372278   456A      2.379042  
     457A      2.391195   458A      2.401603   459A      2.405181  
     460A      2.412541   461A      2.415541   462A      2.425108  
     463A      2.437301   464A      2.462189   465A      2.473604  
     466A      2.482981   467A      2.499858   468A      2.515914  
     469A      2.533668   470A      2.536642   471A      2.552350  
     472A      2.556034   473A      2.566412   474A      2.572811  
     475A      2.583578   476A      2.594350   477A      2.594916  
     478A      2.618547   479A      2.626095   480A      2.643238  
     481A      2.668177   482A      2.682129   483A      2.692761  
     484A      2.718721   485A      2.728532   486A      2.744948  
     487A      2.753037   488A      2.776672   489A      2.788993  
     490A      2.802331   491A      2.819899   492A      2.826291  
     493A      2.856640   494A      2.863806   495A      2.870598  
     496A      2.892874   497A      2.903509   498A      2.918626  
     499A      2.949461   500A      2.953612   501A      2.990548  
     502A      3.005551   503A      3.027245   504A      3.042150  
     505A      3.050793   506A      3.068876   507A      3.096603  
     508A      3.109409   509A      3.135258   510A      3.163943  
     511A      3.193463   512A      3.208390   513A      3.213162  
     514A      3.215406   515A      3.242924   516A      3.247302  
     517A      3.256304   518A      3.300923   519A      3.309790  
     520A      3.313737   521A      3.319813   522A      3.339983  
     523A      3.345621   524A      3.359420   525A      3.366856  
     526A      3.372722   527A      3.386295   528A      3.404188  
     529A      3.418855   530A      3.423444   531A      3.429410  
     532A      3.436579   533A      3.446919   534A      3.451936  
     535A      3.461332   536A      3.478198   537A      3.482269  
     538A      3.494572   539A      3.502190   540A      3.515005  
     541A      3.521115   542A      3.532654   543A      3.542069  
     544A      3.544198   545A      3.556792   546A      3.561953  
     547A      3.566659   548A      3.577382   549A      3.582844  
     550A      3.583775   551A      3.594987   552A      3.602480  
     553A      3.610771   554A      3.630577   555A      3.637174  
     556A      3.638920   557A      3.649673   558A      3.655443  
     559A      3.679670   560A      3.687189   561A      3.694207  
     562A      3.701771   563A      3.723908   564A      3.730239  
     565A      3.740309   566A      3.755418   567A      3.771646  
     568A      3.779453   569A      3.783731   570A      3.787116  
     571A      3.794116   572A      3.807460   573A      3.817135  
     574A      3.831456   575A      3.834948   576A      3.848988  
     577A      3.854758   578A      3.864390   579A      3.868633  
     580A      3.877656   581A      3.883617   582A      3.892833  
     583A      3.900567   584A      3.923096   585A      3.932825  
     586A      3.935637   587A      3.939292   588A      3.942165  
     589A      3.949866   590A      3.960841   591A      3.965906  
     592A      3.979425   593A      3.987622   594A      3.995243  
     595A      4.000316   596A      4.014746   597A      4.018383  
     598A      4.025307   599A      4.033148   600A      4.037762  
     601A      4.039351   602A      4.042623   603A      4.072281  
     604A      4.091580   605A      4.106591   606A      4.114691  
     607A      4.115314   608A      4.126041   609A      4.133542  
     610A      4.140517   611A      4.147207   612A      4.160744  
     613A      4.165802   614A      4.173212   615A      4.184162  
     616A      4.197367   617A      4.204169   618A      4.211857  
     619A      4.230636   620A      4.240777   621A      4.257037  
     622A      4.258983   623A      4.263927   624A      4.269082  
     625A      4.276866   626A      4.288063   627A      4.295942  
     628A      4.308014   629A      4.314787   630A      4.332363  
     631A      4.335893   632A      4.341034   633A      4.352680  
     634A      4.370519   635A      4.379647   636A      4.391359  
     637A      4.393249   638A      4.397817   639A      4.403973  
     640A      4.407613   641A      4.419721   642A      4.429546  
     643A      4.442919   644A      4.449414   645A      4.458627  
     646A      4.463794   647A      4.479928   648A      4.483992  
     649A      4.501478   650A      4.510977   651A      4.513217  
     652A      4.517998   653A      4.518782   654A      4.548935  
     655A      4.563632   656A      4.570316   657A      4.588762  
     658A      4.600011   659A      4.622943   660A      4.636299  
     661A      4.640296   662A      4.652063   663A      4.667764  
     664A      4.689840   665A      4.695182   666A      4.698856  
     667A      4.721140   668A      4.726269   669A      4.745945  
     670A      4.754671   671A      4.762652   672A      4.789779  
     673A      4.798668   674A      4.820081   675A      4.839136  
     676A      4.848029   677A      4.861229   678A      4.869322  
     679A      4.877793   680A      4.893728   681A      4.914462  
     682A      4.933637   683A      4.941007   684A      4.951220  
     685A      4.963126   686A      4.977471   687A      4.992686  
     688A      4.999979   689A      5.014405   690A      5.018471  
     691A      5.028655   692A      5.042427   693A      5.054135  
     694A      5.061709   695A      5.084556   696A      5.098203  
     697A      5.116621   698A      5.120944   699A      5.128909  
     700A      5.139715   701A      5.145071   702A      5.157467  
     703A      5.161080   704A      5.164900   705A      5.165296  
     706A      5.180444   707A      5.204667   708A      5.212172  
     709A      5.233146   710A      5.237060   711A      5.265869  
     712A      5.279258   713A      5.294334   714A      5.308206  
     715A      5.313346   716A      5.315158   717A      5.356467  
     718A      5.361374   719A      5.366448   720A      5.391291  
     721A      5.422918   722A      5.430737   723A      5.441962  
     724A      5.452717   725A      5.467796   726A      5.477123  
     727A      5.497998   728A      5.514438   729A      5.554234  
     730A      5.564677   731A      5.570513   732A      5.610014  
     733A      5.621106   734A      5.639357   735A      5.685704  
     736A      5.702129   737A      5.710708   738A      5.744200  
     739A      5.756633   740A      5.763873   741A      5.800133  
     742A      5.822518   743A      5.826813   744A      5.848571  
     745A      5.875478   746A      5.882029   747A      5.915069  
     748A      5.943502   749A      5.986227   750A      6.047699  
     751A      6.085511   752A      6.112204   753A      6.158015  
     754A      6.186341   755A      6.225584   756A      6.243659  
     757A      6.272705   758A      6.285617   759A      6.374408  
     760A      6.402475   761A      6.424685   762A      6.466509  
     763A      6.482086   764A      6.521685   765A      6.529045  
     766A      6.597353   767A      6.622295   768A      6.710050  
     769A      6.713310   770A      6.736764   771A      6.741903  
     772A      6.882800   773A      6.886686   774A      6.907875  
     775A      6.909596   776A      6.927787   777A      6.944131  
     778A      6.974521   779A      7.091243   780A      7.104547  
     781A      7.145347   782A      7.287839   783A      7.325198  
     784A      7.418196   785A      7.431445   786A      7.544247  
     787A      7.628162   788A      7.651911   789A      7.825103  
     790A      7.943670   791A      8.225671   792A      8.609228  
     793A     15.622192   794A     16.364534   795A     16.751285  
     796A     16.810578   797A     16.943701   798A     18.435072  
     799A     18.826947   800A     19.179723   801A     19.826227  
     802A     20.062182   803A     20.148432   804A     20.601439  
     805A     21.770763  

    Final Occupation by Irrep:
              A 
    DOCC [    45 ]

  Energy converged.

  @DF-RHF Final Energy:  -551.28251010996848

   => Energetics <=

    Nuclear Repulsion Energy =            698.5051370494915091
    One-Electron Energy =               -2133.7683761462271832
    Two-Electron Energy =                 883.9807289867670761
    DFT Exchange-Correlation Energy =       0.0000000000000000
    Empirical Dispersion Energy =           0.0000000000000000
    PCM Polarization Energy =               0.0000000000000000
    EFP Energy =                            0.0000000000000000
    Total Energy =                       -551.2825101099684844



Properties will be evaluated at   0.000000,   0.000000,   0.000000 Bohr

Properties computed using the SCF density matrix

  Nuclear Dipole Moment: (a.u.)
     X:    -0.6343      Y:     1.1429      Z:     0.1666

  Electronic Dipole Moment: (a.u.)
     X:    -0.0334      Y:    -0.2146      Z:     0.1114

  Dipole Moment: (a.u.)
     X:    -0.6677      Y:     0.9283      Z:     0.2780     Total:     1.1768

  Dipole Moment: (Debye)
     X:    -1.6971      Y:     2.3596      Z:     0.7066     Total:     2.9912


*** tstop() called on gpu-1-7.local at Sun Nov 12 14:30:10 2017
Module time:
	user time   =    1037.22 seconds =      17.29 minutes
	system time =      47.67 seconds =       0.79 minutes
	total time  =        413 seconds =       6.88 minutes
Total time:
	user time   =    1037.22 seconds =      17.29 minutes
	system time =      47.67 seconds =       0.79 minutes
	total time  =        413 seconds =       6.88 minutes

  //>>>>>>>>>>>>>>>>>>>>>>>>>>>>>>>>>>>//
  //               DFMP2               //
  //<<<<<<<<<<<<<<<<<<<<<<<<<<<<<<<<<<<//

   => Loading Basis Set <=

    Name: (AUG-CC-PVTZ AUX)
    Role: RIFIT
    Keyword: DF_BASIS_MP2
    atoms 1-11  entry C          line   147 file /cbio/jclab/home/chayas/anaconda/envs/py35/share/psi4/basis/aug-cc-pvtz-ri.gbs 
    atoms 12    entry N          line   205 file /cbio/jclab/home/chayas/anaconda/envs/py35/share/psi4/basis/aug-cc-pvtz-ri.gbs 
    atoms 13    entry O          line   263 file /cbio/jclab/home/chayas/anaconda/envs/py35/share/psi4/basis/aug-cc-pvtz-ri.gbs 
    atoms 14-22 entry H          line    29 file /cbio/jclab/home/chayas/anaconda/envs/py35/share/psi4/basis/aug-cc-pvtz-ri.gbs 

	 --------------------------------------------------------
	                          DF-MP2                         
	      2nd-Order Density-Fitted Moller-Plesset Theory     
	              RMP2 Wavefunction,   8 Threads             
	                                                         
	        Rob Parrish, Justin Turney, Andy Simmonett,      
	           Ed Hohenstein, and C. David Sherrill          
	 --------------------------------------------------------

   => Auxiliary Basis Set <=

  Basis Set: (AUG-CC-PVTZ AUX)
    Blend: AUG-CC-PVTZ-RI
    Number of shells: 490
    Number of basis function: 1792
    Number of Cartesian functions: 2263
    Spherical Harmonics?: true
    Max angular momentum: 4

	 --------------------------------------------------------
	                 NBF =   805, NAUX =  1792
	 --------------------------------------------------------
	   CLASS    FOCC     OCC    AOCC    AVIR     VIR    FVIR
	   PAIRS       0      45      45     760     760       0
	 --------------------------------------------------------


         ------------------------------------------------------------
                                     CPHF                           
                                  Rob Parrish                       
         ------------------------------------------------------------

  ==> Geometry <==

    Molecular point group: c1
    Full point group: C1

    Geometry (in Angstrom), charge = 0, multiplicity = 1:

       Center              X                  Y                   Z               Mass       
    ------------   -----------------  -----------------  -----------------  -----------------
           C         -1.252507353199     0.703531131228    -0.583687120170    12.000000000000
           C         -0.259507353199     0.087531131228     1.530312879830    12.000000000000
           C         -2.330507353199     1.276531131228     0.089312879830    12.000000000000
           C         -1.337507353199     0.660531131228     2.204312879830    12.000000000000
           C          0.724492646801    -1.033468868772    -1.827687120170    12.000000000000
           C          2.160492646801    -0.510468868772     0.029312879830    12.000000000000
           C          1.827492646801    -1.589468868772    -2.454687120170    12.000000000000
           C          3.199492646801    -1.089468868772    -0.680687120170    12.000000000000
           C         -0.216507353199     0.108531131228     0.136312879830    12.000000000000
           C          0.902492646801    -0.485468868772    -0.561687120170    12.000000000000
           C         -2.373507353199     1.255531131228     1.483312879830    12.000000000000
           N          3.064492646801    -1.632468868772    -1.911687120170    14.003074004780
           O         -3.425507353199     1.815531131228     2.140312879830    15.994914619560
           H         -1.233507353199     0.727531131228    -1.670687120170     1.007825032070
           H          0.540492646801    -0.372468868772     2.106312879830     1.007825032070
           H         -3.134507353199     1.738531131228    -0.477687120170     1.007825032070
           H         -1.365507353199     0.641531131228     3.290312879830     1.007825032070
           H         -0.242507353199    -1.032468868772    -2.321687120170     1.007825032070
           H          2.337492646801    -0.093468868772     1.015312879830     1.007825032070
           H          1.741492646801    -2.028468868772    -3.443687120170     1.007825032070
           H          4.199492646801    -1.135468868772    -0.263687120170     1.007825032070
           H         -3.492507353199     2.759531131228     1.926312879830     1.007825032070

  Nuclear repulsion =  698.505137049491509
  Reference energy  = -551.282510109968484

  ==> Basis Set <==

  Basis Set: AUG-CC-PVTZ
    Blend: AUG-CC-PVTZ
    Number of shells: 263
    Number of basis function: 805
    Number of Cartesian functions: 940
    Spherical Harmonics?: true
    Max angular momentum: 3

  ==> CGRSolver (by Rob Parrish) <==

   Number of roots    =         1
   Preconditioning    =    JACOBI
   Convergence cutoff =     1E-06
   Maximum iterations =       100

  ==> CPHFRHamiltonian (by Rob Parrish) <== 

  ==> DFJK: Density-Fitted J/K Matrices <==

    J tasked:                  Yes
    K tasked:                  Yes
    wK tasked:                  No
    OpenMP threads:              8
    Integrals threads:           8
    Memory (MB):              3576
    Algorithm:                Disk
    Integral Cache:           NONE
    Schwarz Cutoff:          1E-12
    Fitting Condition:       1E-12

   => Auxiliary Basis Set <=

  Basis Set: (AUG-CC-PVTZ AUX)
    Blend: AUG-CC-PVTZ-JKFIT
    Number of shells: 516
    Number of basis function: 1766
    Number of Cartesian functions: 2198
    Spherical Harmonics?: true
    Max angular momentum: 4

  ==> CPHF Iterations <==

  => Iterations <=

             Iter  Converged  Remaining    Residual
  CGR           1          0          1   8.634E-02
  CGR           2          0          1   3.477E-02
  CGR           3          0          1   2.443E-02
  CGR           4          0          1   1.006E-02
  CGR           5          0          1   3.879E-03
  CGR           6          0          1   1.609E-03
  CGR           7          0          1   4.826E-04
  CGR           8          0          1   1.788E-04
  CGR           9          0          1   9.119E-05
  CGR          10          0          1   3.936E-05
  CGR          11          0          1   1.323E-05
  CGR          12          0          1   4.884E-06
  CGR          13          0          1   1.389E-06
  CGR          14          1          0   4.392E-07

    CGRSolver converged.

  ==> DFCorrGrad: Density-Fitted Correlated Gradients <==

    OpenMP threads:              8
    Integrals threads:           8
    Memory (MB):              3576
    Schwarz Cutoff:          0E+00
    Fitting Condition:       1E-12

   => Auxiliary Basis Set <=

  Basis Set: (AUG-CC-PVTZ AUX)
    Blend: AUG-CC-PVTZ-JKFIT
    Number of shells: 516
    Number of basis function: 1766
    Number of Cartesian functions: 2198
    Spherical Harmonics?: true
    Max angular momentum: 4

	-----------------------------------------------------------
	 ==================> DF-MP2 Energies <==================== 
	-----------------------------------------------------------
	 Reference Energy          =    -551.2825101099684844 [Eh]
	 Singles Energy            =      -0.0000000000000001 [Eh]
	 Same-Spin Energy          =      -0.6048164859421280 [Eh]
	 Opposite-Spin Energy      =      -1.8304555585905937 [Eh]
	 Correlation Energy        =      -2.4352720445327218 [Eh]
	 Total Energy              =    -553.7177821545011511 [Eh]
	-----------------------------------------------------------
	 ================> DF-SCS-MP2 Energies <================== 
	-----------------------------------------------------------
	 SCS Same-Spin Scale       =       0.3333333333333333 [-]
	 SCS Opposite-Spin Scale   =       1.2000000000000000 [-]
	 SCS Same-Spin Energy      =      -0.2016054953140426 [Eh]
	 SCS Opposite-Spin Energy  =      -2.1965466703087122 [Eh]
	 SCS Correlation Energy    =      -2.3981521656227547 [Eh]
	 SCS Total Energy          =    -553.6806622755912031 [Eh]
	-----------------------------------------------------------


  -Total Gradient:
     Atom            X                  Y                   Z
    ------   -----------------  -----------------  -----------------
       1        0.008921190741    -0.003025696343    -0.006305155170
       2        0.009853532015    -0.005574627283    -0.003902614325
       3       -0.005377601591     0.003617235360     0.003748702290
       4       -0.001314124059     0.002354272228     0.000565577980
       5       -0.009805282077     0.001454703064     0.002076846187
       6       -0.004943407086     0.006183280149     0.007053582013
       7       -0.012723755181     0.002214206539    -0.000229276857
       8       -0.003061443703     0.006894587426     0.011015695001
       9        0.003076690343    -0.001686225776    -0.002173754177
      10        0.004084058783    -0.001832938831    -0.001649681990
      11       -0.011772366247    -0.001508714223     0.009924925333
      12        0.012498973598    -0.006989432696    -0.008103303320
      13        0.008073363093    -0.010090665268    -0.010603489906
      14       -0.001519112460    -0.000945941984    -0.006317467415
      15        0.005332945292    -0.001233767082     0.004231036359
      16       -0.002471573333     0.001676527341    -0.004597657249
      17        0.002445158560    -0.001548701431     0.005271981778
      18       -0.004498782939     0.001219781453    -0.003933151114
      19        0.001104630809     0.000317805556     0.005462445780
      20        0.000484388504    -0.001036882519    -0.002876439852
      21        0.002313723363    -0.000736297159     0.000434172818
      22       -0.000701206430     0.010277491485     0.000907025839


*** tstop() called on gpu-1-7.local at Sun Nov 12 15:02:15 2017
Module time:
	user time   =    5056.75 seconds =      84.28 minutes
	system time =     106.11 seconds =       1.77 minutes
	total time  =       2338 seconds =      38.97 minutes
Total time:
	user time   =    5056.75 seconds =      84.28 minutes
	system time =     106.11 seconds =       1.77 minutes
	total time  =       2338 seconds =      38.97 minutes

			-----------------------------------------
			 OPTKING 2.0: for geometry optimizations 
			  - R.A. King,  Bethel University        
			-----------------------------------------

	Internal coordinates to be generated automatically.
	Detected frag 1 with atoms:  1 2 3 4 5 6 7 8 9 10 11 12 13 14 15 16 17 18 19 20
	 21 22
	---Fragment 1 Bond Connectivity---
	 1 : 3 9 14
	 2 : 4 9 15
	 3 : 1 11 16
	 4 : 2 11 17
	 5 : 7 10 18
	 6 : 8 10 19
	 7 : 5 12 20
	 8 : 6 12 21
	 9 : 1 2 10
	 10 : 5 6 9
	 11 : 3 4 13
	 12 : 7 8
	 13 : 11 22
	 14 : 1
	 15 : 2
	 16 : 3
	 17 : 4
	 18 : 5
	 19 : 6
	 20 : 7
	 21 : 8
	 22 : 13

	Assuming in current code that numbering for constraints corresponds to unified fragment.
	Fixed dihedral atom list: 
	     3    11    13    22
	---Fragment 1 Geometry and Gradient---
	 C          -2.3668958770        1.3294811640       -1.1030088044
	 C          -0.4903978270        0.1654098661        2.8918722405
	 C          -4.4040206482        2.4122942381        0.1687768830
	 C          -2.5275225983        1.2482229403        4.1655476541
	 C           1.3690926877       -1.9529731288       -3.4538281137
	 C           4.0827394146       -0.9646463613        0.0553933150
	 C           3.4534606123       -3.0036608587       -4.6386863990
	 C           6.0461648666       -2.0587977923       -1.2863122393
	 C          -0.4091396033        0.2050941149        0.2575940113
	 C           1.7054639394       -0.9174032080       -1.0614348295
	 C          -4.4852788719        2.3726099893        2.8030551123
	 N           5.7910518387       -3.0849190824       -3.6125651089
	 O          -6.4732707637        3.4308566237        4.0446051816
	 H          -2.3309910804        1.3748345912       -3.1571411109
	 H           1.0213830793       -0.7038641550        3.9803544930
	 H          -5.9233604591        3.2853477115       -0.9026978343
	 H          -2.5804349300        1.2123181437        6.2177902344
	 H          -0.4582724828       -1.9510834027       -4.3873528234
	 H           4.4172209401       -0.1766305639        1.9186632821
	 H           3.2909441649       -3.8332506311       -6.5076255445
	 H           7.9358909995       -2.1457251944       -0.4982964419
	 H          -6.5998824146        5.2147580932        3.6402037891
	             0.0089211907       -0.0030256963       -0.0063051552
	             0.0098535320       -0.0055746273       -0.0039026143
	            -0.0053776016        0.0036172354        0.0037487023
	            -0.0013141241        0.0023542722        0.0005655780
	            -0.0098052821        0.0014547031        0.0020768462
	            -0.0049434071        0.0061832801        0.0070535820
	            -0.0127237552        0.0022142065       -0.0002292769
	            -0.0030614437        0.0068945874        0.0110156950
	             0.0030766903       -0.0016862258       -0.0021737542
	             0.0040840588       -0.0018329388       -0.0016496820
	            -0.0117723662       -0.0015087142        0.0099249253
	             0.0124989736       -0.0069894327       -0.0081033033
	             0.0080733631       -0.0100906653       -0.0106034899
	            -0.0015191125       -0.0009459420       -0.0063174674
	             0.0053329453       -0.0012337671        0.0042310364
	            -0.0024715733        0.0016765273       -0.0045976572
	             0.0024451586       -0.0015487014        0.0052719818
	            -0.0044987829        0.0012197815       -0.0039331511
	             0.0011046308        0.0003178056        0.0054624458
	             0.0004843885       -0.0010368825       -0.0028764399
	             0.0023137234       -0.0007362972        0.0004341728
	            -0.0007012064        0.0102774915        0.0009070258

	Previous optimization step data not found.  Starting new optimization.

	---Fragment 1 Intrafragment Coordinates---
	 - Coordinate -           - BOHR/RAD -       - ANG/DEG -
	 R(1,3)           =         2.634350	       1.394038
	 R(1,9)           =         2.635962	       1.394891
	 R(1,14)          =         2.054947	       1.087431
	 R(2,4)           =         2.635263	       1.394521
	 R(2,9)           =         2.635830	       1.394821
	 R(2,15)          =         2.055702	       1.087831
	 R(3,11)          =         2.635830	       1.394821
	 R(3,16)          =         2.053941	       1.086899
	 R(4,11)          =         2.636938	       1.395407
	 R(4,17)          =         2.053239	       1.086527
	 R(5,7)           =         2.617713	       1.385234
	 R(5,10)          =         2.628516	       1.390951
	 R(5,18)          =         2.052008	       1.085876
	 R(6,8)           =         2.617705	       1.385230
	 R(6,10)          =         2.626971	       1.390133
	 R(6,19)          =         2.050517	       1.085087
	 R(7,12)          =         2.554185	       1.351616
	 R(7,20)          =         2.051235	       1.085467
	 R(8,12)          =         2.555281	       1.352196
	 R(8,21)          =         2.049290	       1.084438
	 R(9,10)          =         2.733384	       1.446444
	 R(11,13)         =         2.571662	       1.360865
	 R(13,22)         =         1.833542	       0.970269
	 B(1,3,11)        =         2.094553	     120.009056
	 B(1,3,16)        =         2.088505	     119.662516
	 B(1,9,2)         =         2.093692	     119.959722
	 B(1,9,10)        =         2.095161	     120.043881
	 B(2,4,11)        =         2.093699	     119.960108
	 B(2,4,17)        =         2.089577	     119.723926
	 B(2,9,10)        =         2.094332	     119.996376
	 B(3,1,9)         =         2.094940	     120.031219
	 B(3,1,14)        =         2.079469	     119.144799
	 B(3,11,4)        =         2.094306	     119.994870
	 B(3,11,13)       =         2.094549	     120.008801
	 B(4,2,9)         =         2.095181	     120.045019
	 B(4,2,15)        =         2.078675	     119.099297
	 B(4,11,13)       =         2.094331	     119.996326
	 B(5,7,12)        =         2.164774	     124.032419
	 B(5,7,20)        =         2.107900	     120.773750
	 B(5,10,6)        =         2.089402	     119.713913
	 B(5,10,9)        =         2.096711	     120.132663
	 B(6,8,12)        =         2.164670	     124.026428
	 B(6,8,21)        =         2.108649	     120.816676
	 B(6,10,9)        =         2.097073	     120.153413
	 B(7,5,10)        =         2.058056	     117.917911
	 B(7,5,18)        =         2.098486	     120.234396
	 B(7,12,8)        =         2.031222	     116.380442
	 B(8,6,10)        =         2.058246	     117.928826
	 B(8,6,19)        =         2.099051	     120.266760
	 B(9,1,14)        =         2.108776	     120.823969
	 B(9,2,15)        =         2.109330	     120.855683
	 B(10,5,18)       =         2.126643	     121.847689
	 B(10,6,19)       =         2.125888	     121.804412
	 B(11,3,16)       =         2.100127	     120.328425
	 B(11,4,17)       =         2.099910	     120.315955
	 B(11,13,22)      =         1.925446	     110.319927
	 B(12,7,20)       =         2.010511	     115.193804
	 B(12,8,21)       =         2.009864	     115.156734
	 D(1,3,11,4)      =        -0.000325	      -0.018609
	 D(1,3,11,13)     =         3.140978	     179.964785
	 D(1,9,2,4)       =         0.000325	       0.018608
	 D(1,9,2,15)      =        -3.141497	    -179.994534
	 D(1,9,10,5)      =        -0.524224	     -30.035797
	 D(1,9,10,6)      =         2.616694	     149.925506
	 D(2,4,11,3)      =         0.000301	       0.017261
	 D(2,4,11,13)     =        -3.141002	    -179.966135
	 D(2,9,1,3)       =        -0.000348	      -0.019945
	 D(2,9,1,14)      =        -3.141221	    -179.978731
	 D(2,9,10,5)      =         2.618285	     150.016707
	 D(2,9,10,6)      =        -0.523983	     -30.021991
	 D(3,1,9,10)      =        -3.141025	    -179.967461
	 D(3,11,4,17)     =         3.141223	     179.978848
	 D(3,11,13,22)    =        -1.046352	     -59.951551
	 D(4,2,9,10)      =         3.141002	     179.966149
	 D(4,11,3,16)     =         3.141593	     180.000000
	 D(4,11,13,22)    =         2.094951	     120.031843
	 D(5,7,12,8)      =        -0.001332	      -0.076323
	 D(5,10,6,8)      =         0.000381	       0.021838
	 D(5,10,6,19)     =        -3.140989	    -179.965395
	 D(6,8,12,7)      =         0.001671	       0.095732
	 D(6,10,5,7)      =        -0.000077	      -0.004437
	 D(6,10,5,18)     =        -3.141299	    -179.983151
	 D(7,5,10,9)      =         3.140843	     179.957036
	 D(7,12,8,21)     =         3.140716	     179.949799
	 D(8,6,10,9)      =        -3.140539	    -179.939628
	 D(8,12,7,20)     =         3.139212	     179.863574
	 D(9,1,3,11)      =         0.000348	       0.019955
	 D(9,1,3,16)      =        -3.141571	    -179.998735
	 D(9,2,4,11)      =        -0.000301	      -0.017270
	 D(9,2,4,17)      =        -3.141228	    -179.979086
	 D(9,10,5,18)     =        -0.000378	      -0.021678
	 D(9,10,6,19)     =         0.001277	       0.073140
	 D(10,5,7,12)     =         0.000580	       0.033223
	 D(10,5,7,20)     =        -3.139908	    -179.903478
	 D(10,6,8,12)     =        -0.001235	      -0.070741
	 D(10,6,8,21)     =        -3.140143	    -179.916933
	 D(10,9,1,14)     =         0.001287	       0.073752
	 D(10,9,2,15)     =        -0.000820	      -0.046992
	 D(11,3,1,14)     =         3.141234	     179.979432
	 D(11,4,2,15)     =         3.141517	     179.995641
	 D(12,7,5,18)     =        -3.141378	    -179.987706
	 D(12,8,6,19)     =         3.140139	     179.916697
	 D(13,11,3,16)    =        -0.000286	      -0.016400
	 D(13,11,4,17)    =        -0.000079	      -0.004548
	 D(14,1,3,16)     =        -0.000685	      -0.039257
	 D(15,2,4,17)     =         0.000590	       0.033826
	 D(18,5,7,20)     =         0.001319	       0.075593
	 D(19,6,8,21)     =         0.001231	       0.070505

	Current energy   :      -553.7177821545

	Generating empirical Hessian (Schlegel '84) for each fragment.
	Adding user-defined constraint: Fragment 1; Coordinate 73:
		Value =    -1.046352; Fixed value    =    -1.047198
		Force =    -0.000423; Force constant =     0.500000
	Removing off-diagonal coupling between coordinate 73 and others.
	Taking RFO optimization step.
	Going to follow RFO solution 1.
	Using RFO vector 1.

	Determining step-restricting scale parameter for RS-RFO.
	Maximum step size allowed    0.10000

	 Iter      |step|        alpha        rfo_root  
	------------------------------------------------
	    0     0.29733       1.00000           1
	    1     0.20155       3.62087           1
	    2     0.15031       9.21687           1
	    3     0.12076      19.58110           1
	    4     0.10526      31.21418           1
	    5     0.10046      36.39308           1
	    6     0.10000      36.93362           1
	------------------------------------------------
	Norm of target step-size    0.10000
	Projected energy change by RFO approximation:        -0.0046869032

	Back-transformation to cartesian coordinates...
	Could not converge backtransformation.
	Using first guess instead.

	--- Internal Coordinate Step in ANG or DEG, aJ/ANG or AJ/DEG ---
	 ---------------------------------------------------------------------------
	   Coordinate                Previous        Force       Change         New 
	   ----------                --------       ------       ------       ------
	    1 R(1,3)          =      1.394038    -0.053766    -0.005387     1.388651
	    2 R(1,9)          =      1.394891    -0.006050    -0.000356     1.394535
	    3 R(1,14)         =      1.087431    -0.051637    -0.006335     1.081096
	    4 R(2,4)          =      1.394521    -0.053980    -0.005486     1.389035
	    5 R(2,9)          =      1.394821    -0.002692     0.000002     1.394823
	    6 R(2,15)         =      1.087831    -0.055066    -0.006736     1.081095
	    7 R(3,11)         =      1.394821    -0.047834    -0.004961     1.389860
	    8 R(3,16)         =      1.086899    -0.040695    -0.004987     1.081912
	    9 R(4,11)         =      1.395407    -0.079938    -0.008244     1.387163
	   10 R(4,17)         =      1.086527    -0.043117    -0.005243     1.081284
	   11 R(5,7)          =      1.385234     0.001906     0.000171     1.385405
	   12 R(5,10)         =      1.390951     0.003141     0.000933     1.391883
	   13 R(5,18)         =      1.085876    -0.047757    -0.005806     1.080070
	   14 R(6,8)          =      1.385230     0.001349     0.000121     1.385351
	   15 R(6,10)         =      1.390133     0.009139     0.001500     1.391633
	   16 R(6,19)         =      1.085087    -0.043385    -0.005255     1.079832
	   17 R(7,12)         =      1.351616    -0.122970    -0.011333     1.340283
	   18 R(7,20)         =      1.085467    -0.024730    -0.003003     1.082464
	   19 R(8,12)         =      1.352196    -0.126237    -0.011637     1.340559
	   20 R(8,21)         =      1.084438    -0.019211    -0.002327     1.082110
	   21 R(9,10)         =      1.446444     0.155510     0.017912     1.464356
	   22 R(11,13)        =      1.360865     0.084887     0.007932     1.368797
	   23 R(13,22)        =      0.970269    -0.081134    -0.007405     0.962864
	   24 B(1,3,11)       =    120.009056     0.000108     0.169734   120.178790
	   25 B(1,3,16)       =    119.662516     0.000131     0.339703   120.002219
	   26 B(1,9,2)        =    119.959722    -0.000773    -1.351260   118.608462
	   27 B(1,9,10)       =    120.043881     0.000369     0.644429   120.688311
	   28 B(2,4,11)       =    119.960108     0.000075     0.085899   120.046007
	   29 B(2,4,17)       =    119.723926     0.000194     0.485815   120.209741
	   30 B(2,9,10)       =    119.996376     0.000403     0.706852   120.703228
	   31 B(3,1,9)        =    120.031219     0.000318     0.629156   120.660375
	   32 B(3,1,14)       =    119.144799    -0.000088    -0.155383   118.989416
	   33 B(3,11,4)       =    119.994870    -0.000139    -0.321607   119.673263
	   34 B(3,11,13)      =    120.008801     0.000489     0.907749   120.916551
	   35 B(4,2,9)        =    120.045019     0.000410     0.787710   120.832729
	   36 B(4,2,15)       =    119.099297    -0.000146    -0.260272   118.839025
	   37 B(4,11,13)      =    119.996326    -0.000350    -0.589116   119.407210
	   38 B(5,7,12)       =    124.032419     0.000042    -0.001055   124.031364
	   39 B(5,7,20)       =    120.773750    -0.000073    -0.117809   120.655941
	   40 B(5,10,6)       =    119.713913    -0.001199    -2.032158   117.681755
	   41 B(5,10,9)       =    120.132663     0.000599     1.015881   121.148544
	   42 B(6,8,12)       =    124.026428     0.000040    -0.004115   124.022313
	   43 B(6,8,21)       =    120.816676    -0.000077    -0.128511   120.688165
	   44 B(6,10,9)       =    120.153413     0.000600     1.016277   121.169690
	   45 B(7,5,10)       =    117.917911     0.000526     1.065832   118.983743
	   46 B(7,5,18)       =    120.234396    -0.000206    -0.407730   119.826667
	   47 B(7,12,8)       =    116.380442     0.000065    -0.093899   116.286543
	   48 B(8,6,10)       =    117.928826     0.000526     1.065407   118.994233
	   49 B(8,6,19)       =    120.266760    -0.000213    -0.422374   119.844386
	   50 B(9,1,14)       =    120.823969    -0.000230    -0.473903   120.350066
	   51 B(9,2,15)       =    120.855683    -0.000265    -0.527843   120.327840
	   52 B(10,5,18)      =    121.847689    -0.000320    -0.658616   121.189073
	   53 B(10,6,19)      =    121.804412    -0.000313    -0.643542   121.160871
	   54 B(11,3,16)      =    120.328425    -0.000240    -0.509456   119.818969
	   55 B(11,4,17)      =    120.315955    -0.000269    -0.571775   119.744180
	   56 B(11,13,22)     =    110.319927    -0.000266    -0.602816   109.717111
	   57 B(12,7,20)      =    115.193804     0.000031     0.118852   115.312656
	   58 B(12,8,21)      =    115.156734     0.000037     0.132789   115.289523
	   59 D(1,3,11,4)     =     -0.018609    -0.000012    -0.217869    -0.236477
	   60 D(1,3,11,13)    =    179.964785     0.000024     0.430042   180.394828
	   61 D(1,9,2,4)      =      0.018608    -0.000005    -0.088282    -0.069675
	   62 D(1,9,2,15)     =   -179.994534    -0.000018    -0.309778  -180.304312
	   63 D(1,9,10,5)     =    -30.035797    -0.000027    -0.488587   -30.524384
	   64 D(1,9,10,6)     =    149.925506    -0.000027    -0.488243   149.437263
	   65 D(2,4,11,3)     =      0.017261     0.000008     0.155358     0.172619
	   66 D(2,4,11,13)    =   -179.966135    -0.000028    -0.482959  -180.449094
	   67 D(2,9,1,3)      =     -0.019945     0.000001     0.025489     0.005544
	   68 D(2,9,1,14)     =   -179.978731    -0.000009    -0.154758  -180.133489
	   69 D(2,9,10,5)     =    150.016707    -0.000030    -0.540178   149.476528
	   70 D(2,9,10,6)     =    -30.021991    -0.000030    -0.539834   -30.561825
	   71 D(3,1,9,10)     =   -179.967461    -0.000002    -0.026101  -179.993562
	   72 D(3,11,4,17)    =    179.978848     0.000016     0.290825   180.269673
	   73 D(3,11,13,22)   =    -59.951551     0.000005     0.032198   -59.919353
	   74 D(4,2,9,10)     =    179.966149    -0.000002    -0.036717   179.929432
	   75 D(4,11,3,16)    =    180.000000    -0.000010    -0.182727   179.817273
	   76 D(4,11,13,22)   =    120.031843     0.000041     0.678451   120.710294
	   77 D(5,7,12,8)     =     -0.076323     0.000001     0.024711    -0.051612
	   78 D(5,10,6,8)     =      0.021838     0.000000     0.004053     0.025891
	   79 D(5,10,6,19)    =   -179.965395    -0.000016    -0.268858  -180.234253
	   80 D(6,8,12,7)     =      0.095732    -0.000001    -0.009779     0.085954
	   81 D(6,10,5,7)     =     -0.004437     0.000000     0.009659     0.005222
	   82 D(6,10,5,18)    =   -179.983151    -0.000016    -0.273721  -180.256873
	   83 D(7,5,10,9)     =    179.957036     0.000001     0.011128   179.968164
	   84 D(7,12,8,21)    =    179.949799     0.000008     0.135330   180.085128
	   85 D(8,6,10,9)     =   -179.939628     0.000000     0.002584  -179.937043
	   86 D(8,12,7,20)    =    179.863574     0.000009     0.156336   180.019910
	   87 D(9,1,3,11)     =      0.019955     0.000007     0.127774     0.147728
	   88 D(9,1,3,16)     =   -179.998735     0.000005     0.092613  -179.906121
	   89 D(9,2,4,11)     =     -0.017270     0.000000    -0.002142    -0.019412
	   90 D(9,2,4,17)     =   -179.979086    -0.000008    -0.137836  -180.116922
	   91 D(9,10,5,18)    =     -0.021678    -0.000016    -0.272252    -0.293930
	   92 D(9,10,6,19)    =      0.073140    -0.000016    -0.270326    -0.197187
	   93 D(10,5,7,12)    =      0.033223    -0.000001    -0.025233     0.007990
	   94 D(10,5,7,20)    =   -179.903478    -0.000009    -0.163690  -180.067168
	   95 D(10,6,8,12)    =     -0.070741    -0.000000    -0.004630    -0.075371
	   96 D(10,6,8,21)    =   -179.916933    -0.000009    -0.157570  -180.074503
	   97 D(10,9,1,14)    =      0.073752    -0.000012    -0.206348    -0.132595
	   98 D(10,9,2,15)    =     -0.046992    -0.000015    -0.258213    -0.305206
	   99 D(11,3,1,14)    =    179.979432     0.000017     0.305461   180.284893
	  100 D(11,4,2,15)    =    179.995641     0.000013     0.216148   180.211789
	  101 D(12,7,5,18)    =   -179.987706     0.000015     0.254144  -179.733562
	  102 D(12,8,6,19)    =    179.916697     0.000015     0.264578   180.181275
	  103 D(13,11,3,16)   =     -0.016400     0.000026     0.464978     0.448579
	  104 D(13,11,4,17)   =     -0.004548    -0.000020    -0.347493    -0.352040
	  105 D(14,1,3,16)    =     -0.039257     0.000015     0.270300     0.231043
	  106 D(15,2,4,17)    =      0.033826     0.000005     0.080454     0.114280
	  107 D(18,5,7,20)    =      0.075593     0.000007     0.115686     0.191280
	  108 D(19,6,8,21)    =      0.070505     0.000006     0.111638     0.182143
	 ---------------------------------------------------------------------------
	Successfully symmetrized geometry.
	 Forces used to impose fixed constraints are not included.
	  Forces zeroed: 73 

  ==> Convergence Check <==

  Measures of convergence in internal coordinates in au.
  Criteria marked as inactive (o), active & met (*), and active & unmet ( ).
  --------------------------------------------------------------------------------------------- ~
   Step     Total Energy     Delta E     MAX Force     RMS Force      MAX Disp      RMS Disp    ~
  --------------------------------------------------------------------------------------------- ~
    Convergence Criteria    1.00e-06 *    3.00e-04 *             o    1.20e-03 *             o  ~
  --------------------------------------------------------------------------------------------- ~
      1    -553.71778215   -5.54e+02      1.89e-02      4.66e-03 o    3.55e-02      9.61e-03 o  ~
  ---------------------------------------------------------------------------------------------

	Writing optimization data to binary file.
	Structure for next step:
	Cartesian Geometry (in Angstrom)
	    C    -1.2645101074   0.7178003419  -0.5684598769
	    C    -0.2869291253   0.0982816021   1.5323807538
	    C    -2.3384826046   1.2894847967   0.1009510321
	    C    -1.3595442600   0.6706528329   2.2041745699
	    C     0.7531109408  -1.0480401068  -1.8310420927
	    C     2.1768758583  -0.5203452658   0.0041991827
	    C     1.8555623345  -1.6058626834  -2.4577660396
	    C     3.2167121288  -1.1008089558  -0.7036133633
	    C    -0.2249410364   0.1149109940   0.1390352759
	    C     0.9079414216  -0.4880010120  -0.5662403744
	    C    -2.3869869645   1.2692150046   1.4898165956
	    N     3.0832785326  -1.6448496837  -1.9215274545
	    O    -3.4421942557   1.8210719787   2.1647954176
	    H    -1.2441295638   0.7485499690  -1.6489261673
	    H     0.5013742724  -0.3660067562   2.1083846947
	    H    -3.1400132013   1.7530844970  -0.4586534266
	    H    -1.3982620700   0.6503718872   3.2845751020
	    H    -0.2074403080  -1.0574766376  -2.3248060310
	    H     2.3612201128  -0.0988791636   0.9811440398
	    H     1.7656547104  -2.0496823321  -3.4409595713
	    H     4.2145229186  -1.1397896618  -0.2866994183
	    H    -3.5089815042   2.7580032419   1.9531205079
			--------------------------
			 OPTKING Finished Execution 
			--------------------------

    Structure for next step:
    Molecular point group: c1
    Full point group: C1

    Geometry (in Angstrom), charge = 0, multiplicity = 1:

    C           -1.264757312513     0.717391497573    -0.568507475389
    C           -0.287176330448     0.097872757828     1.532333155304
    C           -2.338729809744     1.289075952422     0.100903433572
    C           -1.359791465192     0.670243988531     2.204126971368
    C            0.752863735662    -1.048448951144    -1.831089691161
    C            2.176628653178    -0.520754110139     0.004151584150
    C            1.855315129364    -1.606271527696    -2.457813638129
    C            3.216464923663    -1.101217800139    -0.703660961758
    C           -0.225188241517     0.114502149643     0.138987677438
    C            0.907694216388    -0.488409856355    -0.566287972855
    C           -2.387234169683     1.268806160270     1.489768997092
    N            3.083031327457    -1.645258528048    -1.921575053024
    O           -3.442441460879     1.820663134399     2.164747819109
    H           -1.244376768959     0.748141124639    -1.648973765829
    H            0.501127067215    -0.366415600561     2.108337096220
    H           -3.140260406508     1.752675652700    -0.458701025124
    H           -1.398509275142     0.649963042873     3.284527503538
    H           -0.207687513182    -1.057885481903    -2.324853629475
    H            2.360972907633    -0.099288007921     0.981096441298
    H            1.765407505212    -2.050091176450    -3.441007169758
    H            4.214275713389    -1.140198506128    -0.286747016809
    H           -3.509228709350     2.757594397611     1.953072909447

gradient() will perform analytic gradient computation.

*** tstart() called on gpu-1-7.local
*** at Sun Nov 12 15:02:17 2017

    SCF Algorithm Type (re)set to DF.

*** tstart() called on gpu-1-7.local
*** at Sun Nov 12 15:02:17 2017

   => Loading Basis Set <=

    Name: AUG-CC-PVTZ
    Role: ORBITAL
    Keyword: BASIS
    atoms 1-11  entry C          line   221 file /cbio/jclab/home/chayas/anaconda/envs/py35/share/psi4/basis/aug-cc-pvtz.gbs 
    atoms 12    entry N          line   267 file /cbio/jclab/home/chayas/anaconda/envs/py35/share/psi4/basis/aug-cc-pvtz.gbs 
    atoms 13    entry O          line   313 file /cbio/jclab/home/chayas/anaconda/envs/py35/share/psi4/basis/aug-cc-pvtz.gbs 
    atoms 14-22 entry H          line    34 file /cbio/jclab/home/chayas/anaconda/envs/py35/share/psi4/basis/aug-cc-pvtz.gbs 


         ---------------------------------------------------------
                                   SCF
            by Justin Turney, Rob Parrish, and Andy Simmonett
                              RHF Reference
                        8 Threads,   4768 MiB Core
         ---------------------------------------------------------

  ==> Geometry <==

    Molecular point group: c1
    Full point group: C1

    Geometry (in Angstrom), charge = 0, multiplicity = 1:

       Center              X                  Y                   Z               Mass       
    ------------   -----------------  -----------------  -----------------  -----------------
           C         -1.264757312513     0.717391497573    -0.568507475389    12.000000000000
           C         -0.287176330448     0.097872757828     1.532333155304    12.000000000000
           C         -2.338729809744     1.289075952422     0.100903433572    12.000000000000
           C         -1.359791465192     0.670243988531     2.204126971368    12.000000000000
           C          0.752863735662    -1.048448951144    -1.831089691161    12.000000000000
           C          2.176628653178    -0.520754110139     0.004151584150    12.000000000000
           C          1.855315129364    -1.606271527696    -2.457813638129    12.000000000000
           C          3.216464923663    -1.101217800139    -0.703660961758    12.000000000000
           C         -0.225188241517     0.114502149643     0.138987677438    12.000000000000
           C          0.907694216388    -0.488409856355    -0.566287972855    12.000000000000
           C         -2.387234169683     1.268806160270     1.489768997092    12.000000000000
           N          3.083031327457    -1.645258528048    -1.921575053024    14.003074004780
           O         -3.442441460879     1.820663134399     2.164747819109    15.994914619560
           H         -1.244376768959     0.748141124639    -1.648973765829     1.007825032070
           H          0.501127067215    -0.366415600561     2.108337096220     1.007825032070
           H         -3.140260406508     1.752675652700    -0.458701025124     1.007825032070
           H         -1.398509275142     0.649963042873     3.284527503538     1.007825032070
           H         -0.207687513182    -1.057885481903    -2.324853629475     1.007825032070
           H          2.360972907633    -0.099288007921     0.981096441298     1.007825032070
           H          1.765407505212    -2.050091176450    -3.441007169758     1.007825032070
           H          4.214275713389    -1.140198506128    -0.286747016809     1.007825032070
           H         -3.509228709350     2.757594397611     1.953072909447     1.007825032070

  Running in c1 symmetry.

  Rotational constants: A =      0.09843  B =      0.01332  C =      0.01194 [cm^-1]
  Rotational constants: A =   2950.72401  B =    399.41913  C =    358.06280 [MHz]
  Nuclear repulsion =  697.382867581315622

  Charge       = 0
  Multiplicity = 1
  Electrons    = 90
  Nalpha       = 45
  Nbeta        = 45

  ==> Algorithm <==

  SCF Algorithm Type is DF.
  DIIS enabled.
  MOM disabled.
  Fractional occupation disabled.
  Guess Type is READ.
  Energy threshold   = 1.00e-10
  Density threshold  = 1.00e-10
  Integral threshold = 0.00e+00

  ==> Primary Basis <==

  Basis Set: AUG-CC-PVTZ
    Blend: AUG-CC-PVTZ
    Number of shells: 263
    Number of basis function: 805
    Number of Cartesian functions: 940
    Spherical Harmonics?: true
    Max angular momentum: 3

   => Loading Basis Set <=

    Name: (AUG-CC-PVTZ AUX)
    Role: JKFIT
    Keyword: DF_BASIS_SCF
    atoms 1-11  entry C          line   161 file /cbio/jclab/home/chayas/anaconda/envs/py35/share/psi4/basis/aug-cc-pvtz-jkfit.gbs 
    atoms 12    entry N          line   223 file /cbio/jclab/home/chayas/anaconda/envs/py35/share/psi4/basis/aug-cc-pvtz-jkfit.gbs 
    atoms 13    entry O          line   285 file /cbio/jclab/home/chayas/anaconda/envs/py35/share/psi4/basis/aug-cc-pvtz-jkfit.gbs 
    atoms 14-22 entry H          line    69 file /cbio/jclab/home/chayas/anaconda/envs/py35/share/psi4/basis/aug-cc-pvtz-jkfit.gbs 

  Reading orbitals from file 180, no projection.

  ==> Pre-Iterations <==

   -------------------------------------------------------
    Irrep   Nso     Nmo     Nalpha   Nbeta   Ndocc  Nsocc
   -------------------------------------------------------
     A        805     805       0       0       0       0
   -------------------------------------------------------
    Total     805     805      45      45      45       0
   -------------------------------------------------------

  ==> Integral Setup <==

  ==> DFJK: Density-Fitted J/K Matrices <==

    J tasked:                  Yes
    K tasked:                  Yes
    wK tasked:                  No
    OpenMP threads:              8
    Integrals threads:           8
    Memory (MB):              3576
    Algorithm:                Disk
    Integral Cache:           NONE
    Schwarz Cutoff:          1E-12
    Fitting Condition:       1E-12

   => Auxiliary Basis Set <=

  Basis Set: (AUG-CC-PVTZ AUX)
    Blend: AUG-CC-PVTZ-JKFIT
    Number of shells: 516
    Number of basis function: 1766
    Number of Cartesian functions: 2198
    Spherical Harmonics?: true
    Max angular momentum: 4

  Minimum eigenvalue in the overlap matrix is 6.1556240479E-07.
  Using Symmetric Orthogonalization.

  SCF Guess: Orbitals guess was supplied from a previous computation.

  ==> Iterations <==

                           Total Energy        Delta E     RMS |[F,P]|

   @DF-RHF iter   0:  -551.42784561988276   -5.51428e+02   5.84142e-04 
   @DF-RHF iter   1:  -551.28656289190587    1.41283e-01   1.78348e-04 
   @DF-RHF iter   2:  -551.28745828438923   -8.95392e-04   1.37647e-04 DIIS
   @DF-RHF iter   3:  -551.28832900201792   -8.70718e-04   1.46455e-05 DIIS
   @DF-RHF iter   4:  -551.28834273107259   -1.37291e-05   4.97540e-06 DIIS
   @DF-RHF iter   5:  -551.28834503218900   -2.30112e-06   1.58190e-06 DIIS
   @DF-RHF iter   6:  -551.28834535632927   -3.24140e-07   8.95672e-07 DIIS
   @DF-RHF iter   7:  -551.28834547295730   -1.16628e-07   2.95475e-07 DIIS
   @DF-RHF iter   8:  -551.28834550655552   -3.35982e-08   1.51378e-07 DIIS
   @DF-RHF iter   9:  -551.28834551252748   -5.97197e-09   5.09125e-08 DIIS
   @DF-RHF iter  10:  -551.28834551328555   -7.58064e-10   1.51945e-08 DIIS
   @DF-RHF iter  11:  -551.28834551337127   -8.57199e-11   6.55459e-09 DIIS
   @DF-RHF iter  12:  -551.28834551339446   -2.31921e-11   2.33663e-09 DIIS
   @DF-RHF iter  13:  -551.28834551339310    1.36424e-12   1.27610e-09 DIIS
   @DF-RHF iter  14:  -551.28834551339332   -2.27374e-13   8.45047e-10 DIIS
   @DF-RHF iter  15:  -551.28834551338241    1.09139e-11   2.81348e-10 DIIS
   @DF-RHF iter  16:  -551.28834551338900   -6.59384e-12   1.10101e-10 DIIS
   @DF-RHF iter  17:  -551.28834551340333   -1.43245e-11   4.28774e-11 DIIS

  ==> Post-Iterations <==

    Orbital Energies (a.u.)
    -----------------------

    Doubly Occupied:                                                      

       1A    -20.591163     2A    -15.561479     3A    -11.307491  
       4A    -11.272911     5A    -11.272894     6A    -11.266631  
       7A    -11.252157     8A    -11.251234     9A    -11.250092  
      10A    -11.243599    11A    -11.241206    12A    -11.236900  
      13A    -11.236849    14A     -1.408011    15A     -1.255720  
      16A     -1.174875    17A     -1.105358    18A     -1.039459  
      19A     -1.029668    20A     -1.012089    21A     -0.880045  
      22A     -0.872909    23A     -0.839330    24A     -0.812461  
      25A     -0.748333    26A     -0.724568    27A     -0.683776  
      28A     -0.664562    29A     -0.651662    30A     -0.637857  
      31A     -0.633018    32A     -0.608261    33A     -0.598001  
      34A     -0.592417    35A     -0.555364    36A     -0.542392  
      37A     -0.531481    38A     -0.520418    39A     -0.502279  
      40A     -0.487814    41A     -0.418695    42A     -0.401511  
      43A     -0.354812    44A     -0.348910    45A     -0.315579  

    Virtual:                                                              

      46A      0.022912    47A      0.028962    48A      0.031900  
      49A      0.038934    50A      0.042007    51A      0.044850  
      52A      0.054552    53A      0.056186    54A      0.060600  
      55A      0.075418    56A      0.078800    57A      0.083254  
      58A      0.087590    59A      0.093165    60A      0.095285  
      61A      0.102109    62A      0.106599    63A      0.108196  
      64A      0.111521    65A      0.113148    66A      0.116275  
      67A      0.119048    68A      0.120534    69A      0.126463  
      70A      0.128866    71A      0.132669    72A      0.133469  
      73A      0.137055    74A      0.141826    75A      0.147481  
      76A      0.148201    77A      0.151548    78A      0.152926  
      79A      0.157332    80A      0.160158    81A      0.167970  
      82A      0.171265    83A      0.175674    84A      0.181859  
      85A      0.184174    86A      0.186530    87A      0.201418  
      88A      0.204505    89A      0.210350    90A      0.216372  
      91A      0.221468    92A      0.225450    93A      0.228281  
      94A      0.234098    95A      0.241020    96A      0.241993  
      97A      0.244505    98A      0.249611    99A      0.253418  
     100A      0.259290   101A      0.259557   102A      0.263119  
     103A      0.265874   104A      0.272860   105A      0.274325  
     106A      0.275436   107A      0.286436   108A      0.289399  
     109A      0.293821   110A      0.294576   111A      0.300791  
     112A      0.301861   113A      0.304210   114A      0.313995  
     115A      0.318120   116A      0.319361   117A      0.323764  
     118A      0.326639   119A      0.329809   120A      0.335483  
     121A      0.339473   122A      0.341729   123A      0.348070  
     124A      0.356438   125A      0.359546   126A      0.362595  
     127A      0.369642   128A      0.373065   129A      0.380244  
     130A      0.385148   131A      0.392821   132A      0.396380  
     133A      0.397906   134A      0.408642   135A      0.419077  
     136A      0.420436   137A      0.425612   138A      0.426145  
     139A      0.429538   140A      0.435526   141A      0.437296  
     142A      0.439398   143A      0.444033   144A      0.448040  
     145A      0.451396   146A      0.455540   147A      0.461458  
     148A      0.462946   149A      0.467390   150A      0.468810  
     151A      0.474771   152A      0.477569   153A      0.484847  
     154A      0.487980   155A      0.489840   156A      0.492042  
     157A      0.499607   158A      0.501150   159A      0.504305  
     160A      0.506591   161A      0.508982   162A      0.513926  
     163A      0.516534   164A      0.518931   165A      0.520686  
     166A      0.525663   167A      0.528138   168A      0.529518  
     169A      0.533635   170A      0.538775   171A      0.541964  
     172A      0.547718   173A      0.550703   174A      0.556170  
     175A      0.557805   176A      0.561286   177A      0.570918  
     178A      0.576980   179A      0.579301   180A      0.588011  
     181A      0.592335   182A      0.596507   183A      0.606509  
     184A      0.612251   185A      0.614864   186A      0.624854  
     187A      0.625292   188A      0.630304   189A      0.633706  
     190A      0.637480   191A      0.650341   192A      0.657881  
     193A      0.663163   194A      0.675544   195A      0.680763  
     196A      0.687363   197A      0.691497   198A      0.699063  
     199A      0.706078   200A      0.707427   201A      0.709617  
     202A      0.719353   203A      0.720691   204A      0.726042  
     205A      0.731205   206A      0.735597   207A      0.740279  
     208A      0.747515   209A      0.757102   210A      0.763474  
     211A      0.765304   212A      0.769852   213A      0.773404  
     214A      0.777327   215A      0.789678   216A      0.798704  
     217A      0.802560   218A      0.809550   219A      0.818408  
     220A      0.821839   221A      0.828311   222A      0.840496  
     223A      0.842180   224A      0.845586   225A      0.853639  
     226A      0.857856   227A      0.861263   228A      0.869107  
     229A      0.872542   230A      0.879909   231A      0.880258  
     232A      0.882196   233A      0.887160   234A      0.894868  
     235A      0.898208   236A      0.903358   237A      0.906337  
     238A      0.909339   239A      0.920381   240A      0.921338  
     241A      0.929712   242A      0.933092   243A      0.939783  
     244A      0.945996   245A      0.950447   246A      0.953052  
     247A      0.960402   248A      0.962656   249A      0.964536  
     250A      0.973941   251A      0.974818   252A      0.978772  
     253A      0.979929   254A      0.987006   255A      0.992490  
     256A      0.998947   257A      1.000054   258A      1.006985  
     259A      1.011136   260A      1.013188   261A      1.015266  
     262A      1.024075   263A      1.024996   264A      1.030003  
     265A      1.034433   266A      1.036599   267A      1.039233  
     268A      1.043969   269A      1.050164   270A      1.054350  
     271A      1.057855   272A      1.062406   273A      1.071288  
     274A      1.084189   275A      1.085586   276A      1.087402  
     277A      1.091066   278A      1.095364   279A      1.097111  
     280A      1.097636   281A      1.103362   282A      1.106096  
     283A      1.113656   284A      1.118236   285A      1.120683  
     286A      1.124408   287A      1.128640   288A      1.139028  
     289A      1.150460   290A      1.152181   291A      1.158211  
     292A      1.161918   293A      1.165612   294A      1.174216  
     295A      1.175822   296A      1.179322   297A      1.182751  
     298A      1.186529   299A      1.191362   300A      1.192222  
     301A      1.198903   302A      1.209776   303A      1.214915  
     304A      1.217056   305A      1.218027   306A      1.220617  
     307A      1.225848   308A      1.232373   309A      1.237555  
     310A      1.251249   311A      1.266967   312A      1.272573  
     313A      1.275352   314A      1.278533   315A      1.279058  
     316A      1.288614   317A      1.293715   318A      1.299517  
     319A      1.303205   320A      1.313514   321A      1.314918  
     322A      1.320544   323A      1.328483   324A      1.332621  
     325A      1.337822   326A      1.346020   327A      1.351777  
     328A      1.363629   329A      1.370789   330A      1.382320  
     331A      1.386049   332A      1.394360   333A      1.409751  
     334A      1.413808   335A      1.419031   336A      1.426566  
     337A      1.441459   338A      1.449011   339A      1.456753  
     340A      1.461899   341A      1.463398   342A      1.475429  
[...]
	 R(11,13)         =         2.599336	       1.375510
	 R(13,22)         =         1.816367	       0.961180
	 B(1,3,11)        =         2.093114	     119.926586
	 B(1,3,16)        =         2.104662	     120.588264
	 B(1,9,2)         =         2.065202	     118.327339
	 B(1,9,10)        =         2.108866	     120.829103
	 B(2,4,11)        =         2.093134	     119.927739
	 B(2,4,17)        =         2.114642	     121.160052
	 B(2,9,10)        =         2.109109	     120.843059
	 B(3,1,9)         =         2.110962	     120.949205
	 B(3,1,14)        =         2.084325	     119.423035
	 B(3,11,4)        =         2.091630	     119.841547
	 B(3,11,13)       =         2.120784	     121.511953
	 B(4,2,9)         =         2.111903	     121.003142
	 B(4,2,15)        =         2.084397	     119.427148
	 B(4,11,13)       =         2.067517	     118.459989
	 B(5,7,12)        =         2.159280	     123.717652
	 B(5,7,20)        =         2.095245	     120.048715
	 B(5,10,6)        =         2.036164	     116.663581
	 B(5,10,9)        =         2.124218	     121.708709
	 B(6,8,12)        =         2.159208	     123.713484
	 B(6,8,21)        =         2.095280	     120.050679
	 B(6,10,9)        =         2.122804	     121.627706
	 B(7,5,10)        =         2.088262	     119.648586
	 B(7,5,18)        =         2.091267	     119.820774
	 B(7,12,8)        =         2.035113	     116.603401
	 B(8,6,10)        =         2.088344	     119.653282
	 B(8,6,19)        =         2.091723	     119.846926
	 B(9,1,14)        =         2.087811	     119.622748
	 B(9,2,15)        =         2.086600	     119.553399
	 B(10,5,18)       =         2.103316	     120.511126
	 B(10,6,19)       =         2.102803	     120.481744
	 B(11,3,16)       =         2.085393	     119.484232
	 B(11,4,17)       =         2.075372	     118.910081
	 B(11,13,22)      =         1.902956	     109.031323
	 B(12,7,20)       =         2.028640	     116.232529
	 B(12,8,21)       =         2.028680	     116.234818
	 D(1,3,11,4)      =        -0.033460	      -1.917100
	 D(1,3,11,13)     =        -3.087085	    -176.876965
	 D(1,9,2,4)       =        -0.009714	      -0.556556
	 D(1,9,2,15)      =         3.106090	     177.965846
	 D(1,9,10,5)      =        -0.626652	     -35.904534
	 D(1,9,10,6)      =         2.515374	     144.120330
	 D(2,4,11,3)      =         0.022201	       1.272046
	 D(2,4,11,13)     =         3.078497	     176.384893
	 D(2,9,1,3)       =        -0.001700	      -0.097422
	 D(2,9,1,14)      =         3.125595	     179.083410
	 D(2,9,10,5)      =         2.510380	     143.834158
	 D(2,9,10,6)      =        -0.630779	     -36.140979
	 D(3,1,9,10)      =         3.135444	     179.647705
	 D(3,11,4,17)     =        -3.110238	    -178.203517
	 D(3,11,13,22)    =        -1.043576	     -59.792497
	 D(4,2,9,10)      =         3.136328	     179.698354
	 D(4,11,3,16)     =         3.114177	     178.429198
	 D(4,11,13,22)    =         2.184805	     125.180133
	 D(5,7,12,8)      =         0.000272	       0.015599
	 D(5,10,6,8)      =         0.000241	       0.013815
	 D(5,10,6,19)     =         3.114823	     178.466228
	 D(6,8,12,7)      =        -0.000638	      -0.036550
	 D(6,10,5,7)      =        -0.000577	      -0.033041
	 D(6,10,5,18)     =         3.112922	     178.357272
	 D(7,5,10,9)      =         3.141429	     179.990649
	 D(7,12,8,21)     =        -3.135808	    -179.668571
	 D(8,6,10,9)      =         3.141421	     179.990145
	 D(8,12,7,20)     =        -3.134636	    -179.601387
	 D(9,1,3,11)      =         0.023273	       1.333433
	 D(9,1,3,16)      =        -3.124432	    -179.016745
	 D(9,2,4,11)      =        -0.000510	      -0.029208
	 D(9,2,4,17)      =         3.131719	     179.434310
	 D(9,10,5,18)     =        -0.028258	      -1.619038
	 D(9,10,6,19)     =        -0.027182	      -1.557441
	 D(10,5,7,12)     =         0.000338	       0.019353
	 D(10,5,7,20)     =         3.135003	     179.622442
	 D(10,6,8,12)     =         0.000387	       0.022157
	 D(10,6,8,21)     =         3.135324	     179.640826
	 D(10,9,1,14)     =        -0.020446	      -1.171463
	 D(10,9,2,15)     =        -0.031054	      -1.779243
	 D(11,3,1,14)     =        -3.104051	    -177.849014
	 D(11,4,2,15)     =        -3.116346	    -178.553451
	 D(12,7,5,18)     =        -3.113357	    -178.382197
	 D(12,8,6,19)     =        -3.114369	    -178.440192
	 D(13,11,3,16)    =         0.060551	       3.469333
	 D(13,11,4,17)    =        -0.053942	      -3.090670
	 D(14,1,3,16)     =         0.031430	       1.800808
	 D(15,2,4,17)     =         0.015884	       0.910067
	 D(18,5,7,20)     =         0.021309	       1.220892
	 D(19,6,8,21)     =         0.020568	       1.178477

	Current energy   :      -553.7216945004

	Energy change for the previous step:
		Projected    :         0.0000036438
		Actual       :        -0.0000001134

	Performing BFGS update.
	Previous computed or guess Hessian on step 1.
	Steps to be used in Hessian update: 6 5
	Adding user-defined constraint: Fragment 1; Coordinate 73:
		Value =    -1.043576; Fixed value    =    -1.047200
		Force =    -0.002356; Force constant =     0.650000
	Removing off-diagonal coupling between coordinate 73 and others.
	Taking RFO optimization step.
	Going to follow RFO solution 1.
	Rejecting RFO root 1 because normalization gives large value.
	Using RFO vector 2.
	Norm of target step-size    0.00672
	Projected energy change by RFO approximation:        -0.0000007803

	Back-transformation to cartesian coordinates...
	Successfully converged to displaced geometry.

	--- Internal Coordinate Step in ANG or DEG, aJ/ANG or AJ/DEG ---
	 ---------------------------------------------------------------------------
	   Coordinate                Previous        Force       Change         New 
	   ----------                --------       ------       ------       ------
	    1 R(1,3)          =      1.385334    -0.000106    -0.000017     1.385317
	    2 R(1,9)          =      1.394078    -0.000099     0.000005     1.394082
	    3 R(1,14)         =      1.079865     0.000181     0.000060     1.079924
	    4 R(2,4)          =      1.385191    -0.000051    -0.000018     1.385173
	    5 R(2,9)          =      1.394201    -0.000135    -0.000007     1.394194
	    6 R(2,15)         =      1.079841     0.000158     0.000045     1.079886
	    7 R(3,11)         =      1.388224     0.000087     0.000026     1.388250
	    8 R(3,16)         =      1.079835     0.000079     0.000033     1.079868
	    9 R(4,11)         =      1.386365    -0.000003     0.000032     1.386397
	   10 R(4,17)         =      1.078820     0.000051     0.000009     1.078829
	   11 R(5,7)          =      1.385548     0.000061     0.000010     1.385558
	   12 R(5,10)         =      1.391960    -0.000147     0.000002     1.391961
	   13 R(5,18)         =      1.079535     0.000218     0.000074     1.079609
	   14 R(6,8)          =      1.385552     0.000059     0.000016     1.385568
	   15 R(6,10)         =      1.391957    -0.000108     0.000015     1.391972
	   16 R(6,19)         =      1.079555     0.000189     0.000062     1.079617
	   17 R(7,12)         =      1.335103    -0.000085     0.000017     1.335120
	   18 R(7,20)         =      1.081118    -0.000007     0.000008     1.081126
	   19 R(8,12)         =      1.335070    -0.000074     0.000013     1.335083
	   20 R(8,21)         =      1.081133    -0.000004     0.000011     1.081144
	   21 R(9,10)         =      1.461900     0.000054    -0.000231     1.461669
	   22 R(11,13)        =      1.375510     0.000262     0.000028     1.375538
	   23 R(13,22)        =      0.961180     0.000183     0.000061     0.961241
	   24 B(1,3,11)       =    119.926586     0.000000    -0.000839   119.925747
	   25 B(1,3,16)       =    120.588264     0.000001     0.000964   120.589228
	   26 B(1,9,2)        =    118.327339     0.000002    -0.001356   118.325983
	   27 B(1,9,10)       =    120.829103    -0.000001    -0.002661   120.826442
	   28 B(2,4,11)       =    119.927739    -0.000000    -0.000574   119.927165
	   29 B(2,4,17)       =    121.160052    -0.000000     0.001674   121.161726
	   30 B(2,9,10)       =    120.843059    -0.000000     0.003926   120.846985
	   31 B(3,1,9)        =    120.949205    -0.000001     0.001774   120.950979
	   32 B(3,1,14)       =    119.423035    -0.000000    -0.011458   119.411577
	   33 B(3,11,4)       =    119.841547    -0.000000    -0.001215   119.840332
	   34 B(3,11,13)      =    121.511953    -0.000000     0.004471   121.516424
	   35 B(4,2,9)        =    121.003142    -0.000001     0.001682   121.004824
	   36 B(4,2,15)       =    119.427148    -0.000001    -0.012346   119.414803
	   37 B(4,11,13)      =    118.459989    -0.000000    -0.006440   118.453549
	   38 B(5,7,12)       =    123.717652    -0.000000     0.007245   123.724897
	   39 B(5,7,20)       =    120.048715     0.000000    -0.012245   120.036470
	   40 B(5,10,6)       =    116.663581     0.000002    -0.007818   116.655763
	   41 B(5,10,9)       =    121.708709    -0.000002     0.000265   121.708974
	   42 B(6,8,12)       =    123.713484    -0.000000     0.006180   123.719664
	   43 B(6,8,21)       =    120.050679     0.000000    -0.011022   120.039657
	   44 B(6,10,9)       =    121.627706    -0.000000     0.007557   121.635263
	   45 B(7,5,10)       =    119.648586    -0.000001     0.002868   119.651453
	   46 B(7,5,18)       =    119.820774     0.000001    -0.013629   119.807145
	   47 B(7,12,8)       =    116.603401     0.000001    -0.012073   116.591328
	   48 B(8,6,10)       =    119.653282    -0.000001     0.003366   119.656648
	   49 B(8,6,19)       =    119.846926     0.000001    -0.014724   119.832202
	   50 B(9,1,14)       =    119.622748     0.000001     0.009285   119.632033
	   51 B(9,2,15)       =    119.553399     0.000001     0.010440   119.563839
	   52 B(10,5,18)      =    120.511126     0.000000     0.011404   120.522530
	   53 B(10,6,19)      =    120.481744     0.000000     0.011859   120.493603
	   54 B(11,3,16)      =    119.484232    -0.000001    -0.000081   119.484152
	   55 B(11,4,17)      =    118.910081     0.000000    -0.000879   118.909202
	   56 B(11,13,22)     =    109.031323    -0.000001    -0.001005   109.030318
	   57 B(12,7,20)      =    116.232529    -0.000000     0.003985   116.236514
	   58 B(12,8,21)      =    116.234818    -0.000000     0.003656   116.238475
	   59 D(1,3,11,4)     =     -1.917100    -0.000001    -0.016631    -1.933731
	   60 D(1,3,11,13)    =   -176.876965     0.000001     0.026433  -176.850531
	   61 D(1,9,2,4)      =     -0.556556    -0.000000    -0.031787    -0.588343
	   62 D(1,9,2,15)     =    177.965846    -0.000000    -0.042045   177.923801
	   63 D(1,9,10,5)     =    -35.904534     0.000000     0.070521   -35.834013
	   64 D(1,9,10,6)     =    144.120330    -0.000000     0.045898   144.166227
	   65 D(2,4,11,3)     =      1.272046     0.000001     0.010929     1.282976
	   66 D(2,4,11,13)    =    176.384893    -0.000001    -0.030284   176.354609
	   67 D(2,9,1,3)      =     -0.097422     0.000000     0.025956    -0.071466
	   68 D(2,9,1,14)     =    179.083410     0.000000    -0.006064   179.077346
	   69 D(2,9,10,5)     =    143.834158    -0.000000     0.047609   143.881767
	   70 D(2,9,10,6)     =    -36.140979    -0.000000     0.022986   -36.117992
	   71 D(3,1,9,10)     =    179.647705     0.000000     0.003624   179.651328
	   72 D(3,11,4,17)    =   -178.203517     0.000001    -0.017011  -178.220528
	   73 D(3,11,13,22)   =    -59.792497    -0.000005    -0.047466   -59.839963
	   74 D(4,2,9,10)     =    179.698354    -0.000000    -0.009432   179.688922
	   75 D(4,11,3,16)    =    178.429198    -0.000001    -0.024959   178.404238
	   76 D(4,11,13,22)   =    125.180133    -0.000003    -0.005227   125.174907
	   77 D(5,7,12,8)     =      0.015599    -0.000000    -0.065347    -0.049747
	   78 D(5,10,6,8)     =      0.013815    -0.000000    -0.075425    -0.061610
	   79 D(5,10,6,19)    =    178.466228    -0.000000    -0.054034   178.412194
	   80 D(6,8,12,7)     =     -0.036550    -0.000000    -0.065184    -0.101733
	   81 D(6,10,5,7)     =     -0.033041    -0.000000    -0.044359    -0.077400
	   82 D(6,10,5,18)    =    178.357272    -0.000000    -0.017859   178.339413
	   83 D(7,5,10,9)     =    179.990649    -0.000000    -0.067819   179.922829
	   84 D(7,12,8,21)    =   -179.668571     0.000001     0.108221  -179.560350
	   85 D(8,6,10,9)     =    179.990145    -0.000000    -0.051985   179.938161
	   86 D(8,12,7,20)    =   -179.601387     0.000000     0.082430  -179.518957
	   87 D(9,1,3,11)     =      1.333433     0.000000    -0.002097     1.331336
	   88 D(9,1,3,16)     =   -179.016745     0.000000     0.006320  -179.010425
	   89 D(9,2,4,11)     =     -0.029208    -0.000000     0.013670    -0.015537
	   90 D(9,2,4,17)     =    179.434310    -0.000000     0.042240   179.476549
	   91 D(9,10,5,18)    =     -1.619038    -0.000000    -0.041320    -1.660358
	   92 D(9,10,6,19)    =     -1.557441    -0.000000    -0.030594    -1.588035
	   93 D(10,5,7,12)    =      0.019353     0.000000     0.121198     0.140551
	   94 D(10,5,7,20)    =    179.622442    -0.000000    -0.031854   179.590588
	   95 D(10,6,8,12)    =      0.022157     0.000000     0.137435     0.159593
	   96 D(10,6,8,21)    =    179.640826    -0.000000    -0.042181   179.598645
	   97 D(10,9,1,14)    =     -1.171463     0.000000    -0.028396    -1.199860
	   98 D(10,9,2,15)    =     -1.779243    -0.000000    -0.019691    -1.798934
	   99 D(11,3,1,14)    =   -177.849014     0.000000     0.029685  -177.819329
	  100 D(11,4,2,15)    =   -178.553451    -0.000000     0.023582  -178.529869
	  101 D(12,7,5,18)    =   -178.382197     0.000000     0.094485  -178.287712
	  102 D(12,8,6,19)    =   -178.440192     0.000000     0.115774  -178.324419
	  103 D(13,11,3,16)   =      3.469333     0.000001     0.018105     3.487439
	  104 D(13,11,4,17)   =     -3.090670    -0.000001    -0.058225    -3.148895
	  105 D(14,1,3,16)    =      1.800808     0.000000     0.038103     1.838911
	  106 D(15,2,4,17)    =      0.910067    -0.000000     0.052151     0.962218
	  107 D(18,5,7,20)    =      1.220892    -0.000000    -0.058568     1.162325
	  108 D(19,6,8,21)    =      1.178477    -0.000000    -0.063843     1.114634
	 ---------------------------------------------------------------------------
	Successfully symmetrized geometry.
	 Forces used to impose fixed constraints are not included.
	  Forces zeroed: 73 

  ==> Convergence Check <==

  Measures of convergence in internal coordinates in au.
  Criteria marked as inactive (o), active & met (*), and active & unmet ( ).
  ---------------------------------------------------------------------------------------------
   Step     Total Energy     Delta E     MAX Force     RMS Force      MAX Disp      RMS Disp   
  ---------------------------------------------------------------------------------------------
    Convergence Criteria    1.00e-06 *    3.00e-04 *             o    1.20e-03 *             o
  ---------------------------------------------------------------------------------------------
      7    -553.72169450   -1.13e-07 *    1.92e-04 *    2.54e-05 o    2.40e-03      6.46e-04 o  ~
  ---------------------------------------------------------------------------------------------


  **** Optimization is complete! (in 7 steps) ****

  ==> Optimization Summary <==

  Measures of convergence in internal coordinates in au.
  --------------------------------------------------------------------------------------------------------------- ~
   Step         Total Energy             Delta E       MAX Force       RMS Force        MAX Disp        RMS Disp  ~
  --------------------------------------------------------------------------------------------------------------- ~
      1    -553.717782154501   -553.717782154501      0.01887545      0.00465771      0.03546784      0.00961393  ~
      2    -553.720771948375     -0.002989793874      0.00495447      0.00145680      0.03885623      0.00959751  ~
      3    -553.721464984949     -0.000693036574      0.00100397      0.00036999      0.03573783      0.00961065  ~
      4    -553.721645825258     -0.000180840309      0.00038538      0.00015462      0.03578640      0.00712670  ~
      5    -553.721688326067     -0.000042500809      0.00035117      0.00011670      0.01323950      0.00266210  ~
      6    -553.721694387074     -0.000006061007      0.00027761      0.00004938      0.00416498      0.00094212  ~
      7    -553.721694500442     -0.000000113369      0.00027746      0.00003683      0.00239870      0.00064636  ~
  --------------------------------------------------------------------------------------------------------------- ~

	Writing optimization data to binary file.
	Final energy is   -553.7216945004424
	Final (previous) structure:
	Cartesian Geometry (in Angstrom)
	    C    -1.2346413102   0.7778774201  -0.5630367148
	    C    -0.3196036047   0.0549496250   1.5278630482
	    C    -2.3088245462   1.3474831508   0.1009136801
	    C    -1.3841977420   0.6340774726   2.1986857189
	    C     0.7492188509  -1.0969707859  -1.8057281350
	    C     2.1883059195  -0.4791913881  -0.0276877699
	    C     1.8483886580  -1.6585497673  -2.4351711464
	    C     3.2281614164  -1.0665590159  -0.7301508517
	    C    -0.2240930173   0.1221294361   0.1385606224
	    C     0.9043890391  -0.4846655362  -0.5653427722
	    C    -2.3743536927   1.2931884672   1.4865266100
	    N     3.0801569237  -1.6533669724  -1.9201769976
	    O    -3.4557210559   1.7915642679   2.1752157585
	    H    -1.1741625731   0.8552437322  -1.6384271705
	    H     0.4348076868  -0.4766434162   2.0885145291
	    H    -3.0963639884   1.8403034276  -0.4494992800
	    H    -1.4653256529   0.5758439857   3.2728739835
	    H    -0.2243562290  -1.1600408057  -2.2678630430
	    H     2.3833074534   0.0006142750   0.9195182501
	    H     1.7341107034  -2.1411085153  -3.3958442505
	    H     4.2289737392  -1.0608729143  -0.3212608633
	    H    -3.5460195315   2.7286413221   1.9813091852
	Saving final (previous) structure.
			--------------------------
			 OPTKING Finished Execution 
			--------------------------

    Final optimized geometry and variables:
    Molecular point group: c1
    Full point group: C1

    Geometry (in Angstrom), charge = 0, multiplicity = 1:

    C           -1.234641310226     0.777877420098    -0.563036714798
    C           -0.319603604744     0.054949625039     1.527863048196
    C           -2.308824546153     1.347483150793     0.100913680111
    C           -1.384197741968     0.634077472563     2.198685718933
    C            0.749218850867    -1.096970785891    -1.805728135031
    C            2.188305919491    -0.479191388110    -0.027687769879
    C            1.848388658047    -1.658549767277    -2.435171146375
    C            3.228161416449    -1.066559015895    -0.730150851651
    C           -0.224093017261     0.122129436113     0.138560622436
    C            0.904389039129    -0.484665536222    -0.565342772199
    C           -2.374353692706     1.293188467208     1.486526609983
    N            3.080156923692    -1.653366972403    -1.920176997589
    O           -3.455721055858     1.791564267875     2.175215758529
    H           -1.174162573133     0.855243732158    -1.638427170496
    H            0.434807686815    -0.476643416162     2.088514529129
    H           -3.096363988351     1.840303427638    -0.449499280011
    H           -1.465325652882     0.575843985680     3.272873983458
    H           -0.224356228959    -1.160040805676    -2.267863043047
    H            2.383307453379     0.000614275049     0.919518250063
    H            1.734110703430    -2.141108515254    -3.395844250533
    H            4.228973739166    -1.060872914307    -0.321260863286
    H           -3.546019531491     2.728641322065     1.981309185175

	Cleaning optimization helper files.

*** Psi4 exiting successfully. Buy a developer a beer!
