
    -----------------------------------------------------------------------
          Psi4: An Open-Source Ab Initio Electronic Structure Package
                               Psi4 1.1 release

                         Git: Rev {HEAD} add49b9 


    R. M. Parrish, L. A. Burns, D. G. A. Smith, A. C. Simmonett,
    A. E. DePrince III, E. G. Hohenstein, U. Bozkaya, A. Yu. Sokolov,
    R. Di Remigio, R. M. Richard, J. F. Gonthier, A. M. James,
    H. R. McAlexander, A. Kumar, M. Saitow, X. Wang, B. P. Pritchard,
    P. Verma, H. F. Schaefer III, K. Patkowski, R. A. King, E. F. Valeev,
    F. A. Evangelista, J. M. Turney, T. D. Crawford, and C. D. Sherrill,
    J. Chem. Theory Comput. in press (2017).
    (doi: 10.1021/acs.jctc.7b00174)

    -----------------------------------------------------------------------


    Psi4 started on: Sunday, 12 November 2017 04:07AM

    Process ID:   8930
    PSIDATADIR: /cbio/jclab/home/chayas/anaconda/envs/py35/share/psi4
    Memory:     500.0 MiB
    Threads:    8
    
  ==> Input File <==

--------------------------------------------------------------------------

memory 5 Gb

molecule phepyrOH_anion {
  symmetry C1
  -1 1 
  C      1.885   -1.036   -0.112
  C      2.878   -1.652   2.002
  C      0.807   -0.463   0.561
  C      1.800   -1.079   2.676
  C      4.147   -3.609   -0.187
  C      5.012   -1.417   -0.668
  C      5.236   -4.129   -0.867
  C      6.062   -2.035   -1.327
  C      2.921   -1.631   0.608
  C      4.040   -2.226   -0.090
  C      0.764   -0.484   1.955
  N      6.200   -3.375   -1.442
  O      -0.227   0.042   2.574
  H      1.904   -1.011   -1.199
  H      3.678   -2.112   2.577
  H      0.011   -0.006   -0.025
  H      1.791   -1.108   3.764
  H      3.408   -4.273   0.250
  H      4.962   -0.334   -0.612
  H      5.365   -5.201   -0.973
  H      6.847   -1.448   -1.793
  units Angstrom
}

dih_string = "1 9 10 5 255"
set optking fixed_dihedral = $dih_string

optimize('MP2/aug-cc-PVTZ')
--------------------------------------------------------------------------

  Memory set to   4.657 GiB by Python driver.
gradient() will perform analytic gradient computation.

*** tstart() called on gpu-2-6.local
*** at Sun Nov 12 04:07:06 2017

    SCF Algorithm Type (re)set to DF.

*** tstart() called on gpu-2-6.local
*** at Sun Nov 12 04:07:06 2017

   => Loading Basis Set <=

    Name: AUG-CC-PVTZ
    Role: ORBITAL
    Keyword: BASIS
    atoms 1-11  entry C          line   221 file /cbio/jclab/home/chayas/anaconda/envs/py35/share/psi4/basis/aug-cc-pvtz.gbs 
    atoms 12    entry N          line   267 file /cbio/jclab/home/chayas/anaconda/envs/py35/share/psi4/basis/aug-cc-pvtz.gbs 
    atoms 13    entry O          line   313 file /cbio/jclab/home/chayas/anaconda/envs/py35/share/psi4/basis/aug-cc-pvtz.gbs 
    atoms 14-21 entry H          line    34 file /cbio/jclab/home/chayas/anaconda/envs/py35/share/psi4/basis/aug-cc-pvtz.gbs 


         ---------------------------------------------------------
                                   SCF
            by Justin Turney, Rob Parrish, and Andy Simmonett
                              RHF Reference
                        8 Threads,   4768 MiB Core
         ---------------------------------------------------------

  ==> Geometry <==

    Molecular point group: c1
    Full point group: C1

    Geometry (in Angstrom), charge = -1, multiplicity = 1:

       Center              X                  Y                   Z               Mass       
    ------------   -----------------  -----------------  -----------------  -----------------
           C         -1.278561008451     0.724165735893    -0.568278800487    12.000000000000
           C         -0.285561008451     0.108165735893     1.545721199513    12.000000000000
           C         -2.356561008451     1.297165735893     0.104721199513    12.000000000000
           C         -1.363561008451     0.681165735893     2.219721199513    12.000000000000
           C          0.983438991549    -1.848834264107    -0.643278800487    12.000000000000
           C          1.848438991549     0.343165735893    -1.124278800487    12.000000000000
           C          2.072438991549    -2.368834264107    -1.323278800487    12.000000000000
           C          2.898438991549    -0.274834264107    -1.783278800487    12.000000000000
           C         -0.242561008451     0.129165735893     0.151721199513    12.000000000000
           C          0.876438991549    -0.465834264107    -0.546278800487    12.000000000000
           C         -2.399561008451     1.276165735893     1.498721199513    12.000000000000
           N          3.036438991549    -1.614834264107    -1.898278800487    14.003074004780
           O         -3.390561008451     1.802165735893     2.117721199513    15.994914619560
           H         -1.259561008451     0.749165735893    -1.655278800487     1.007825032070
           H          0.514438991549    -0.351834264107     2.120721199513     1.007825032070
           H         -3.152561008451     1.754165735893    -0.481278800487     1.007825032070
           H         -1.372561008451     0.652165735893     3.307721199513     1.007825032070
           H          0.244438991549    -2.512834264107    -0.206278800487     1.007825032070
           H          1.798438991549     1.426165735893    -1.068278800487     1.007825032070
           H          2.201438991549    -3.440834264107    -1.429278800487     1.007825032070
           H          3.683438991549     0.312165735893    -2.249278800487     1.007825032070

  Running in c1 symmetry.

  Rotational constants: A =      0.09733  B =      0.01335  C =      0.01289 [cm^-1]
  Rotational constants: A =   2917.95894  B =    400.34785  C =    386.51948 [MHz]
  Nuclear repulsion =  685.622517198310788

  Charge       = -1
  Multiplicity = 1
  Electrons    = 90
  Nalpha       = 45
  Nbeta        = 45

  ==> Algorithm <==

  SCF Algorithm Type is DF.
  DIIS enabled.
  MOM disabled.
  Fractional occupation disabled.
  Guess Type is SAD.
  Energy threshold   = 1.00e-10
  Density threshold  = 1.00e-10
  Integral threshold = 0.00e+00

  ==> Primary Basis <==

  Basis Set: AUG-CC-PVTZ
    Blend: AUG-CC-PVTZ
    Number of shells: 254
    Number of basis function: 782
    Number of Cartesian functions: 915
    Spherical Harmonics?: true
    Max angular momentum: 3

   => Loading Basis Set <=

    Name: (AUG-CC-PVTZ AUX)
    Role: JKFIT
    Keyword: DF_BASIS_SCF
    atoms 1-11  entry C          line   161 file /cbio/jclab/home/chayas/anaconda/envs/py35/share/psi4/basis/aug-cc-pvtz-jkfit.gbs 
    atoms 12    entry N          line   223 file /cbio/jclab/home/chayas/anaconda/envs/py35/share/psi4/basis/aug-cc-pvtz-jkfit.gbs 
    atoms 13    entry O          line   285 file /cbio/jclab/home/chayas/anaconda/envs/py35/share/psi4/basis/aug-cc-pvtz-jkfit.gbs 
    atoms 14-21 entry H          line    69 file /cbio/jclab/home/chayas/anaconda/envs/py35/share/psi4/basis/aug-cc-pvtz-jkfit.gbs 

  ==> Pre-Iterations <==

   -------------------------------------------------------
    Irrep   Nso     Nmo     Nalpha   Nbeta   Ndocc  Nsocc
   -------------------------------------------------------
     A        782     782       0       0       0       0
   -------------------------------------------------------
    Total     782     782      45      45      45       0
   -------------------------------------------------------

  ==> Integral Setup <==

  ==> DFJK: Density-Fitted J/K Matrices <==

    J tasked:                  Yes
    K tasked:                  Yes
    wK tasked:                  No
    OpenMP threads:              8
    Integrals threads:           8
    Memory (MB):              3576
    Algorithm:                Disk
    Integral Cache:           NONE
    Schwarz Cutoff:          1E-12
    Fitting Condition:       1E-12

   => Auxiliary Basis Set <=

  Basis Set: (AUG-CC-PVTZ AUX)
    Blend: AUG-CC-PVTZ-JKFIT
    Number of shells: 502
    Number of basis function: 1720
    Number of Cartesian functions: 2143
    Spherical Harmonics?: true
    Max angular momentum: 4

  Minimum eigenvalue in the overlap matrix is 7.5895615765E-07.
  Using Symmetric Orthogonalization.

  SCF Guess: Superposition of Atomic Densities via on-the-fly atomic UHF.

  ==> Iterations <==

                           Total Energy        Delta E     RMS |[F,P]|

   @DF-RHF iter   0:  -561.05824901439462   -5.61058e+02   2.01440e-02 
   @DF-RHF iter   1:  -550.25617774680165    1.08021e+01   2.25090e-03 
   @DF-RHF iter   2:  -550.57886909429669   -3.22691e-01   1.40920e-03 DIIS
   @DF-RHF iter   3:  -550.68081179005355   -1.01943e-01   5.60552e-04 DIIS
   @DF-RHF iter   4:  -550.70476713662151   -2.39553e-02   1.30785e-04 DIIS
   @DF-RHF iter   5:  -550.70778692711451   -3.01979e-03   7.12565e-05 DIIS
   @DF-RHF iter   6:  -550.70837265454793   -5.85727e-04   3.13441e-05 DIIS
   @DF-RHF iter   7:  -550.70848238308781   -1.09729e-04   1.24107e-05 DIIS
   @DF-RHF iter   8:  -550.70849856274981   -1.61797e-05   4.15379e-06 DIIS
   @DF-RHF iter   9:  -550.70850237114269   -3.80839e-06   1.94993e-06 DIIS
   @DF-RHF iter  10:  -550.70850345482722   -1.08368e-06   9.05482e-07 DIIS
   @DF-RHF iter  11:  -550.70850367417108   -2.19344e-07   2.74820e-07 DIIS
   @DF-RHF iter  12:  -550.70850369372840   -1.95573e-08   1.01456e-07 DIIS
   @DF-RHF iter  13:  -550.70850369571099   -1.98258e-09   4.00362e-08 DIIS
   @DF-RHF iter  14:  -550.70850369608900   -3.78009e-10   1.37818e-08 DIIS
   @DF-RHF iter  15:  -550.70850369612413   -3.51292e-11   6.85274e-09 DIIS
   @DF-RHF iter  16:  -550.70850369614345   -1.93268e-11   2.57836e-09 DIIS
   @DF-RHF iter  17:  -550.70850369613936    4.09273e-12   1.17997e-09 DIIS
   @DF-RHF iter  18:  -550.70850369612663    1.27329e-11   4.51058e-10 DIIS
   @DF-RHF iter  19:  -550.70850369612606    5.68434e-13   2.41143e-10 DIIS
   @DF-RHF iter  20:  -550.70850369614141   -1.53477e-11   1.01748e-10 DIIS
   @DF-RHF iter  21:  -550.70850369614027    1.13687e-12   4.86173e-11 DIIS

  ==> Post-Iterations <==

    Orbital Energies (a.u.)
    -----------------------

    Doubly Occupied:                                                      

       1A    -20.284309     2A    -15.463040     3A    -11.173427  
       4A    -11.173387     5A    -11.145807     6A    -11.127560  
       7A    -11.127504     8A    -11.104545     9A    -11.093389  
      10A    -11.093358    11A    -11.070421    12A    -11.053507  
      13A    -11.053463    14A     -1.147533    15A     -1.117838  
      16A     -1.018051    17A     -0.956876    18A     -0.930205  
      19A     -0.860454    20A     -0.835154    21A     -0.749891  
      22A     -0.734488    23A     -0.676551    24A     -0.646082  
      25A     -0.594202    26A     -0.558034    27A     -0.547041  
      28A     -0.502592    29A     -0.495272    30A     -0.488084  
      31A     -0.476804    32A     -0.435535    33A     -0.430386  
      34A     -0.417441    35A     -0.402766    36A     -0.367878  
      37A     -0.355632    38A     -0.343980    39A     -0.315056  
      40A     -0.281896    41A     -0.258750    42A     -0.247921  
      43A     -0.203350    44A     -0.191592    45A     -0.103058  

    Virtual:                                                              

      46A      0.096631    47A      0.099179    48A      0.115722  
      49A      0.116583    50A      0.124540    51A      0.124629  
      52A      0.131471    53A      0.131868    54A      0.161153  
      55A      0.166139    56A      0.181022    57A      0.184024  
      58A      0.184695    59A      0.185675    60A      0.189470  
      61A      0.193242    62A      0.193316    63A      0.200988  
      64A      0.205700    65A      0.208568    66A      0.211928  
      67A      0.217130    68A      0.221345    69A      0.223020  
      70A      0.227160    71A      0.228773    72A      0.230111  
      73A      0.231924    74A      0.237820    75A      0.242487  
      76A      0.246681    77A      0.250709    78A      0.258206  
      79A      0.261568    80A      0.266100    81A      0.269036  
      82A      0.272686    83A      0.285876    84A      0.291983  
      85A      0.296814    86A      0.301714    87A      0.306061  
      88A      0.307140    89A      0.317465    90A      0.320805  
      91A      0.322341    92A      0.333627    93A      0.335210  
      94A      0.337583    95A      0.341380    96A      0.343831  
      97A      0.352080    98A      0.356815    99A      0.359100  
     100A      0.360720   101A      0.368310   102A      0.370014  
     103A      0.376756   104A      0.390242   105A      0.391344  
     106A      0.396614   107A      0.396914   108A      0.399551  
     109A      0.405557   110A      0.409146   111A      0.411572  
     112A      0.415478   113A      0.421473   114A      0.422250  
     115A      0.425611   116A      0.427329   117A      0.446789  
     118A      0.452875   119A      0.454268   120A      0.456452  
     121A      0.461546   122A      0.466180   123A      0.471048  
     124A      0.471536   125A      0.479842   126A      0.486062  
     127A      0.492470   128A      0.504801   129A      0.504868  
     130A      0.509461   131A      0.512042   132A      0.519956  
     133A      0.520951   134A      0.530039   135A      0.538912  
     136A      0.543956   137A      0.546506   138A      0.551906  
     139A      0.556548   140A      0.561497   141A      0.565476  
     142A      0.568231   143A      0.576289   144A      0.578630  
     145A      0.578792   146A      0.579744   147A      0.587027  
     148A      0.590231   149A      0.592203   150A      0.593460  
     151A      0.597493   152A      0.599407   153A      0.604618  
     154A      0.610414   155A      0.615033   156A      0.620087  
     157A      0.621738   158A      0.622472   159A      0.623268  
     160A      0.629097   161A      0.638834   162A      0.639470  
     163A      0.642290   164A      0.646983   165A      0.662775  
     166A      0.666789   167A      0.668718   168A      0.674457  
     169A      0.677823   170A      0.679439   171A      0.681818  
     172A      0.689682   173A      0.693780   174A      0.697674  
     175A      0.711213   176A      0.713225   177A      0.717267  
     178A      0.718529   179A      0.725866   180A      0.726267  
     181A      0.740181   182A      0.740518   183A      0.746149  
     184A      0.757219   185A      0.762559   186A      0.762687  
     187A      0.771572   188A      0.784520   189A      0.788349  
     190A      0.793749   191A      0.798329   192A      0.799993  
     193A      0.815256   194A      0.817693   195A      0.830041  
     196A      0.832551   197A      0.837032   198A      0.844303  
     199A      0.853358   200A      0.854825   201A      0.854917  
     202A      0.858054   203A      0.863986   204A      0.866252  
     205A      0.869822   206A      0.876672   207A      0.887133  
     208A      0.896648   209A      0.904234   210A      0.905858  
     211A      0.908589   212A      0.910496   213A      0.922636  
     214A      0.925408   215A      0.937544   216A      0.943174  
     217A      0.960864   218A      0.962686   219A      0.972482  
     220A      0.978112   221A      0.988667   222A      0.993023  
     223A      0.995484   224A      1.010057   225A      1.015304  
     226A      1.017813   227A      1.019783   228A      1.021109  
     229A      1.021399   230A      1.024795   231A      1.031648  
     232A      1.036710   233A      1.037996   234A      1.039559  
     235A      1.051577   236A      1.057396   237A      1.060521  
     238A      1.062295   239A      1.065027   240A      1.065283  
     241A      1.072737   242A      1.084089   243A      1.084724  
     244A      1.087579   245A      1.089583   246A      1.099561  
     247A      1.101646   248A      1.102707   249A      1.111643  
     250A      1.112861   251A      1.119247   252A      1.122510  
     253A      1.133295   254A      1.139738   255A      1.143972  
     256A      1.144945   257A      1.149737   258A      1.154237  
     259A      1.159202   260A      1.163461   261A      1.168415  
     262A      1.173793   263A      1.176266   264A      1.190339  
     265A      1.193527   266A      1.194819   267A      1.201287  
     268A      1.212108   269A      1.214865   270A      1.215427  
     271A      1.218949   272A      1.223840   273A      1.232123  
     274A      1.237149   275A      1.241997   276A      1.247987  
     277A      1.252112   278A      1.255432   279A      1.263489  
     280A      1.267321   281A      1.273494   282A      1.278793  
     283A      1.283576   284A      1.290357   285A      1.290896  
     286A      1.299342   287A      1.301070   288A      1.309324  
     289A      1.317078   290A      1.318562   291A      1.327889  
     292A      1.332004   293A      1.336746   294A      1.338502  
     295A      1.342452   296A      1.345993   297A      1.346400  
     298A      1.358471   299A      1.360398   300A      1.374924  
     301A      1.379014   302A      1.385133   303A      1.385728  
     304A      1.395372   305A      1.405910   306A      1.410700  
     307A      1.411200   308A      1.412797   309A      1.428351  
     310A      1.431279   311A      1.442069   312A      1.443464  
     313A      1.449733   314A      1.450833   315A      1.463447  
     316A      1.467629   317A      1.476718   318A      1.494353  
     319A      1.499499   320A      1.517263   321A      1.518012  
     322A      1.518394   323A      1.520741   324A      1.539585  
     325A      1.539608   326A      1.548834   327A      1.554900  
     328A      1.570021   329A      1.576086   330A      1.581095  
     331A      1.588574   332A      1.593680   333A      1.605607  
     334A      1.612632   335A      1.621837   336A      1.634877  
     337A      1.643491   338A      1.656726   339A      1.659163  
     340A      1.674021   341A      1.675881   342A      1.678656  
     343A      1.686615   344A      1.688862   345A      1.700908  
     346A      1.705689   347A      1.714788   348A      1.735249  
     349A      1.739982   350A      1.747197   351A      1.751164  
     352A      1.759210   353A      1.769588   354A      1.773377  
     355A      1.788730   356A      1.793786   357A      1.815229  
     358A      1.815505   359A      1.817687   360A      1.818275  
     361A      1.836236   362A      1.839201   363A      1.839625  
     364A      1.844753   365A      1.845646   366A      1.865576  
     367A      1.881500   368A      1.883171   369A      1.886395  
     370A      1.893286   371A      1.900266   372A      1.908746  
     373A      1.922299   374A      1.926701   375A      1.941847  
     376A      1.944360   377A      1.948725   378A      1.968368  
     379A      1.980584   380A      1.983090   381A      1.992720  
     382A      2.003857   383A      2.005012   384A      2.011924  
     385A      2.018117   386A      2.024548   387A      2.035854  
     388A      2.048343   389A      2.055662   390A      2.076674  
     391A      2.078533   392A      2.088226   393A      2.089763  
     394A      2.090604   395A      2.106895   396A      2.107821  
     397A      2.108475   398A      2.111584   399A      2.138534  
     400A      2.147500   401A      2.153959   402A      2.159079  
     403A      2.162413   404A      2.162902   405A      2.181136  
     406A      2.185808   407A      2.186335   408A      2.202187  
     409A      2.211491   410A      2.213490   411A      2.215055  
     412A      2.241077   413A      2.243719   414A      2.250942  
     415A      2.263248   416A      2.271051   417A      2.273044  
     418A      2.277992   419A      2.295558   420A      2.299884  
     421A      2.305411   422A      2.312524   423A      2.314389  
     424A      2.315150   425A      2.331289   426A      2.334177  
     427A      2.341636   428A      2.353737   429A      2.362161  
     430A      2.384555   431A      2.385813   432A      2.397150  
     433A      2.408727   434A      2.414609   435A      2.428816  
     436A      2.429036   437A      2.431834   438A      2.461532  
     439A      2.466017   440A      2.479975   441A      2.494486  
     442A      2.507803   443A      2.512593   444A      2.524583  
     445A      2.535683   446A      2.555260   447A      2.563346  
     448A      2.571251   449A      2.574081   450A      2.575532  
     451A      2.582949   452A      2.602449   453A      2.619675  
     454A      2.638200   455A      2.639413   456A      2.665031  
     457A      2.668833   458A      2.670394   459A      2.686186  
     460A      2.693444   461A      2.699549   462A      2.702555  
     463A      2.712058   464A      2.742200   465A      2.744551  
     466A      2.757913   467A      2.774456   468A      2.775843  
     469A      2.778323   470A      2.794185   471A      2.817050  
     472A      2.850312   473A      2.890238   474A      2.891045  
     475A      2.908210   476A      2.922102   477A      2.928674  
     478A      2.932763   479A      2.946281   480A      2.971274  
     481A      2.992514   482A      2.997522   483A      3.024256  
     484A      3.032090   485A      3.043233   486A      3.090265  
     487A      3.121216   488A      3.130747   489A      3.134259  
     490A      3.156448   491A      3.197138   492A      3.212750  
     493A      3.216685   494A      3.236522   495A      3.264861  
     496A      3.300544   497A      3.312436   498A      3.338719  
     499A      3.355643   500A      3.356869   501A      3.377583  
     502A      3.388654   503A      3.394221   504A      3.399790  
     505A      3.421021   506A      3.448303   507A      3.452132  
     508A      3.457360   509A      3.472275   510A      3.504160  
     511A      3.511283   512A      3.522785   513A      3.529404  
     514A      3.536495   515A      3.552171   516A      3.557632  
     517A      3.566682   518A      3.575046   519A      3.582147  
     520A      3.582629   521A      3.596247   522A      3.614096  
     523A      3.629350   524A      3.645821   525A      3.651810  
     526A      3.658762   527A      3.674761   528A      3.675331  
     529A      3.682325   530A      3.683409   531A      3.691813  
     532A      3.704660   533A      3.705317   534A      3.711663  
     535A      3.717533   536A      3.728850   537A      3.735794  
     538A      3.749139   539A      3.756943   540A      3.758830  
     541A      3.766216   542A      3.772303   543A      3.782559  
     544A      3.802714   545A      3.812132   546A      3.816544  
     547A      3.823520   548A      3.832784   549A      3.844841  
     550A      3.850309   551A      3.857436   552A      3.867811  
     553A      3.889880   554A      3.891094   555A      3.917487  
     556A      3.925103   557A      3.932178   558A      3.937827  
     559A      3.952003   560A      3.960300   561A      3.964395  
     562A      3.973290   563A      3.976415   564A      3.987000  
     565A      4.002013   566A      4.019002   567A      4.035385  
     568A      4.039829   569A      4.043715   570A      4.044875  
     571A      4.055819   572A      4.056016   573A      4.064922  
     574A      4.075426   575A      4.088295   576A      4.094958  
     577A      4.095083   578A      4.122244   579A      4.134633  
     580A      4.139932   581A      4.149943   582A      4.163576  
     583A      4.172347   584A      4.174191   585A      4.180995  
     586A      4.196912   587A      4.199113   588A      4.206496  
     589A      4.214048   590A      4.226069   591A      4.237053  
     592A      4.245245   593A      4.248995   594A      4.254237  
     595A      4.261141   596A      4.279069   597A      4.302894  
     598A      4.311265   599A      4.320705   600A      4.320746  
     601A      4.328172   602A      4.336528   603A      4.339867  
     604A      4.348077   605A      4.365256   606A      4.373703  
     607A      4.374061   608A      4.397123   609A      4.403688  
     610A      4.408150   611A      4.418738   612A      4.420994  
     613A      4.435126   614A      4.442776   615A      4.455852  
     616A      4.460870   617A      4.488405   618A      4.502364  
     619A      4.508949   620A      4.512998   621A      4.521535  
     622A      4.528705   623A      4.537722   624A      4.542741  
     625A      4.558034   626A      4.563878   627A      4.570539  
     628A      4.590895   629A      4.594717   630A      4.601613  
     631A      4.601979   632A      4.622187   633A      4.644484  
     634A      4.658027   635A      4.668389   636A      4.671993  
     637A      4.684297   638A      4.689058   639A      4.700054  
     640A      4.710423   641A      4.737313   642A      4.741766  
     643A      4.753614   644A      4.770395   645A      4.774396  
     646A      4.792721   647A      4.797046   648A      4.834510  
     649A      4.846617   650A      4.876028   651A      4.885743  
     652A      4.902707   653A      4.920200   654A      4.932397  
     655A      4.953559   656A      4.958204   657A      4.986484  
     658A      4.993813   659A      5.017900   660A      5.025967  
     661A      5.036090   662A      5.060282   663A      5.069087  
     664A      5.073332   665A      5.091196   666A      5.095364  
     667A      5.106750   668A      5.111299   669A      5.136304  
     670A      5.165475   671A      5.166394   672A      5.175506  
     673A      5.178881   674A      5.183638   675A      5.190523  
     676A      5.223867   677A      5.227862   678A      5.234839  
     679A      5.255607   680A      5.264194   681A      5.267546  
     682A      5.270165   683A      5.271685   684A      5.301374  
     685A      5.309376   686A      5.323912   687A      5.327035  
     688A      5.333240   689A      5.349895   690A      5.352813  
     691A      5.378715   692A      5.403111   693A      5.406127  
     694A      5.440821   695A      5.471447   696A      5.482930  
     697A      5.493825   698A      5.494334   699A      5.514814  
     700A      5.515622   701A      5.525440   702A      5.545435  
     703A      5.562379   704A      5.574814   705A      5.588902  
     706A      5.590084   707A      5.651620   708A      5.657643  
     709A      5.658172   710A      5.673924   711A      5.689069  
     712A      5.771069   713A      5.792127   714A      5.829248  
     715A      5.844998   716A      5.857811   717A      5.876362  
     718A      5.891937   719A      5.901813   720A      5.943763  
     721A      5.967949   722A      5.972123   723A      5.985338  
     724A      5.997438   725A      6.012674   726A      6.077635  
     727A      6.135949   728A      6.180092   729A      6.245140  
     730A      6.245742   731A      6.293379   732A      6.316495  
     733A      6.335610   734A      6.355784   735A      6.401754  
     736A      6.445927   737A      6.473445   738A      6.484243  
     739A      6.545488   740A      6.586369   741A      6.626248  
     742A      6.677727   743A      6.687247   744A      6.734362  
     745A      6.796648   746A      6.812619   747A      6.832471  
     748A      6.904030   749A      6.912379   750A      6.979159  
     751A      6.995931   752A      7.016999   753A      7.042603  
     754A      7.079218   755A      7.150275   756A      7.169003  
     757A      7.204196   758A      7.252770   759A      7.320053  
     760A      7.358879   761A      7.371353   762A      7.515372  
     763A      7.629176   764A      7.653356   765A      7.942724  
     766A      7.957461   767A      8.037334   768A      8.165751  
     769A      8.229396   770A     15.716105   771A     16.135088  
     772A     16.359965   773A     16.646550   774A     17.035241  
     775A     18.588849   776A     18.887305   777A     19.309304  
     778A     19.998533   779A     20.207071   780A     20.230933  
     781A     20.301162   782A     21.869253  

    Final Occupation by Irrep:
              A 
    DOCC [    45 ]

  Energy converged.

  @DF-RHF Final Energy:  -550.70850369614027

   => Energetics <=

    Nuclear Repulsion Energy =            685.6225171983107884
    One-Electron Energy =               -2121.3538206388093386
    Two-Electron Energy =                 885.0227997443582808
    DFT Exchange-Correlation Energy =       0.0000000000000000
    Empirical Dispersion Energy =           0.0000000000000000
    PCM Polarization Energy =               0.0000000000000000
    EFP Energy =                            0.0000000000000000
    Total Energy =                       -550.7085036961402693



Properties will be evaluated at   0.000000,   0.000000,   0.000000 Bohr

Properties computed using the SCF density matrix

  Nuclear Dipole Moment: (a.u.)
     X:     2.4662      Y:    -1.3101      Z:    -1.5417

  Electronic Dipole Moment: (a.u.)
     X:     0.7457      Y:    -0.3972      Z:    -0.4643

  Dipole Moment: (a.u.)
     X:     3.2119      Y:    -1.7073      Z:    -2.0059     Total:     4.1539

  Dipole Moment: (Debye)
     X:     8.1638      Y:    -4.3395      Z:    -5.0986     Total:    10.5581


*** tstop() called on gpu-2-6.local at Sun Nov 12 04:14:17 2017
Module time:
	user time   =    1074.74 seconds =      17.91 minutes
	system time =      53.66 seconds =       0.89 minutes
	total time  =        431 seconds =       7.18 minutes
Total time:
	user time   =    1074.75 seconds =      17.91 minutes
	system time =      53.66 seconds =       0.89 minutes
	total time  =        431 seconds =       7.18 minutes

  //>>>>>>>>>>>>>>>>>>>>>>>>>>>>>>>>>>>//
  //               DFMP2               //
  //<<<<<<<<<<<<<<<<<<<<<<<<<<<<<<<<<<<//

   => Loading Basis Set <=

    Name: (AUG-CC-PVTZ AUX)
    Role: RIFIT
    Keyword: DF_BASIS_MP2
    atoms 1-11  entry C          line   147 file /cbio/jclab/home/chayas/anaconda/envs/py35/share/psi4/basis/aug-cc-pvtz-ri.gbs 
    atoms 12    entry N          line   205 file /cbio/jclab/home/chayas/anaconda/envs/py35/share/psi4/basis/aug-cc-pvtz-ri.gbs 
    atoms 13    entry O          line   263 file /cbio/jclab/home/chayas/anaconda/envs/py35/share/psi4/basis/aug-cc-pvtz-ri.gbs 
    atoms 14-21 entry H          line    29 file /cbio/jclab/home/chayas/anaconda/envs/py35/share/psi4/basis/aug-cc-pvtz-ri.gbs 

	 --------------------------------------------------------
	                          DF-MP2                         
	      2nd-Order Density-Fitted Moller-Plesset Theory     
	              RMP2 Wavefunction,   8 Threads             
	                                                         
	        Rob Parrish, Justin Turney, Andy Simmonett,      
	           Ed Hohenstein, and C. David Sherrill          
	 --------------------------------------------------------

   => Auxiliary Basis Set <=

  Basis Set: (AUG-CC-PVTZ AUX)
    Blend: AUG-CC-PVTZ-RI
    Number of shells: 476
    Number of basis function: 1746
    Number of Cartesian functions: 2208
    Spherical Harmonics?: true
    Max angular momentum: 4

	 --------------------------------------------------------
	                 NBF =   782, NAUX =  1746
	 --------------------------------------------------------
	   CLASS    FOCC     OCC    AOCC    AVIR     VIR    FVIR
	   PAIRS       0      45      45     737     737       0
	 --------------------------------------------------------


         ------------------------------------------------------------
                                     CPHF                           
                                  Rob Parrish                       
         ------------------------------------------------------------

  ==> Geometry <==

    Molecular point group: c1
    Full point group: C1

    Geometry (in Angstrom), charge = -1, multiplicity = 1:

       Center              X                  Y                   Z               Mass       
    ------------   -----------------  -----------------  -----------------  -----------------
           C         -1.278561008451     0.724165735893    -0.568278800487    12.000000000000
           C         -0.285561008451     0.108165735893     1.545721199513    12.000000000000
           C         -2.356561008451     1.297165735893     0.104721199513    12.000000000000
           C         -1.363561008451     0.681165735893     2.219721199513    12.000000000000
           C          0.983438991549    -1.848834264107    -0.643278800487    12.000000000000
           C          1.848438991549     0.343165735893    -1.124278800487    12.000000000000
           C          2.072438991549    -2.368834264107    -1.323278800487    12.000000000000
           C          2.898438991549    -0.274834264107    -1.783278800487    12.000000000000
           C         -0.242561008451     0.129165735893     0.151721199513    12.000000000000
           C          0.876438991549    -0.465834264107    -0.546278800487    12.000000000000
           C         -2.399561008451     1.276165735893     1.498721199513    12.000000000000
           N          3.036438991549    -1.614834264107    -1.898278800487    14.003074004780
           O         -3.390561008451     1.802165735893     2.117721199513    15.994914619560
           H         -1.259561008451     0.749165735893    -1.655278800487     1.007825032070
           H          0.514438991549    -0.351834264107     2.120721199513     1.007825032070
           H         -3.152561008451     1.754165735893    -0.481278800487     1.007825032070
           H         -1.372561008451     0.652165735893     3.307721199513     1.007825032070
           H          0.244438991549    -2.512834264107    -0.206278800487     1.007825032070
           H          1.798438991549     1.426165735893    -1.068278800487     1.007825032070
           H          2.201438991549    -3.440834264107    -1.429278800487     1.007825032070
           H          3.683438991549     0.312165735893    -2.249278800487     1.007825032070

  Nuclear repulsion =  685.622517198310788
  Reference energy  = -550.708503696140269

  ==> Basis Set <==

  Basis Set: AUG-CC-PVTZ
    Blend: AUG-CC-PVTZ
    Number of shells: 254
    Number of basis function: 782
    Number of Cartesian functions: 915
    Spherical Harmonics?: true
    Max angular momentum: 3

  ==> CGRSolver (by Rob Parrish) <==

   Number of roots    =         1
   Preconditioning    =    JACOBI
   Convergence cutoff =     1E-06
   Maximum iterations =       100

  ==> CPHFRHamiltonian (by Rob Parrish) <== 

  ==> DFJK: Density-Fitted J/K Matrices <==

    J tasked:                  Yes
    K tasked:                  Yes
    wK tasked:                  No
    OpenMP threads:              8
    Integrals threads:           8
    Memory (MB):              3576
    Algorithm:                Disk
    Integral Cache:           NONE
    Schwarz Cutoff:          1E-12
    Fitting Condition:       1E-12

   => Auxiliary Basis Set <=

  Basis Set: (AUG-CC-PVTZ AUX)
    Blend: AUG-CC-PVTZ-JKFIT
    Number of shells: 502
    Number of basis function: 1720
    Number of Cartesian functions: 2143
    Spherical Harmonics?: true
    Max angular momentum: 4

  ==> CPHF Iterations <==

  => Iterations <=

             Iter  Converged  Remaining    Residual
  CGR           1          0          1   1.281E-01
  CGR           2          0          1   4.771E-02
  CGR           3          0          1   2.840E-02
  CGR           4          0          1   1.036E-02
  CGR           5          0          1   4.531E-03
  CGR           6          0          1   2.324E-03
  CGR           7          0          1   6.748E-04
  CGR           8          0          1   2.144E-04
  CGR           9          0          1   8.379E-05
  CGR          10          0          1   2.574E-05
  CGR          11          0          1   1.005E-05
  CGR          12          0          1   3.407E-06
  CGR          13          0          1   1.472E-06
  CGR          14          1          0   7.091E-07

    CGRSolver converged.

  ==> DFCorrGrad: Density-Fitted Correlated Gradients <==

    OpenMP threads:              8
    Integrals threads:           8
    Memory (MB):              3576
    Schwarz Cutoff:          0E+00
    Fitting Condition:       1E-12

   => Auxiliary Basis Set <=

  Basis Set: (AUG-CC-PVTZ AUX)
    Blend: AUG-CC-PVTZ-JKFIT
    Number of shells: 502
    Number of basis function: 1720
    Number of Cartesian functions: 2143
    Spherical Harmonics?: true
    Max angular momentum: 4

	-----------------------------------------------------------
	 ==================> DF-MP2 Energies <==================== 
	-----------------------------------------------------------
	 Reference Energy          =    -550.7085036961402693 [Eh]
	 Singles Energy            =      -0.0000000000000001 [Eh]
	 Same-Spin Energy          =      -0.6132096988664288 [Eh]
	 Opposite-Spin Energy      =      -1.8374467334537850 [Eh]
	 Correlation Energy        =      -2.4506564323202138 [Eh]
	 Total Energy              =    -553.1591601284604849 [Eh]
	-----------------------------------------------------------
	 ================> DF-SCS-MP2 Energies <================== 
	-----------------------------------------------------------
	 SCS Same-Spin Scale       =       0.3333333333333333 [-]
	 SCS Opposite-Spin Scale   =       1.2000000000000000 [-]
	 SCS Same-Spin Energy      =      -0.2044032329554763 [Eh]
	 SCS Opposite-Spin Energy  =      -2.2049360801445417 [Eh]
	 SCS Correlation Energy    =      -2.4093393131000180 [Eh]
	 SCS Total Energy          =    -553.1178430092402323 [Eh]
	-----------------------------------------------------------


  -Total Gradient:
     Atom            X                  Y                   Z
    ------   -----------------  -----------------  -----------------
       1        0.009181677205    -0.008704697930    -0.005302337811
       2        0.011676545870    -0.002356323952    -0.007737841752
       3       -0.021229251013     0.010734723068     0.034262039458
       4       -0.036625049411     0.019870534151     0.002732833153
       5       -0.012142814219     0.001183115484     0.004631501590
       6       -0.006397375891     0.008671520059     0.006999285734
       7       -0.011174838220    -0.003110611495     0.005976404100
       8       -0.004854523777     0.011094148564     0.003972446766
       9       -0.000890276565     0.000454595569     0.000460637094
      10        0.008128548055    -0.004239743075    -0.004888148819
      11        0.046848243622    -0.024725538349    -0.029774158286
      12        0.009831119904    -0.005203433886    -0.006163988661
      13        0.003417784928    -0.001879803248    -0.002058138822
      14       -0.002781989666     0.001810107408    -0.002754010782
      15        0.000328559599    -0.000471987177     0.004157513192
      16       -0.001663445277     0.001619820970    -0.008769464680
      17        0.005172253348    -0.003471309845     0.006234724504
      18       -0.001230835248    -0.005783959240     0.000982073826
      19        0.002549612095     0.005164774273    -0.001825158557
      20        0.000514560928    -0.001553067678    -0.000177339485
      21        0.001341493722     0.000897136334    -0.000958871750


*** tstop() called on gpu-2-6.local at Sun Nov 12 04:43:11 2017
Module time:
	user time   =    4776.31 seconds =      79.61 minutes
	system time =     119.51 seconds =       1.99 minutes
	total time  =       2165 seconds =      36.08 minutes
Total time:
	user time   =    4776.32 seconds =      79.61 minutes
	system time =     119.51 seconds =       1.99 minutes
	total time  =       2165 seconds =      36.08 minutes

			-----------------------------------------
			 OPTKING 2.0: for geometry optimizations 
			  - R.A. King,  Bethel University        
			-----------------------------------------

	Internal coordinates to be generated automatically.
	Detected frag 1 with atoms:  1 2 3 4 5 6 7 8 9 10 11 12 13 14 15 16 17 18 19 20
	 21
	---Fragment 1 Bond Connectivity---
	 1 : 3 9 14
	 2 : 4 9 15
	 3 : 1 11 16
	 4 : 2 11 17
	 5 : 7 10 18
	 6 : 8 10 19
	 7 : 5 12 20
	 8 : 6 12 21
	 9 : 1 2 10
	 10 : 5 6 9
	 11 : 3 4 13
	 12 : 7 8
	 13 : 11
	 14 : 1
	 15 : 2
	 16 : 3
	 17 : 4
	 18 : 5
	 19 : 6
	 20 : 7
	 21 : 8

	Assuming in current code that numbering for constraints corresponds to unified fragment.
	Fixed dihedral atom list: 
	     1     9    10     5
	---Fragment 1 Geometry and Gradient---
	 C          -2.4161301502        1.3684749157       -1.0738913000
	 C          -0.5396321002        0.2044036178        2.9209897449
	 C          -4.4532549214        2.4512879898        0.1978943874
	 C          -2.5767568715        1.2872166919        4.1946651584
	 C           1.8584303624       -3.4937904243       -1.2156207600
	 C           3.4930434674        0.6484892590       -2.1245790299
	 C           3.9163421211       -4.4764480134       -2.5006345304
	 C           5.4772559069       -0.5193614911       -3.3699085515
	 C          -0.4583738765        0.2440878666        0.2867115156
	 C           1.6562296662       -0.8802991825       -1.0323173251
	 C          -4.5345131451        2.4116037410        2.8321726166
	 N           5.7380381132       -3.0515945092       -3.5872270568
	 O          -6.4072317428        3.4055996869        4.0019130929
	 H          -2.3802253536        1.4157180690       -3.1280236065
	 H           0.9721488061       -0.6648704033        4.0075822713
	 H          -5.9574769232        3.3148928325       -0.9094851265
	 H          -2.5937644067        1.2324146341        6.2506871910
	 H           0.4619227502       -4.7485685765       -0.3898104399
	 H           3.3985571607        2.6950626609       -2.0187543665
	 H           4.1601167923       -6.5022344278       -2.7009455005
	 H           6.9606909212        0.5899077489       -4.2505209294
	             0.0091816772       -0.0087046979       -0.0053023378
	             0.0116765459       -0.0023563240       -0.0077378418
	            -0.0212292510        0.0107347231        0.0342620395
	            -0.0366250494        0.0198705342        0.0027328332
	            -0.0121428142        0.0011831155        0.0046315016
	            -0.0063973759        0.0086715201        0.0069992857
	            -0.0111748382       -0.0031106115        0.0059764041
	            -0.0048545238        0.0110941486        0.0039724468
	            -0.0008902766        0.0004545956        0.0004606371
	             0.0081285481       -0.0042397431       -0.0048881488
	             0.0468482436       -0.0247255383       -0.0297741583
	             0.0098311199       -0.0052034339       -0.0061639887
	             0.0034177849       -0.0018798032       -0.0020581388
	            -0.0027819897        0.0018101074       -0.0027540108
	             0.0003285596       -0.0004719872        0.0041575132
	            -0.0016634453        0.0016198210       -0.0087694647
	             0.0051722533       -0.0034713098        0.0062347245
	            -0.0012308352       -0.0057839592        0.0009820738
	             0.0025496121        0.0051647743       -0.0018251586
	             0.0005145609       -0.0015530677       -0.0001773395
	             0.0013414937        0.0008971363       -0.0009588718

	Previous optimization step data not found.  Starting new optimization.

	---Fragment 1 Intrafragment Coordinates---
	 - Coordinate -           - BOHR/RAD -       - ANG/DEG -
	 R(1,3)           =         2.634350	       1.394038
	 R(1,9)           =         2.635962	       1.394891
	 R(1,14)          =         2.054989	       1.087453
	 R(2,4)           =         2.635263	       1.394521
	 R(2,9)           =         2.635830	       1.394821
	 R(2,15)          =         2.054702	       1.087302
	 R(3,11)          =         2.635830	       1.394821
	 R(3,16)          =         2.057860	       1.088972
	 R(4,11)          =         2.636938	       1.395407
	 R(4,17)          =         2.056823	       1.088424
	 R(5,7)           =         2.617609	       1.385179
	 R(5,10)          =         2.627703	       1.390520
	 R(5,18)          =         2.051015	       1.085351
	 R(6,8)           =         2.617598	       1.385173
	 R(6,10)          =         2.627568	       1.390449
	 R(6,19)          =         2.051485	       1.085599
	 R(7,12)          =         2.555282	       1.352197
	 R(7,20)          =         2.050210	       1.084924
	 R(8,12)          =         2.554885	       1.351987
	 R(8,21)          =         2.050984	       1.085334
	 R(9,10)          =         2.734160	       1.446855
	 R(11,13)         =         2.421445	       1.281373
	 B(1,3,11)        =         2.094553	     120.009056
	 B(1,3,16)        =         2.069123	     118.552025
	 B(1,9,2)         =         2.093692	     119.959722
	 B(1,9,10)        =         2.095337	     120.053983
	 B(2,4,11)        =         2.093699	     119.960108
	 B(2,4,17)        =         2.069829	     118.592446
	 B(2,9,10)        =         2.094156	     119.986294
	 B(3,1,9)         =         2.094940	     120.031219
	 B(3,1,14)        =         2.079025	     119.119344
	 B(3,11,4)        =         2.094306	     119.994870
	 B(3,11,13)       =         2.094918	     120.029973
	 B(4,2,9)         =         2.095181	     120.045019
	 B(4,2,15)        =         2.079455	     119.143974
	 B(4,11,13)       =         2.093961	     119.975136
	 B(5,7,12)        =         2.165064	     124.049017
	 B(5,7,20)        =         2.108742	     120.821996
	 B(5,10,6)        =         2.089655	     119.728437
	 B(5,10,9)        =         2.096913	     120.144242
	 B(6,8,12)        =         2.165229	     124.058481
	 B(6,8,21)        =         2.107417	     120.746115
	 B(6,10,9)        =         2.096616	     120.127274
	 B(7,5,10)        =         2.057951	     117.911921
	 B(7,5,18)        =         2.098200	     120.218007
	 B(7,12,8)        =         2.030551	     116.341997
	 B(8,6,10)        =         2.057920	     117.910134
	 B(8,6,19)        =         2.099645	     120.300808
	 B(9,1,14)        =         2.109221	     120.849435
	 B(9,2,15)        =         2.108550	     120.811005
	 B(10,5,18)       =         2.127033	     121.870030
	 B(10,6,19)       =         2.125620	     121.789057
	 B(11,3,16)       =         2.119509	     121.438903
	 B(11,4,17)       =         2.119657	     121.447411
	 B(12,7,20)       =         2.009377	     115.128814
	 B(12,8,21)       =         2.010536	     115.195233
	 D(1,3,11,4)      =        -0.000325	      -0.018609
	 D(1,3,11,13)     =        -3.141004	    -179.966279
	 D(1,9,2,4)       =         0.000325	       0.018608
	 D(1,9,2,15)      =        -3.141527	    -179.996257
	 D(1,9,10,5)      =        -1.832829	    -105.013392
	 D(1,9,10,6)      =         1.307384	      74.907584
	 D(2,4,11,3)      =         0.000301	       0.017261
	 D(2,4,11,13)     =         3.140981	     179.964960
	 D(2,9,1,3)       =        -0.000348	      -0.019945
	 D(2,9,1,14)      =         3.141027	     179.967567
	 D(2,9,10,5)      =         1.308980	      74.999047
	 D(2,9,10,6)      =        -1.833992	    -105.079977
	 D(3,1,9,10)      =         3.141462	     179.992491
	 D(3,11,4,17)     =         3.140700	     179.948827
	 D(4,2,9,10)      =        -3.141485	    -179.993820
	 D(4,11,3,16)     =         3.140472	     179.935781
	 D(5,7,12,8)      =         0.000391	       0.022388
	 D(5,10,6,8)      =         0.000553	       0.031695
	 D(5,10,6,19)     =        -3.140880	    -179.959161
	 D(6,8,12,7)      =         0.000158	       0.009034
	 D(6,10,5,7)      =        -0.000062	      -0.003551
	 D(6,10,5,18)     =        -3.140356	    -179.929158
	 D(7,5,10,9)      =         3.140157	     179.917741
	 D(7,12,8,21)     =         3.139128	     179.858801
	 D(8,6,10,9)      =        -3.139666	    -179.889611
	 D(8,12,7,20)     =         3.139357	     179.871921
	 D(9,1,3,11)      =         0.000348	       0.019955
	 D(9,1,3,16)      =        -3.140471	    -179.935743
	 D(9,2,4,11)      =        -0.000301	      -0.017270
	 D(9,2,4,17)      =        -3.140734	    -179.950778
	 D(9,10,5,18)     =        -0.000137	      -0.007866
	 D(9,10,6,19)     =         0.002086	       0.119533
	 D(10,5,7,12)     =        -0.000437	      -0.025036
	 D(10,5,7,20)     =        -3.139261	    -179.866405
	 D(10,6,8,12)     =        -0.000623	      -0.035698
	 D(10,6,8,21)     =        -3.139455	    -179.877526
	 D(10,9,1,14)     =        -0.000349	      -0.019997
	 D(10,9,2,15)     =        -0.000152	      -0.008685
	 D(11,3,1,14)     =        -3.141030	    -179.967773
	 D(11,4,2,15)     =         3.141546	     179.997347
	 D(12,7,5,18)     =         3.139880	     179.901850
	 D(12,8,6,19)     =         3.140812	     179.955300
	 D(13,11,3,16)    =        -0.000207	      -0.011889
	 D(13,11,4,17)    =        -0.001806	      -0.103475
	 D(14,1,3,16)     =         0.001336	       0.076530
	 D(15,2,4,17)     =         0.001114	       0.063839
	 D(18,5,7,20)     =         0.001056	       0.060481
	 D(19,6,8,21)     =         0.001980	       0.113472

	Current energy   :      -553.1591601285

	Generating empirical Hessian (Schlegel '84) for each fragment.
	Adding user-defined constraint: Fragment 1; Coordinate 61:
		Value =    -1.832829; Fixed value    =    -1.832596
		Force =     0.000117; Force constant =     0.500000
	Removing off-diagonal coupling between coordinate 61 and others.
	Taking RFO optimization step.
	Going to follow RFO solution 1.
	Using RFO vector 1.

	Determining step-restricting scale parameter for RS-RFO.
	Maximum step size allowed    0.10000

	 Iter      |step|        alpha        rfo_root  
	------------------------------------------------
	    0     0.25332       1.00000           1
	    1     0.19317       5.51199           1
	    2     0.14277      18.90453           1
	    3     0.11407      38.19463           1
	    4     0.10236      51.91482           1
	    5     0.10009      55.22184           1
	    6     0.10000      55.35249           1
	------------------------------------------------
	Norm of target step-size    0.10000
	Projected energy change by RFO approximation:        -0.0067484558

	Back-transformation to cartesian coordinates...
	Could not converge backtransformation.
	Using first guess instead.

	--- Internal Coordinate Step in ANG or DEG, aJ/ANG or AJ/DEG ---
	 ---------------------------------------------------------------------------
	   Coordinate                Previous        Force       Change         New 
	   ----------                --------       ------       ------       ------
	    1 R(1,3)          =      1.394038    -0.020340    -0.001545     1.392493
	    2 R(1,9)          =      1.394891     0.014369     0.000810     1.395701
	    3 R(1,14)         =      1.087453    -0.022623    -0.001998     1.085455
	    4 R(2,4)          =      1.394521    -0.023381    -0.001796     1.392725
	    5 R(2,9)          =      1.394821     0.015365     0.000890     1.395711
	    6 R(2,15)         =      1.087302    -0.021750    -0.001924     1.085378
	    7 R(3,11)         =      1.394821     0.208592     0.016652     1.411473
	    8 R(3,16)         =      1.088972    -0.054497    -0.004856     1.084117
	    9 R(4,11)         =      1.395407     0.205260     0.016397     1.411805
	   10 R(4,17)         =      1.088424    -0.051756    -0.004606     1.083817
	   11 R(5,7)          =      1.385179     0.021763     0.001630     1.386809
	   12 R(5,10)         =      1.390520     0.003419     0.000566     1.391086
	   13 R(5,18)         =      1.085351    -0.039315    -0.003481     1.081870
	   14 R(6,8)          =      1.385173     0.021923     0.001644     1.386817
	   15 R(6,10)         =      1.390449     0.004182     0.000639     1.391088
	   16 R(6,19)         =      1.085599    -0.040706    -0.003606     1.081992
	   17 R(7,12)         =      1.352197    -0.110197    -0.007882     1.344315
	   18 R(7,20)         =      1.084924    -0.013289    -0.001173     1.083751
	   19 R(8,12)         =      1.351987    -0.109799    -0.007852     1.344135
	   20 R(8,21)         =      1.085334    -0.015384    -0.001360     1.083974
	   21 R(9,10)         =      1.446855     0.143704     0.012175     1.459030
	   22 R(11,13)        =      1.281373     0.036326     0.002125     1.283499
	   23 B(1,3,11)       =    120.009056     0.000762     0.982481   120.991538
	   24 B(1,3,16)       =    118.552025     0.000104     0.189177   118.741202
	   25 B(1,9,2)        =    119.959722    -0.000593    -0.842044   119.117678
	   26 B(1,9,10)       =    120.053983     0.000288     0.410458   120.464441
	   27 B(2,4,11)       =    119.960108     0.000777     0.998034   120.958143
	   28 B(2,4,17)       =    118.592446     0.000095     0.178455   118.770900
	   29 B(2,9,10)       =    119.986294     0.000305     0.431542   120.417836
	   30 B(3,1,9)        =    120.031219     0.000526     0.592573   120.623792
	   31 B(3,1,14)       =    119.119344    -0.000003     0.071882   119.191227
	   32 B(3,11,4)       =    119.994870    -0.002001    -2.323932   117.670938
	   33 B(3,11,13)      =    120.029973     0.000993     1.152456   121.182429
	   34 B(4,2,9)        =    120.045019     0.000529     0.592846   120.637865
	   35 B(4,2,15)       =    119.143974    -0.000010     0.064654   119.208628
	   36 B(4,11,13)      =    119.975136     0.001008     1.171471   121.146607
	   37 B(5,7,12)       =    124.049017     0.000068     0.049242   124.098259
	   38 B(5,7,20)       =    120.821996    -0.000057    -0.056467   120.765529
	   39 B(5,10,6)       =    119.728437    -0.001303    -1.530415   118.198022
	   40 B(5,10,9)       =    120.144242     0.000649     0.761913   120.906155
	   41 B(6,8,12)       =    124.058481     0.000064     0.044188   124.102668
	   42 B(6,8,21)       =    120.746115    -0.000043    -0.037263   120.708852
	   43 B(6,10,9)       =    120.127274     0.000654     0.768345   120.895619
	   44 B(7,5,10)       =    117.911921     0.000622     0.811213   118.723134
	   45 B(7,5,18)       =    120.218007    -0.000029    -0.005971   120.212036
	   46 B(7,12,8)       =    116.341997    -0.000074    -0.187189   116.154808
	   47 B(8,6,10)       =    117.910134     0.000623     0.812932   118.723066
	   48 B(8,6,19)       =    120.300808    -0.000041    -0.023820   120.276988
	   49 B(9,1,14)       =    120.849435    -0.000523    -0.664462   120.184973
	   50 B(9,2,15)       =    120.811005    -0.000519    -0.657511   120.153494
	   51 B(10,5,18)      =    121.870030    -0.000593    -0.805244   121.064786
	   52 B(10,6,19)      =    121.789057    -0.000582    -0.789116   120.999941
	   53 B(11,3,16)      =    121.438903    -0.000866    -1.171658   120.267246
	   54 B(11,4,17)      =    121.447411    -0.000871    -1.176478   120.270933
	   55 B(12,7,20)      =    115.128814    -0.000012     0.007101   115.135915
	   56 B(12,8,21)      =    115.195233    -0.000021    -0.007006   115.188227
	   57 D(1,3,11,4)     =     -0.018609    -0.000004    -0.034927    -0.053536
	   58 D(1,3,11,13)    =   -179.966279    -0.000003    -0.028795  -179.995074
	   59 D(1,9,2,4)      =      0.018608    -0.000007    -0.070350    -0.051742
	   60 D(1,9,2,15)     =   -179.996257    -0.000000    -0.014171  -180.010428
	   61 D(1,9,10,5)     =   -105.013392    -0.000026    -0.148383  -105.161775
	   62 D(1,9,10,6)     =     74.907584    -0.000033    -0.236513    74.671070
	   63 D(2,4,11,3)     =      0.017261    -0.000003    -0.021047    -0.003786
	   64 D(2,4,11,13)    =    179.964960    -0.000003    -0.027186   179.937774
	   65 D(2,9,1,3)      =     -0.019945     0.000000     0.014357    -0.005588
	   66 D(2,9,1,14)     =    179.967567     0.000006     0.059445   180.027012
	   67 D(2,9,10,5)     =     74.999047    -0.000033    -0.238925    74.760122
	   68 D(2,9,10,6)     =   -105.079977    -0.000040    -0.327055  -105.407032
	   69 D(3,1,9,10)     =    179.992491    -0.000007    -0.075175   179.917317
	   70 D(3,11,4,17)    =    179.948827    -0.000002    -0.009267   179.939559
	   71 D(4,2,9,10)     =   -179.993820     0.000001     0.019136  -179.974684
	   72 D(4,11,3,16)    =    179.935781    -0.000003    -0.034169   179.901612
	   73 D(5,7,12,8)     =      0.022388     0.000001     0.007094     0.029483
	   74 D(5,10,6,8)     =      0.031695    -0.000002    -0.028389     0.003305
	   75 D(5,10,6,19)    =   -179.959161    -0.000000    -0.011333  -179.970495
	   76 D(6,8,12,7)     =      0.009034     0.000002     0.022246     0.031280
	   77 D(6,10,5,7)     =     -0.003551     0.000005     0.055087     0.051536
	   78 D(6,10,5,18)    =   -179.929158     0.000005     0.057235  -179.871922
	   79 D(7,5,10,9)     =    179.917741    -0.000002    -0.028956   179.888785
	   80 D(7,12,8,21)    =    179.858801    -0.000002    -0.009836   179.848966
	   81 D(8,6,10,9)     =   -179.889611     0.000005     0.055650  -179.833961
	   82 D(8,12,7,20)    =    179.871921    -0.000004    -0.039843   179.832078
	   83 D(9,1,3,11)     =      0.019955     0.000005     0.039022     0.058977
	   84 D(9,1,3,16)     =   -179.935743     0.000005     0.038900  -179.896843
	   85 D(9,2,4,11)     =     -0.017270     0.000008     0.073877     0.056607
	   86 D(9,2,4,17)     =   -179.950778     0.000007     0.063207  -179.887571
	   87 D(9,10,5,18)    =     -0.007866    -0.000001    -0.026808    -0.034674
	   88 D(9,10,6,19)    =      0.119533     0.000007     0.072706     0.192239
	   89 D(10,5,7,12)    =     -0.025036    -0.000005    -0.046300    -0.071336
	   90 D(10,5,7,20)    =   -179.866405     0.000001     0.003050  -179.863355
	   91 D(10,6,8,12)    =     -0.035698    -0.000002    -0.011803    -0.047502
	   92 D(10,6,8,21)    =   -179.877526     0.000002     0.021911  -179.855615
	   93 D(10,9,1,14)    =     -0.019997    -0.000002    -0.030087    -0.050084
	   94 D(10,9,2,15)    =     -0.008685     0.000007     0.075315     0.066631
	   95 D(11,3,1,14)    =   -179.967773    -0.000000    -0.005529  -179.973302
	   96 D(11,4,2,15)    =    179.997347     0.000002     0.018332   180.015679
	   97 D(12,7,5,18)    =    179.901850    -0.000005    -0.049056   179.852794
	   98 D(12,8,6,19)    =    179.955300    -0.000004    -0.028806   179.926493
	   99 D(13,11,3,16)   =     -0.011889    -0.000003    -0.028037    -0.039925
	  100 D(13,11,4,17)   =     -0.103475    -0.000002    -0.015406    -0.118881
	  101 D(14,1,3,16)    =      0.076530    -0.000000    -0.005651     0.070878
	  102 D(15,2,4,17)    =      0.063839     0.000001     0.007662     0.071501
	  103 D(18,5,7,20)    =      0.060481     0.000000     0.000294     0.060775
	  104 D(19,6,8,21)    =      0.113472     0.000000     0.004908     0.118380
	 ---------------------------------------------------------------------------
	Successfully symmetrized geometry.
	 Forces used to impose fixed constraints are not included.
	  Forces zeroed: 61 

  ==> Convergence Check <==

  Measures of convergence in internal coordinates in au.
  Criteria marked as inactive (o), active & met (*), and active & unmet ( ).
  --------------------------------------------------------------------------------------------- ~
   Step     Total Energy     Delta E     MAX Force     RMS Force      MAX Disp      RMS Disp    ~
  --------------------------------------------------------------------------------------------- ~
    Convergence Criteria    1.00e-06 *    3.00e-04 *             o    1.20e-03 *             o  ~
  --------------------------------------------------------------------------------------------- ~
      1    -553.15916013   -5.53e+02      2.63e-02      6.67e-03 o    4.06e-02      9.79e-03 o  ~
  ---------------------------------------------------------------------------------------------

	Writing optimization data to binary file.
	Structure for next step:
	Cartesian Geometry (in Angstrom)
	    C    -1.2868088143   0.7317984843  -0.5566155238
	    C    -0.3006579760   0.1137748451   1.5498862419
	    C    -2.3661209047   1.3042404563   0.1115407057
	    C    -1.3757908859   0.6849927391   2.2262607184
	    C     1.0049873454  -1.8493500365  -0.6535062501
	    C     1.8617393531   0.3261690695  -1.1352841623
	    C     2.0944745900  -2.3713824544  -1.3344901401
	    C     2.9127947201  -0.2919003835  -1.7959912571
	    C    -0.2465860898   0.1326144931   0.1553505867
	    C     0.8817642489  -0.4677289016  -0.5483418451
	    C    -2.4360505705   1.2949112982   1.5212495583
	    N     3.0526248345  -1.6239293039  -1.9093342259
	    O    -3.4291781935   1.8213721859   2.1408507121
	    H    -1.2626628332   0.7558442115  -1.6415358176
	    H     0.4990495933  -0.3478701353   2.1203221319
	    H    -3.1581426099   1.7599471379  -0.4718478821
	    H    -1.3859860768   0.6548878047   3.3096119391
	    H     0.2685908320  -2.5103863379  -0.2162501623
	    H     1.8110506240   1.4055914791  -1.0806435312
	    H     2.2219763731  -3.4425899438  -1.4382874016
	    H     3.6951512630   0.2954737460  -2.2627992051
			--------------------------
			 OPTKING Finished Execution 
			--------------------------

    Structure for next step:
    Molecular point group: c1
    Full point group: C1

    Geometry (in Angstrom), charge = -1, multiplicity = 1:

    C           -1.284055255307     0.730327944399    -0.558334277725
    C           -0.297904417010     0.112304305119     1.548167487955
    C           -2.363367345712     1.302769916307     0.109821951723
    C           -1.373037326887     0.683522199116     2.224541964456
    C            1.007740904413    -1.850820576486    -0.655225004013
    C            1.864492912106     0.324698529568    -1.137002916199
    C            2.097228149050    -2.372852994320    -1.336208894034
    C            2.915548279128    -0.293370923492    -1.797710011014
    C           -0.243832530730     0.131143953175     0.153631832792
    C            0.884517807958    -0.469199441588    -0.550060599079
    C           -2.433297011465     1.293440758217     1.519530804342
    N            3.055378393578    -1.625399843862    -1.911052979789
    O           -3.426424634512     1.819901645990     2.139131958141
    H           -1.259909274211     0.754373671559    -1.643254571495
    H            0.501803152306    -0.349340675203     2.118603377988
    H           -3.155389050853     1.758476597937    -0.473566635983
    H           -1.383232517718     0.653417264745     3.307893185185
    H            0.271344391030    -2.511856877838    -0.217968916263
    H            1.813804182988     1.404120939194    -1.082362285111
    H            2.224729932092    -3.444060483779    -1.440006155542
    H            3.697904822045     0.294003206031    -2.264517959066

gradient() will perform analytic gradient computation.

*** tstart() called on gpu-2-6.local
*** at Sun Nov 12 04:43:12 2017

    SCF Algorithm Type (re)set to DF.

*** tstart() called on gpu-2-6.local
*** at Sun Nov 12 04:43:12 2017

   => Loading Basis Set <=

    Name: AUG-CC-PVTZ
    Role: ORBITAL
    Keyword: BASIS
    atoms 1-11  entry C          line   221 file /cbio/jclab/home/chayas/anaconda/envs/py35/share/psi4/basis/aug-cc-pvtz.gbs 
    atoms 12    entry N          line   267 file /cbio/jclab/home/chayas/anaconda/envs/py35/share/psi4/basis/aug-cc-pvtz.gbs 
    atoms 13    entry O          line   313 file /cbio/jclab/home/chayas/anaconda/envs/py35/share/psi4/basis/aug-cc-pvtz.gbs 
    atoms 14-21 entry H          line    34 file /cbio/jclab/home/chayas/anaconda/envs/py35/share/psi4/basis/aug-cc-pvtz.gbs 


         ---------------------------------------------------------
                                   SCF
            by Justin Turney, Rob Parrish, and Andy Simmonett
                              RHF Reference
                        8 Threads,   4768 MiB Core
         ---------------------------------------------------------

  ==> Geometry <==

    Molecular point group: c1
    Full point group: C1

    Geometry (in Angstrom), charge = -1, multiplicity = 1:

       Center              X                  Y                   Z               Mass       
    ------------   -----------------  -----------------  -----------------  -----------------
           C         -1.284055255307     0.730327944399    -0.558334277725    12.000000000000
           C         -0.297904417010     0.112304305119     1.548167487955    12.000000000000
           C         -2.363367345712     1.302769916307     0.109821951723    12.000000000000
           C         -1.373037326887     0.683522199116     2.224541964456    12.000000000000
           C          1.007740904413    -1.850820576486    -0.655225004013    12.000000000000
           C          1.864492912106     0.324698529568    -1.137002916199    12.000000000000
           C          2.097228149050    -2.372852994320    -1.336208894034    12.000000000000
           C          2.915548279128    -0.293370923492    -1.797710011014    12.000000000000
           C         -0.243832530730     0.131143953175     0.153631832792    12.000000000000
           C          0.884517807958    -0.469199441588    -0.550060599079    12.000000000000
           C         -2.433297011465     1.293440758217     1.519530804342    12.000000000000
           N          3.055378393578    -1.625399843862    -1.911052979789    14.003074004780
           O         -3.426424634512     1.819901645990     2.139131958141    15.994914619560
           H         -1.259909274211     0.754373671559    -1.643254571495     1.007825032070
           H          0.501803152306    -0.349340675203     2.118603377988     1.007825032070
           H         -3.155389050853     1.758476597937    -0.473566635983     1.007825032070
           H         -1.383232517718     0.653417264745     3.307893185185     1.007825032070
           H          0.271344391030    -2.511856877838    -0.217968916263     1.007825032070
           H          1.813804182988     1.404120939194    -1.082362285111     1.007825032070
           H          2.224729932092    -3.444060483779    -1.440006155542     1.007825032070
           H          3.697904822045     0.294003206031    -2.264517959066     1.007825032070

  Running in c1 symmetry.

  Rotational constants: A =      0.09818  B =      0.01314  C =      0.01269 [cm^-1]
  Rotational constants: A =   2943.43936  B =    393.87676  C =    380.38796 [MHz]
  Nuclear repulsion =  683.192425550203438

  Charge       = -1
  Multiplicity = 1
  Electrons    = 90
  Nalpha       = 45
  Nbeta        = 45

  ==> Algorithm <==

  SCF Algorithm Type is DF.
  DIIS enabled.
  MOM disabled.
  Fractional occupation disabled.
  Guess Type is READ.
  Energy threshold   = 1.00e-10
  Density threshold  = 1.00e-10
  Integral threshold = 0.00e+00

  ==> Primary Basis <==

  Basis Set: AUG-CC-PVTZ
    Blend: AUG-CC-PVTZ
    Number of shells: 254
    Number of basis function: 782
    Number of Cartesian functions: 915
    Spherical Harmonics?: true
    Max angular momentum: 3

   => Loading Basis Set <=

    Name: (AUG-CC-PVTZ AUX)
    Role: JKFIT
    Keyword: DF_BASIS_SCF
    atoms 1-11  entry C          line   161 file /cbio/jclab/home/chayas/anaconda/envs/py35/share/psi4/basis/aug-cc-pvtz-jkfit.gbs 
    atoms 12    entry N          line   223 file /cbio/jclab/home/chayas/anaconda/envs/py35/share/psi4/basis/aug-cc-pvtz-jkfit.gbs 
    atoms 13    entry O          line   285 file /cbio/jclab/home/chayas/anaconda/envs/py35/share/psi4/basis/aug-cc-pvtz-jkfit.gbs 
    atoms 14-21 entry H          line    69 file /cbio/jclab/home/chayas/anaconda/envs/py35/share/psi4/basis/aug-cc-pvtz-jkfit.gbs 

  Reading orbitals from file 180, no projection.

  ==> Pre-Iterations <==

   -------------------------------------------------------
    Irrep   Nso     Nmo     Nalpha   Nbeta   Ndocc  Nsocc
   -------------------------------------------------------
     A        782     782       0       0       0       0
   -------------------------------------------------------
    Total     782     782      45      45      45       0
   -------------------------------------------------------

  ==> Integral Setup <==

  ==> DFJK: Density-Fitted J/K Matrices <==

    J tasked:                  Yes
    K tasked:                  Yes
    wK tasked:                  No
    OpenMP threads:              8
    Integrals threads:           8
    Memory (MB):              3576
    Algorithm:                Disk
    Integral Cache:           NONE
    Schwarz Cutoff:          1E-12
    Fitting Condition:       1E-12

   => Auxiliary Basis Set <=

  Basis Set: (AUG-CC-PVTZ AUX)
    Blend: AUG-CC-PVTZ-JKFIT
    Number of shells: 502
    Number of basis function: 1720
    Number of Cartesian functions: 2143
    Spherical Harmonics?: true
    Max angular momentum: 4

  Minimum eigenvalue in the overlap matrix is 7.7607473811E-07.
  Using Symmetric Orthogonalization.

  SCF Guess: Orbitals guess was supplied from a previous computation.

  ==> Iterations <==

                           Total Energy        Delta E     RMS |[F,P]|

   @DF-RHF iter   0:  -550.79575756542829   -5.50796e+02   4.22063e-04 
   @DF-RHF iter   1:  -550.71432808558757    8.14295e-02   1.18061e-04 
   @DF-RHF iter   2:  -550.71470117058516   -3.73085e-04   6.04038e-05 DIIS
   @DF-RHF iter   3:  -550.71498895077548   -2.87780e-04   1.01425e-05 DIIS
   @DF-RHF iter   4:  -550.71499433442068   -5.38365e-06   3.74545e-06 DIIS
   @DF-RHF iter   5:  -550.71499573177186   -1.39735e-06   1.35203e-06 DIIS
   @DF-RHF iter   6:  -550.71499598616697   -2.54395e-07   8.78557e-07 DIIS
   @DF-RHF iter   7:  -550.71499607752253   -9.13556e-08   2.68003e-07 DIIS
   @DF-RHF iter   8:  -550.71499610859792   -3.10754e-08   1.34834e-07 DIIS
   @DF-RHF iter   9:  -550.71499611302795   -4.43004e-09   6.73943e-08 DIIS
   @DF-RHF iter  10:  -550.71499611363799   -6.10044e-10   1.89937e-08 DIIS
   @DF-RHF iter  11:  -550.71499611368051   -4.25189e-11   5.88232e-09 DIIS
   @DF-RHF iter  12:  -550.71499611370120   -2.06910e-11   1.98416e-09 DIIS
   @DF-RHF iter  13:  -550.71499611368199    1.92131e-11   7.66317e-10 DIIS
   @DF-RHF iter  14:  -550.71499611370143   -1.94404e-11   4.42838e-10 DIIS
   @DF-RHF iter  15:  -550.71499611369632    5.11591e-12   1.36302e-10 DIIS
   @DF-RHF iter  16:  -550.71499611370086   -4.54747e-12   5.72971e-11 DIIS

  ==> Post-Iterations <==

    Orbital Energies (a.u.)
    -----------------------

    Doubly Occupied:                                                      

       1A    -20.290728     2A    -15.462912     3A    -11.172773  
       4A    -11.172747     5A    -11.147581     6A    -11.127752  
       7A    -11.127701     8A    -11.111703     9A    -11.093939  
      10A    -11.093905    11A    -11.072674    12A    -11.054959  
      13A    -11.054932    14A     -1.152455    15A     -1.118537  
      16A     -1.016803    17A     -0.957688    18A     -0.929781  
      19A     -0.859646    20A     -0.834375    21A     -0.751818  
      22A     -0.735390    23A     -0.674678    24A     -0.646502  
      25A     -0.595504    26A     -0.559349    27A     -0.547119  
      28A     -0.506070    29A     -0.493909    30A     -0.485893  
      31A     -0.477509    32A     -0.435865    33A     -0.431472  
      34A     -0.416334    35A     -0.405661    36A     -0.366411  
      37A     -0.352954    38A     -0.349620    39A     -0.316313  
      40A     -0.284053    41A     -0.261096    42A     -0.247131  
      43A     -0.206639    44A     -0.191852    45A     -0.104547  

    Virtual:                                                              

      46A      0.096534    47A      0.099077    48A      0.115705  
      49A      0.116650    50A      0.124595    51A      0.124713  
      52A      0.131550    53A      0.131891    54A      0.160762  
      55A      0.165955    56A      0.180940    57A      0.183795  
      58A      0.184289    59A      0.185686    60A      0.189279  
      61A      0.193276    62A      0.193439    63A      0.200790  
      64A      0.205584    65A      0.208477    66A      0.211879  
      67A      0.217406    68A      0.221524    69A      0.223005  
      70A      0.227159    71A      0.228406    72A      0.230262  
      73A      0.231289    74A      0.237810    75A      0.242435  
      76A      0.246124    77A      0.250281    78A      0.258117  
      79A      0.261263    80A      0.265272    81A      0.268997  
      82A      0.272328    83A      0.286850    84A      0.291367  
      85A      0.297146    86A      0.301525    87A      0.305877  
      88A      0.307780    89A      0.315779    90A      0.319276  
      91A      0.322162    92A      0.332531    93A      0.334922  
      94A      0.337380    95A      0.340374    96A      0.341856  
      97A      0.349652    98A      0.356416    99A      0.358776  
     100A      0.360605   101A      0.368673   102A      0.369968  
     103A      0.376805   104A      0.391602   105A      0.393073  
     106A      0.395309   107A      0.397180   108A      0.398446  
     109A      0.405723   110A      0.409988   111A      0.411592  
     112A      0.415668   113A      0.420550   114A      0.422577  
     115A      0.425519   116A      0.427222   117A      0.447075  
     118A      0.452230   119A      0.454122   120A      0.456240  
     121A      0.461049   122A      0.465889   123A      0.471220  
     124A      0.471526   125A      0.478539   126A      0.486202  
     127A      0.492308   128A      0.503506   129A      0.504034  
     130A      0.508919   131A      0.511611   132A      0.519886  
     133A      0.520187   134A      0.530243   135A      0.538889  
     136A      0.544769   137A      0.544844   138A      0.553139  
     139A      0.556356   140A      0.561557   141A      0.563774  
     142A      0.567349   143A      0.575407   144A      0.578444  
     145A      0.579392   146A      0.580230   147A      0.586353  
     148A      0.589845   149A      0.591475   150A      0.594234  
     151A      0.596431   152A      0.599490   153A      0.604014  
     154A      0.610499   155A      0.614429   156A      0.620843  
     157A      0.621236   158A      0.622513   159A      0.623374  
     160A      0.628847   161A      0.638729   162A      0.640404  
     163A      0.640953   164A      0.648435   165A      0.662854  
     166A      0.666973   167A      0.667758   168A      0.674701  
     169A      0.676490   170A      0.677250   171A      0.683350  
     172A      0.688394   173A      0.691729   174A      0.696451  
     175A      0.708074   176A      0.712438   177A      0.714983  
     178A      0.716212   179A      0.723013   180A      0.726539  
     181A      0.739238   182A      0.740436   183A      0.744057  
     184A      0.755833   185A      0.760761   186A      0.762920  
     187A      0.771347   188A      0.782963   189A      0.784537  
     190A      0.792953   191A      0.798774   192A      0.799581  
     193A      0.815805   194A      0.819525   195A      0.828296  
     196A      0.829588   197A      0.836028   198A      0.842099  
     199A      0.852314   200A      0.853774   201A      0.854551  
     202A      0.857637   203A      0.861229   204A      0.867130  
     205A      0.867730   206A      0.875815   207A      0.884640  
     208A      0.893597   209A      0.900104   210A      0.906259  
     211A      0.909277   212A      0.910204   213A      0.920760  
     214A      0.924320   215A      0.935089   216A      0.938531  
     217A      0.959371   218A      0.961492   219A      0.969335  
     220A      0.977937   221A      0.988251   222A      0.993991  
     223A      0.995784   224A      1.010401   225A      1.016539  
     226A      1.018763   227A      1.019688   228A      1.022174  
     229A      1.022307   230A      1.023821   231A      1.031791  
     232A      1.037563   233A      1.038039   234A      1.040191  
     235A      1.051376   236A      1.055160   237A      1.058633  
     238A      1.062180   239A      1.063376   240A      1.065978  
     241A      1.069835   242A      1.081616   243A      1.082682  
     244A      1.086508   245A      1.086998   246A      1.098605  
     247A      1.101101   248A      1.102749   249A      1.110959  
     250A      1.110980   251A      1.121067   252A      1.121774  
     253A      1.130992   254A      1.139389   255A      1.143249  
     256A      1.143561   257A      1.148356   258A      1.151444  
     259A      1.156191   260A      1.163091   261A      1.167000  
     262A      1.169728   263A      1.175631   264A      1.188211  
     265A      1.191006   266A      1.193894   267A      1.200153  
     268A      1.207156   269A      1.212580   270A      1.213912  
     271A      1.217782   272A      1.220463   273A      1.229641  
     274A      1.237111   275A      1.241197   276A      1.246155  
     277A      1.250404   278A      1.253206   279A      1.264736  
     280A      1.267895   281A      1.274185   282A      1.280290  
     283A      1.283877   284A      1.291147   285A      1.291246  
     286A      1.297612   287A      1.299775   288A      1.307406  
     289A      1.316811   290A      1.319296   291A      1.324101  
     292A      1.328795   293A      1.334659   294A      1.337057  
     295A      1.342308   296A      1.342812   297A      1.346996  
     298A      1.356227   299A      1.357445   300A      1.372764  
     301A      1.380182   302A      1.384450   303A      1.386076  
     304A      1.392919   305A      1.406459   306A      1.409239  
     307A      1.409591   308A      1.413622   309A      1.424770  
     310A      1.429458   311A      1.438507   312A      1.439101  
     313A      1.447239   314A      1.448706   315A      1.459299  
     316A      1.469485   317A      1.476242   318A      1.495612  
     319A      1.498457   320A      1.513382   321A      1.514555  
     322A      1.518527   323A      1.520571   324A      1.532673  
     325A      1.538930   326A      1.549774   327A      1.550363  
     328A      1.568604   329A      1.573684   330A      1.579501  
     331A      1.583641   332A      1.589649   333A      1.604574  
     334A      1.606976   335A      1.622372   336A      1.633590  
     337A      1.642836   338A      1.654221   339A      1.656083  
     340A      1.672907   341A      1.673814   342A      1.680766  
     343A      1.685017   344A      1.690307   345A      1.698132  
     346A      1.702346   347A      1.711252   348A      1.734531  
     349A      1.735750   350A      1.745974   351A      1.749637  
     352A      1.757801   353A      1.768026   354A      1.770490  
     355A      1.789462   356A      1.790982   357A      1.812502  
     358A      1.813582   359A      1.818105   360A      1.820742  
     361A      1.836231   362A      1.837559   363A      1.839255  
     364A      1.842840   365A      1.845768   366A      1.865508  
     367A      1.879448   368A      1.879912   369A      1.886662  
     370A      1.890657   371A      1.894607   372A      1.907423  
     373A      1.916940   374A      1.927845   375A      1.940807  
     376A      1.946582   377A      1.948213   378A      1.969857  
     379A      1.976387   380A      1.983477   381A      1.994264  
     382A      2.000356   383A      2.006831   384A      2.012193  
     385A      2.018725   386A      2.020474   387A      2.039954  
     388A      2.047488   389A      2.050394   390A      2.074739  
     391A      2.077741   392A      2.080557   393A      2.088140  
     394A      2.088712   395A      2.099683   396A      2.105854  
     397A      2.106579   398A      2.112763   399A      2.139217  
     400A      2.150638   401A      2.155042   402A      2.158421  
     403A      2.160288   404A      2.163335   405A      2.178274  
     406A      2.183787   407A      2.185230   408A      2.199484  
     409A      2.211140   410A      2.212949   411A      2.216332  
     412A      2.236961   413A      2.239148   414A      2.252715  
     415A      2.259922   416A      2.264428   417A      2.271732  
[...]
     235A      1.049473   236A      1.054141   237A      1.058525  
     238A      1.064128   239A      1.067814   240A      1.068770  
     241A      1.071096   242A      1.081078   243A      1.084095  
     244A      1.087911   245A      1.088983   246A      1.092815  
     247A      1.096156   248A      1.107397   249A      1.111016  
     250A      1.114829   251A      1.120376   252A      1.127682  
     253A      1.131433   254A      1.139142   255A      1.140070  
     256A      1.142493   257A      1.144938   258A      1.153697  
     259A      1.157098   260A      1.160813   261A      1.163372  
     262A      1.171006   263A      1.177459   264A      1.178986  
     265A      1.186715   266A      1.192639   267A      1.200325  
     268A      1.201812   269A      1.207916   270A      1.215318  
     271A      1.221108   272A      1.225199   273A      1.229181  
     274A      1.234843   275A      1.239224   276A      1.248166  
     277A      1.251106   278A      1.258801   279A      1.263994  
     280A      1.268487   281A      1.275491   282A      1.278274  
     283A      1.281345   284A      1.287677   285A      1.290090  
     286A      1.297047   287A      1.300651   288A      1.303156  
     289A      1.311824   290A      1.319585   291A      1.320895  
     292A      1.323834   293A      1.328767   294A      1.331924  
     295A      1.337092   296A      1.345002   297A      1.350416  
     298A      1.353506   299A      1.359839   300A      1.372586  
     301A      1.379169   302A      1.386384   303A      1.388877  
     304A      1.395203   305A      1.404044   306A      1.411971  
     307A      1.412409   308A      1.418565   309A      1.422741  
     310A      1.431861   311A      1.432499   312A      1.435542  
     313A      1.437614   314A      1.452878   315A      1.461772  
     316A      1.474892   317A      1.477440   318A      1.491341  
     319A      1.500533   320A      1.503440   321A      1.514985  
     322A      1.518067   323A      1.520002   324A      1.535050  
     325A      1.539051   326A      1.549159   327A      1.549690  
     328A      1.560796   329A      1.567394   330A      1.580278  
     331A      1.583394   332A      1.592261   333A      1.599764  
     334A      1.608816   335A      1.624792   336A      1.632301  
     337A      1.638498   338A      1.649460   339A      1.657468  
     340A      1.667808   341A      1.677538   342A      1.680434  
     343A      1.682562   344A      1.693089   345A      1.697250  
     346A      1.703350   347A      1.714797   348A      1.728243  
     349A      1.738481   350A      1.740650   351A      1.748905  
     352A      1.758984   353A      1.762213   354A      1.769557  
     355A      1.782372   356A      1.800168   357A      1.808301  
     358A      1.816851   359A      1.818486   360A      1.825879  
     361A      1.829289   362A      1.836093   363A      1.838799  
     364A      1.842763   365A      1.847150   366A      1.858833  
     367A      1.871480   368A      1.878645   369A      1.888014  
     370A      1.893982   371A      1.899895   372A      1.911136  
     373A      1.918640   374A      1.928382   375A      1.942082  
     376A      1.949704   377A      1.958123   378A      1.968390  
     379A      1.977064   380A      1.985707   381A      1.996165  
     382A      2.000513   383A      2.010372   384A      2.016266  
     385A      2.019287   386A      2.028083   387A      2.040480  
     388A      2.043262   389A      2.060608   390A      2.067346  
     391A      2.069735   392A      2.080195   393A      2.082157  
     394A      2.090857   395A      2.099258   396A      2.102578  
     397A      2.112501   398A      2.113303   399A      2.136687  
     400A      2.146236   401A      2.150623   402A      2.158762  
     403A      2.161294   404A      2.165476   405A      2.172513  
     406A      2.180216   407A      2.189372   408A      2.192109  
     409A      2.202726   410A      2.209493   411A      2.224864  
     412A      2.230784   413A      2.236789   414A      2.245805  
     415A      2.251796   416A      2.260845   417A      2.275826  
     418A      2.279072   419A      2.283899   420A      2.302296  
     421A      2.304537   422A      2.310690   423A      2.311831  
     424A      2.319047   425A      2.329850   426A      2.339578  
     427A      2.342601   428A      2.345979   429A      2.367145  
     430A      2.378290   431A      2.384631   432A      2.395186  
     433A      2.405936   434A      2.410256   435A      2.413995  
     436A      2.420457   437A      2.426464   438A      2.441599  
     439A      2.467037   440A      2.478336   441A      2.482177  
     442A      2.501910   443A      2.512396   444A      2.519357  
     445A      2.532093   446A      2.548731   447A      2.557150  
     448A      2.565977   449A      2.572552   450A      2.581024  
     451A      2.592540   452A      2.609112   453A      2.611199  
     454A      2.631752   455A      2.632490   456A      2.646248  
     457A      2.664536   458A      2.679888   459A      2.686461  
     460A      2.699166   461A      2.706176   462A      2.707968  
     463A      2.716540   464A      2.745062   465A      2.755762  
     466A      2.758067   467A      2.775462   468A      2.783023  
     469A      2.821882   470A      2.824869   471A      2.835349  
     472A      2.849513   473A      2.874634   474A      2.882436  
     475A      2.890122   476A      2.898268   477A      2.921201  
     478A      2.938250   479A      2.942746   480A      2.952653  
     481A      2.967927   482A      2.991956   483A      3.003860  
     484A      3.034139   485A      3.046246   486A      3.081220  
     487A      3.111718   488A      3.129902   489A      3.139333  
     490A      3.175650   491A      3.176457   492A      3.197895  
     493A      3.225033   494A      3.238055   495A      3.269162  
     496A      3.288308   497A      3.303138   498A      3.327691  
     499A      3.346273   500A      3.359289   501A      3.377333  
     502A      3.388319   503A      3.398398   504A      3.411764  
     505A      3.427301   506A      3.430532   507A      3.441748  
     508A      3.462235   509A      3.471536   510A      3.499691  
     511A      3.511312   512A      3.525529   513A      3.531648  
     514A      3.538232   515A      3.546155   516A      3.556263  
     517A      3.563104   518A      3.576633   519A      3.581873  
     520A      3.586982   521A      3.595603   522A      3.604790  
     523A      3.615003   524A      3.623866   525A      3.625539  
     526A      3.648560   527A      3.657631   528A      3.672334  
     529A      3.673694   530A      3.679158   531A      3.685763  
     532A      3.699859   533A      3.705369   534A      3.713241  
     535A      3.722100   536A      3.734183   537A      3.737357  
     538A      3.743056   539A      3.747332   540A      3.752146  
     541A      3.760775   542A      3.768881   543A      3.780552  
     544A      3.792211   545A      3.794446   546A      3.810415  
     547A      3.814109   548A      3.828171   549A      3.834679  
     550A      3.853078   551A      3.857247   552A      3.860580  
     553A      3.882839   554A      3.896301   555A      3.903380  
     556A      3.920340   557A      3.923913   558A      3.937126  
     559A      3.941551   560A      3.942420   561A      3.949991  
     562A      3.960659   563A      3.969155   564A      3.986189  
     565A      4.000812   566A      4.014171   567A      4.018556  
     568A      4.026492   569A      4.034231   570A      4.053031  
     571A      4.055195   572A      4.066033   573A      4.068440  
     574A      4.084962   575A      4.090596   576A      4.092303  
     577A      4.102129   578A      4.115265   579A      4.125614  
     580A      4.130173   581A      4.141128   582A      4.151382  
     583A      4.169099   584A      4.175434   585A      4.177138  
     586A      4.188154   587A      4.197364   588A      4.212724  
     589A      4.214869   590A      4.218938   591A      4.235178  
     592A      4.240892   593A      4.248912   594A      4.250948  
     595A      4.272003   596A      4.279419   597A      4.302733  
     598A      4.304147   599A      4.310691   600A      4.324900  
     601A      4.325385   602A      4.331955   603A      4.345645  
     604A      4.351346   605A      4.356317   606A      4.366243  
     607A      4.374313   608A      4.385687   609A      4.403884  
     610A      4.408964   611A      4.427850   612A      4.429947  
     613A      4.446163   614A      4.450357   615A      4.452355  
     616A      4.461273   617A      4.479958   618A      4.496055  
     619A      4.497800   620A      4.511956   621A      4.531104  
     622A      4.540010   623A      4.540721   624A      4.551013  
     625A      4.563494   626A      4.572350   627A      4.580376  
     628A      4.583928   629A      4.592404   630A      4.607237  
     631A      4.616426   632A      4.627762   633A      4.636111  
     634A      4.651329   635A      4.656499   636A      4.658756  
     637A      4.671758   638A      4.677351   639A      4.693211  
     640A      4.716637   641A      4.727364   642A      4.734788  
     643A      4.757819   644A      4.765656   645A      4.768933  
     646A      4.806522   647A      4.820895   648A      4.823060  
     649A      4.850958   650A      4.859509   651A      4.880545  
     652A      4.896977   653A      4.901231   654A      4.914594  
     655A      4.928782   656A      4.959751   657A      4.975683  
     658A      4.991151   659A      5.013780   660A      5.025247  
     661A      5.038695   662A      5.040307   663A      5.056892  
     664A      5.070792   665A      5.092487   666A      5.101430  
     667A      5.105997   668A      5.113748   669A      5.131705  
     670A      5.153162   671A      5.158120   672A      5.176020  
     673A      5.183858   674A      5.188829   675A      5.199192  
     676A      5.218991   677A      5.230481   678A      5.247880  
     679A      5.255792   680A      5.260086   681A      5.272166  
     682A      5.276892   683A      5.286070   684A      5.297524  
     685A      5.305498   686A      5.312781   687A      5.322655  
     688A      5.326751   689A      5.335529   690A      5.349832  
     691A      5.363686   692A      5.372578   693A      5.407181  
     694A      5.442725   695A      5.454931   696A      5.475751  
     697A      5.484458   698A      5.494182   699A      5.507784  
     700A      5.537389   701A      5.565486   702A      5.568422  
     703A      5.582318   704A      5.589002   705A      5.595518  
     706A      5.613425   707A      5.620287   708A      5.657593  
     709A      5.674549   710A      5.679881   711A      5.690330  
     712A      5.746356   713A      5.791961   714A      5.815828  
     715A      5.833463   716A      5.839948   717A      5.893861  
     718A      5.911015   719A      5.927752   720A      5.940340  
     721A      5.961278   722A      5.976444   723A      5.986756  
     724A      6.003389   725A      6.031287   726A      6.049820  
     727A      6.119218   728A      6.187829   729A      6.194279  
     730A      6.244484   731A      6.254768   732A      6.278063  
     733A      6.330088   734A      6.352328   735A      6.366803  
     736A      6.451414   737A      6.454815   738A      6.498790  
     739A      6.566285   740A      6.599556   741A      6.631478  
     742A      6.688053   743A      6.702012   744A      6.741275  
     745A      6.794068   746A      6.819456   747A      6.850491  
     748A      6.879911   749A      6.895824   750A      6.954898  
     751A      6.965081   752A      6.989407   753A      7.040637  
     754A      7.068942   755A      7.133084   756A      7.190382  
     757A      7.207992   758A      7.211929   759A      7.300791  
     760A      7.302122   761A      7.370680   762A      7.539387  
     763A      7.603104   764A      7.642329   765A      7.937328  
     766A      7.951833   767A      8.027570   768A      8.137491  
     769A      8.215193   770A     15.789473   771A     16.246404  
     772A     16.627202   773A     16.640328   774A     16.800231  
     775A     18.516676   776A     18.936579   777A     19.203864  
     778A     19.746390   779A     20.193283   780A     20.333879  
     781A     20.401225   782A     21.639116  

    Final Occupation by Irrep:
              A 
    DOCC [    45 ]

  Energy converged.

  @DF-RHF Final Energy:  -550.72021193999410

   => Energetics <=

    Nuclear Repulsion Energy =            681.5519616300670123
    One-Electron Energy =               -2113.0410240704932221
    Two-Electron Energy =                 880.7688505004319950
    DFT Exchange-Correlation Energy =       0.0000000000000000
    Empirical Dispersion Energy =           0.0000000000000000
    PCM Polarization Energy =               0.0000000000000000
    EFP Energy =                            0.0000000000000000
    Total Energy =                       -550.7202119399941012



Properties will be evaluated at   0.000000,   0.000000,   0.000000 Bohr

Properties computed using the SCF density matrix

  Nuclear Dipole Moment: (a.u.)
     X:     2.5125      Y:    -1.3173      Z:    -1.6028

  Electronic Dipole Moment: (a.u.)
     X:     0.6086      Y:    -0.2044      Z:    -0.2502

  Dipole Moment: (a.u.)
     X:     3.1210      Y:    -1.5217      Z:    -1.8530     Total:     3.9357

  Dipole Moment: (Debye)
     X:     7.9329      Y:    -3.8677      Z:    -4.7099     Total:    10.0036


*** tstop() called on gpu-2-6.local at Mon Nov 13 03:46:14 2017
Module time:
	user time   =     687.92 seconds =      11.47 minutes
	system time =      36.24 seconds =       0.60 minutes
	total time  =        289 seconds =       4.82 minutes
Total time:
	user time   =  183495.29 seconds =    3058.25 minutes
	system time =    4720.16 seconds =      78.67 minutes
	total time  =      85148 seconds =    1419.13 minutes

  //>>>>>>>>>>>>>>>>>>>>>>>>>>>>>>>>>>>//
  //               DFMP2               //
  //<<<<<<<<<<<<<<<<<<<<<<<<<<<<<<<<<<<//

   => Loading Basis Set <=

    Name: (AUG-CC-PVTZ AUX)
    Role: RIFIT
    Keyword: DF_BASIS_MP2
    atoms 1-11  entry C          line   147 file /cbio/jclab/home/chayas/anaconda/envs/py35/share/psi4/basis/aug-cc-pvtz-ri.gbs 
    atoms 12    entry N          line   205 file /cbio/jclab/home/chayas/anaconda/envs/py35/share/psi4/basis/aug-cc-pvtz-ri.gbs 
    atoms 13    entry O          line   263 file /cbio/jclab/home/chayas/anaconda/envs/py35/share/psi4/basis/aug-cc-pvtz-ri.gbs 
    atoms 14-21 entry H          line    29 file /cbio/jclab/home/chayas/anaconda/envs/py35/share/psi4/basis/aug-cc-pvtz-ri.gbs 

	 --------------------------------------------------------
	                          DF-MP2                         
	      2nd-Order Density-Fitted Moller-Plesset Theory     
	              RMP2 Wavefunction,   8 Threads             
	                                                         
	        Rob Parrish, Justin Turney, Andy Simmonett,      
	           Ed Hohenstein, and C. David Sherrill          
	 --------------------------------------------------------

   => Auxiliary Basis Set <=

  Basis Set: (AUG-CC-PVTZ AUX)
    Blend: AUG-CC-PVTZ-RI
    Number of shells: 476
    Number of basis function: 1746
    Number of Cartesian functions: 2208
    Spherical Harmonics?: true
    Max angular momentum: 4

	 --------------------------------------------------------
	                 NBF =   782, NAUX =  1746
	 --------------------------------------------------------
	   CLASS    FOCC     OCC    AOCC    AVIR     VIR    FVIR
	   PAIRS       0      45      45     737     737       0
	 --------------------------------------------------------


         ------------------------------------------------------------
                                     CPHF                           
                                  Rob Parrish                       
         ------------------------------------------------------------

  ==> Geometry <==

    Molecular point group: c1
    Full point group: C1

    Geometry (in Angstrom), charge = -1, multiplicity = 1:

       Center              X                  Y                   Z               Mass       
    ------------   -----------------  -----------------  -----------------  -----------------
           C         -1.184083459730     0.846763392577    -0.512744712070    12.000000000000
           C         -0.332734317101     0.094218242718     1.587115744412    12.000000000000
           C         -2.312795710514     1.336515380808     0.115852606686    12.000000000000
           C         -1.449364482674     0.596744325965     2.226794499984    12.000000000000
           C          1.077770655154    -1.792683927075    -0.565918680811    12.000000000000
           C          1.899784147464     0.320710770518    -1.222921926953    12.000000000000
           C          2.104089889793    -2.367614015571    -1.298022493650    12.000000000000
           C          2.887864374030    -0.337260972197    -1.938464523268    12.000000000000
           C         -0.148378560052     0.239653764548     0.206760698591    12.000000000000
           C          0.962228492699    -0.404039894327    -0.484854201520    12.000000000000
           C         -2.518211017882     1.254974336436     1.533094985795    12.000000000000
           N          3.013748942569    -1.667775916430    -1.987737361904    14.003074004780
           O         -3.548913478118     1.708567099962     2.114065366308    15.994914619560
           H         -1.095560219285     0.926347250243    -1.590398211055     1.007825032070
           H          0.434508354972    -0.405340156438     2.167737274722     1.007825032070
           H         -3.100234314835     1.794273936521    -0.468255859607     1.007825032070
           H         -1.550590467243     0.494912972463     3.299758761086     1.007825032070
           H          0.357274388497    -2.413860117582    -0.053945677145     1.007825032070
           H          1.853498346841     1.399727650308    -1.222442382159     1.007825032070
           H          2.191001055851    -3.445010342382    -1.356185324284     1.007825032070
           H          3.617694330916     0.229880901410    -2.502923074580     1.007825032070

  Nuclear repulsion =  681.551961630067012
  Reference energy  = -550.720211939994101

  ==> Basis Set <==

  Basis Set: AUG-CC-PVTZ
    Blend: AUG-CC-PVTZ
    Number of shells: 254
    Number of basis function: 782
    Number of Cartesian functions: 915
    Spherical Harmonics?: true
    Max angular momentum: 3

  ==> CGRSolver (by Rob Parrish) <==

   Number of roots    =         1
   Preconditioning    =    JACOBI
   Convergence cutoff =     1E-06
   Maximum iterations =       100

  ==> CPHFRHamiltonian (by Rob Parrish) <== 

  ==> DFJK: Density-Fitted J/K Matrices <==

    J tasked:                  Yes
    K tasked:                  Yes
    wK tasked:                  No
    OpenMP threads:              8
    Integrals threads:           8
    Memory (MB):              3576
    Algorithm:                Disk
    Integral Cache:           NONE
    Schwarz Cutoff:          1E-12
    Fitting Condition:       1E-12

   => Auxiliary Basis Set <=

  Basis Set: (AUG-CC-PVTZ AUX)
    Blend: AUG-CC-PVTZ-JKFIT
    Number of shells: 502
    Number of basis function: 1720
    Number of Cartesian functions: 2143
    Spherical Harmonics?: true
    Max angular momentum: 4

  ==> CPHF Iterations <==

  => Iterations <=

             Iter  Converged  Remaining    Residual
  CGR           1          0          1   1.292E-01
  CGR           2          0          1   4.827E-02
  CGR           3          0          1   2.897E-02
  CGR           4          0          1   1.004E-02
  CGR           5          0          1   4.409E-03
