
    -----------------------------------------------------------------------
          Psi4: An Open-Source Ab Initio Electronic Structure Package
                               Psi4 1.1 release

                         Git: Rev {HEAD} add49b9 


    R. M. Parrish, L. A. Burns, D. G. A. Smith, A. C. Simmonett,
    A. E. DePrince III, E. G. Hohenstein, U. Bozkaya, A. Yu. Sokolov,
    R. Di Remigio, R. M. Richard, J. F. Gonthier, A. M. James,
    H. R. McAlexander, A. Kumar, M. Saitow, X. Wang, B. P. Pritchard,
    P. Verma, H. F. Schaefer III, K. Patkowski, R. A. King, E. F. Valeev,
    F. A. Evangelista, J. M. Turney, T. D. Crawford, and C. D. Sherrill,
    J. Chem. Theory Comput. in press (2017).
    (doi: 10.1021/acs.jctc.7b00174)

    -----------------------------------------------------------------------


    Psi4 started on: Saturday, 11 November 2017 06:16PM

    Process ID:   9127
    PSIDATADIR: /cbio/jclab/home/chayas/anaconda/envs/py35/share/psi4
    Memory:     500.0 MiB
    Threads:    8
    
  ==> Input File <==

--------------------------------------------------------------------------

memory 5 Gb

molecule phepyrFOH_cation {
  symmetry C1
  1 1 
  C      1.885   -1.036   -0.112
  C      0.807   -0.463   0.561
  C      5.339   -1.983   0.335
  C      3.812   -3.038   -1.201
  C      1.800   -1.079   2.676
  C      6.390   -2.565   -0.359
  C      4.902   -3.593   -1.856
  C      2.921   -1.631   0.608
  C      4.038   -2.225   -0.095
  C      0.764   -0.484   1.955
  C      2.878   -1.652   2.002
  N      6.145   -3.344   -1.421
  O      -0.289   0.076   2.612
  F      3.866   -2.220   2.709
  H      1.904   -1.012   -1.199
  H      0.002   -0.002   -0.006
  H      5.545   -1.353   1.195
  H      2.807   -3.243   -1.559
  H      1.772   -1.099   3.762
  H      7.431   -2.434   -0.097
  H      4.822   -4.236   -2.722
  H      6.932   -3.761   -1.917
  H      -0.175   -0.018   3.571
  units Angstrom
}

dih_string = "1 8 9 3 135"
set optking fixed_dihedral = $dih_string

optimize('MP2/aug-cc-PVTZ')
--------------------------------------------------------------------------

  Memory set to   4.657 GiB by Python driver.
gradient() will perform analytic gradient computation.

*** tstart() called on gpu-2-7.local
*** at Sat Nov 11 18:16:21 2017

    SCF Algorithm Type (re)set to DF.

*** tstart() called on gpu-2-7.local
*** at Sat Nov 11 18:16:21 2017

   => Loading Basis Set <=

    Name: AUG-CC-PVTZ
    Role: ORBITAL
    Keyword: BASIS
    atoms 1-11  entry C          line   221 file /cbio/jclab/home/chayas/anaconda/envs/py35/share/psi4/basis/aug-cc-pvtz.gbs 
    atoms 12    entry N          line   267 file /cbio/jclab/home/chayas/anaconda/envs/py35/share/psi4/basis/aug-cc-pvtz.gbs 
    atoms 13    entry O          line   313 file /cbio/jclab/home/chayas/anaconda/envs/py35/share/psi4/basis/aug-cc-pvtz.gbs 
    atoms 14    entry F          line   359 file /cbio/jclab/home/chayas/anaconda/envs/py35/share/psi4/basis/aug-cc-pvtz.gbs 
    atoms 15-23 entry H          line    34 file /cbio/jclab/home/chayas/anaconda/envs/py35/share/psi4/basis/aug-cc-pvtz.gbs 


         ---------------------------------------------------------
                                   SCF
            by Justin Turney, Rob Parrish, and Andy Simmonett
                              RHF Reference
                        8 Threads,   4768 MiB Core
         ---------------------------------------------------------

  ==> Geometry <==

    Molecular point group: c1
    Full point group: C1

    Geometry (in Angstrom), charge = 1, multiplicity = 1:

       Center              X                  Y                   Z               Mass       
    ------------   -----------------  -----------------  -----------------  -----------------
           C         -1.338019591328     0.763721740865    -0.788346714428    12.000000000000
           C         -2.416019591328     1.336721740865    -0.115346714428    12.000000000000
           C          2.115980408672    -0.183278259135    -0.341346714428    12.000000000000
           C          0.588980408672    -1.238278259135    -1.877346714428    12.000000000000
           C         -1.423019591328     0.720721740865     1.999653285572    12.000000000000
           C          3.166980408672    -0.765278259135    -1.035346714428    12.000000000000
           C          1.678980408672    -1.793278259135    -2.532346714428    12.000000000000
           C         -0.302019591328     0.168721740865    -0.068346714428    12.000000000000
           C          0.814980408672    -0.425278259135    -0.771346714428    12.000000000000
           C         -2.459019591328     1.315721740865     1.278653285572    12.000000000000
           C         -0.345019591328     0.147721740865     1.325653285572    12.000000000000
           N          2.921980408672    -1.544278259135    -2.097346714428    14.003074004780
           O         -3.512019591328     1.875721740865     1.935653285572    15.994914619560
           F          0.642980408672    -0.420278259135     2.032653285572    18.998403224000
           H         -1.319019591328     0.787721740865    -1.875346714428     1.007825032070
           H         -3.221019591328     1.797721740865    -0.682346714428     1.007825032070
           H          2.321980408672     0.446721740865     0.518653285572     1.007825032070
           H         -0.416019591328    -1.443278259135    -2.235346714428     1.007825032070
           H         -1.451019591328     0.700721740865     3.085653285572     1.007825032070
           H          4.207980408672    -0.634278259135    -0.773346714428     1.007825032070
           H          1.598980408672    -2.436278259135    -3.398346714428     1.007825032070
           H          3.708980408672    -1.961278259135    -2.593346714428     1.007825032070
           H         -3.398019591328     1.781721740865     2.894653285572     1.007825032070

  Running in c1 symmetry.

  Rotational constants: A =      0.06291  B =      0.01311  C =      0.01133 [cm^-1]
  Rotational constants: A =   1885.98693  B =    392.95142  C =    339.76968 [MHz]
  Nuclear repulsion =  830.654398162988059

  Charge       = 1
  Multiplicity = 1
  Electrons    = 98
  Nalpha       = 49
  Nbeta        = 49

  ==> Algorithm <==

  SCF Algorithm Type is DF.
  DIIS enabled.
  MOM disabled.
  Fractional occupation disabled.
  Guess Type is SAD.
  Energy threshold   = 1.00e-10
  Density threshold  = 1.00e-10
  Integral threshold = 0.00e+00

  ==> Primary Basis <==

  Basis Set: AUG-CC-PVTZ
    Blend: AUG-CC-PVTZ
    Number of shells: 277
    Number of basis function: 851
    Number of Cartesian functions: 995
    Spherical Harmonics?: true
    Max angular momentum: 3

   => Loading Basis Set <=

    Name: (AUG-CC-PVTZ AUX)
    Role: JKFIT
    Keyword: DF_BASIS_SCF
    atoms 1-11  entry C          line   161 file /cbio/jclab/home/chayas/anaconda/envs/py35/share/psi4/basis/aug-cc-pvtz-jkfit.gbs 
    atoms 12    entry N          line   223 file /cbio/jclab/home/chayas/anaconda/envs/py35/share/psi4/basis/aug-cc-pvtz-jkfit.gbs 
    atoms 13    entry O          line   285 file /cbio/jclab/home/chayas/anaconda/envs/py35/share/psi4/basis/aug-cc-pvtz-jkfit.gbs 
    atoms 14    entry F          line   347 file /cbio/jclab/home/chayas/anaconda/envs/py35/share/psi4/basis/aug-cc-pvtz-jkfit.gbs 
    atoms 15-23 entry H          line    69 file /cbio/jclab/home/chayas/anaconda/envs/py35/share/psi4/basis/aug-cc-pvtz-jkfit.gbs 

  ==> Pre-Iterations <==

   -------------------------------------------------------
    Irrep   Nso     Nmo     Nalpha   Nbeta   Ndocc  Nsocc
   -------------------------------------------------------
     A        851     851       0       0       0       0
   -------------------------------------------------------
    Total     851     851      49      49      49       0
   -------------------------------------------------------

  ==> Integral Setup <==

  ==> DFJK: Density-Fitted J/K Matrices <==

    J tasked:                  Yes
    K tasked:                  Yes
    wK tasked:                  No
    OpenMP threads:              8
    Integrals threads:           8
    Memory (MB):              3576
    Algorithm:                Disk
    Integral Cache:           NONE
    Schwarz Cutoff:          1E-12
    Fitting Condition:       1E-12

   => Auxiliary Basis Set <=

  Basis Set: (AUG-CC-PVTZ AUX)
    Blend: AUG-CC-PVTZ-JKFIT
    Number of shells: 546
    Number of basis function: 1870
    Number of Cartesian functions: 2329
    Spherical Harmonics?: true
    Max angular momentum: 4

  Minimum eigenvalue in the overlap matrix is 6.6127248160E-07.
  Using Symmetric Orthogonalization.

  SCF Guess: Superposition of Atomic Densities via on-the-fly atomic UHF.

  ==> Iterations <==

                           Total Energy        Delta E     RMS |[F,P]|

   @DF-RHF iter   0:  -651.45961608470736   -6.51460e+02   2.20086e-02 
   @DF-RHF iter   1:  -650.01988768278432    1.43973e+00   2.23822e-03 
   @DF-RHF iter   2:  -650.43733787973986   -4.17450e-01   9.86585e-04 DIIS
   @DF-RHF iter   3:  -650.54224014670342   -1.04902e-01   3.33070e-04 DIIS
   @DF-RHF iter   4:  -650.55857975290348   -1.63396e-02   1.71538e-04 DIIS
   @DF-RHF iter   5:  -650.56118591960239   -2.60617e-03   3.90733e-05 DIIS
   @DF-RHF iter   6:  -650.56152850085755   -3.42581e-04   1.54342e-05 DIIS
   @DF-RHF iter   7:  -650.56160341352495   -7.49127e-05   9.05718e-06 DIIS
   @DF-RHF iter   8:  -650.56161749810508   -1.40846e-05   2.54980e-06 DIIS
   @DF-RHF iter   9:  -650.56161990909288   -2.41099e-06   1.09130e-06 DIIS
   @DF-RHF iter  10:  -650.56162060437271   -6.95280e-07   4.24321e-07 DIIS
   @DF-RHF iter  11:  -650.56162073411610   -1.29743e-07   2.24740e-07 DIIS
   @DF-RHF iter  12:  -650.56162074432575   -1.02096e-08   8.23492e-08 DIIS
   @DF-RHF iter  13:  -650.56162074563917   -1.31342e-09   2.04680e-08 DIIS
   @DF-RHF iter  14:  -650.56162074588224   -2.43062e-10   9.83338e-09 DIIS
   @DF-RHF iter  15:  -650.56162074593567   -5.34328e-11   4.44682e-09 DIIS
   @DF-RHF iter  16:  -650.56162074594738   -1.17097e-11   2.18520e-09 DIIS
   @DF-RHF iter  17:  -650.56162074593703    1.03455e-11   1.02585e-09 DIIS
   @DF-RHF iter  18:  -650.56162074596318   -2.61480e-11   3.47766e-10 DIIS
   @DF-RHF iter  19:  -650.56162074595989    3.29692e-12   1.15659e-10 DIIS
   @DF-RHF iter  20:  -650.56162074593828    2.16005e-11   5.22678e-11 DIIS

  ==> Post-Iterations <==

    Orbital Energies (a.u.)
    -----------------------

    Doubly Occupied:                                                      

       1A    -26.448801     2A    -20.709252     3A    -15.838486  
       4A    -11.487185     5A    -11.485094     6A    -11.473489  
       7A    -11.450102     8A    -11.443160     9A    -11.419065  
      10A    -11.416634    11A    -11.387742    12A    -11.380078  
      13A    -11.364373    14A    -11.356733    15A     -1.767676  
      16A     -1.523654    17A     -1.514595    18A     -1.325388  
      19A     -1.272030    20A     -1.239636    21A     -1.165214  
      22A     -1.155388    23A     -1.071181    24A     -1.060567  
      25A     -0.993845    26A     -0.968958    27A     -0.962084  
      28A     -0.894526    29A     -0.872469    30A     -0.859968  
      31A     -0.856982    32A     -0.834295    33A     -0.819240  
      34A     -0.808631    35A     -0.793838    36A     -0.777765  
      37A     -0.762058    38A     -0.750918    39A     -0.727833  
      40A     -0.714575    41A     -0.708239    42A     -0.688552  
      43A     -0.655960    44A     -0.647756    45A     -0.629030  
      46A     -0.576037    47A     -0.538222    48A     -0.473543  
      49A     -0.446751  

    Virtual:                                                              

      50A     -0.105911    51A     -0.085267    52A     -0.063815  
      53A     -0.062429    54A     -0.057222    55A     -0.049283  
      56A     -0.042696    57A     -0.039848    58A     -0.033927  
      59A     -0.028460    60A     -0.024634    61A     -0.019823  
      62A     -0.014883    63A     -0.011227    64A     -0.006895  
      65A     -0.000973    66A      0.003663    67A      0.006490  
      68A      0.009777    69A      0.013420    70A      0.017603  
      71A      0.020626    72A      0.023717    73A      0.026754  
      74A      0.030858    75A      0.033666    76A      0.036642  
      77A      0.039166    78A      0.041609    79A      0.041796  
      80A      0.049312    81A      0.053547    82A      0.056196  
      83A      0.064097    84A      0.066495    85A      0.068369  
      86A      0.070417    87A      0.077625    88A      0.080827  
      89A      0.081731    90A      0.085132    91A      0.093037  
      92A      0.096140    93A      0.104997    94A      0.110140  
      95A      0.114668    96A      0.116664    97A      0.118894  
      98A      0.121312    99A      0.127140   100A      0.132571  
     101A      0.135409   102A      0.137022   103A      0.137793  
     104A      0.141663   105A      0.152594   106A      0.156442  
     107A      0.160170   108A      0.161213   109A      0.164524  
     110A      0.168211   111A      0.169214   112A      0.173924  
     113A      0.177291   114A      0.183344   115A      0.185069  
     116A      0.192429   117A      0.194512   118A      0.199776  
     119A      0.202906   120A      0.204827   121A      0.207392  
     122A      0.212940   123A      0.216199   124A      0.219790  
     125A      0.220554   126A      0.224467   127A      0.230129  
     128A      0.235886   129A      0.239595   130A      0.241646  
     131A      0.243169   132A      0.247008   133A      0.248637  
     134A      0.256841   135A      0.264742   136A      0.267863  
     137A      0.273233   138A      0.275136   139A      0.279526  
     140A      0.282478   141A      0.286742   142A      0.293194  
     143A      0.296799   144A      0.304174   145A      0.304481  
     146A      0.311930   147A      0.312714   148A      0.318624  
     149A      0.320066   150A      0.322382   151A      0.327986  
     152A      0.330224   153A      0.335536   154A      0.338110  
     155A      0.341249   156A      0.344272   157A      0.345508  
     158A      0.348749   159A      0.349782   160A      0.359416  
     161A      0.361295   162A      0.364933   163A      0.368660  
     164A      0.371666   165A      0.374661   166A      0.377779  
     167A      0.378127   168A      0.386680   169A      0.390080  
     170A      0.392562   171A      0.396610   172A      0.400517  
     173A      0.402098   174A      0.405737   175A      0.410291  
     176A      0.411713   177A      0.418105   178A      0.421378  
     179A      0.424711   180A      0.428198   181A      0.430177  
     182A      0.434178   183A      0.437781   184A      0.442100  
     185A      0.448840   186A      0.455624   187A      0.461078  
     188A      0.464328   189A      0.469068   190A      0.475213  
     191A      0.479860   192A      0.481098   193A      0.486923  
     194A      0.491402   195A      0.504399   196A      0.510070  
     197A      0.522236   198A      0.524069   199A      0.529996  
     200A      0.536931   201A      0.544937   202A      0.546938  
     203A      0.550817   204A      0.563982   205A      0.567984  
     206A      0.572753   207A      0.573579   208A      0.578259  
     209A      0.581348   210A      0.584194   211A      0.594036  
     212A      0.601453   213A      0.605880   214A      0.610062  
     215A      0.614045   216A      0.616709   217A      0.623010  
     218A      0.629285   219A      0.631259   220A      0.636878  
     221A      0.637959   222A      0.647374   223A      0.656228  
     224A      0.658415   225A      0.668942   226A      0.673593  
     227A      0.683715   228A      0.692074   229A      0.698443  
     230A      0.700190   231A      0.707424   232A      0.712680  
     233A      0.714308   234A      0.718277   235A      0.725368  
     236A      0.727449   237A      0.730374   238A      0.736647  
     239A      0.741528   240A      0.748252   241A      0.749244  
     242A      0.756738   243A      0.764436   244A      0.766565  
     245A      0.770454   246A      0.779920   247A      0.783173  
     248A      0.786040   249A      0.787658   250A      0.791378  
     251A      0.798303   252A      0.799472   253A      0.808428  
     254A      0.810384   255A      0.813299   256A      0.820176  
     257A      0.824819   258A      0.831350   259A      0.835432  
     260A      0.840043   261A      0.846714   262A      0.852121  
     263A      0.853856   264A      0.861915   265A      0.867859  
     266A      0.868629   267A      0.875574   268A      0.876639  
     269A      0.881601   270A      0.886151   271A      0.888494  
     272A      0.900687   273A      0.903954   274A      0.910030  
     275A      0.912648   276A      0.917341   277A      0.921751  
     278A      0.925910   279A      0.927953   280A      0.931268  
     281A      0.936859   282A      0.937772   283A      0.942819  
     284A      0.951328   285A      0.953012   286A      0.955606  
     287A      0.960959   288A      0.966346   289A      0.970985  
     290A      0.975317   291A      0.979820   292A      0.988275  
     293A      0.989080   294A      0.993026   295A      0.994956  
     296A      1.002266   297A      1.005233   298A      1.009828  
     299A      1.012924   300A      1.017635   301A      1.019666  
     302A      1.023407   303A      1.034264   304A      1.035921  
     305A      1.047725   306A      1.049291   307A      1.053154  
     308A      1.059986   309A      1.063988   310A      1.069569  
     311A      1.079525   312A      1.082053   313A      1.087685  
     314A      1.089077   315A      1.093750   316A      1.097413  
     317A      1.105686   318A      1.111229   319A      1.114883  
     320A      1.120115   321A      1.125922   322A      1.132776  
     323A      1.136921   324A      1.139200   325A      1.142691  
     326A      1.149453   327A      1.157125   328A      1.158855  
     329A      1.165381   330A      1.175026   331A      1.189403  
     332A      1.190522   333A      1.197531   334A      1.208048  
     335A      1.214877   336A      1.217641   337A      1.225278  
     338A      1.235475   339A      1.243186   340A      1.244738  
     341A      1.254870   342A      1.257240   343A      1.261029  
     344A      1.263167   345A      1.269505   346A      1.282749  
     347A      1.288991   348A      1.293200   349A      1.298947  
     350A      1.299562   351A      1.309711   352A      1.317042  
     353A      1.319278   354A      1.324872   355A      1.337570  
     356A      1.344920   357A      1.353731   358A      1.358815  
     359A      1.364152   360A      1.371911   361A      1.383064  
     362A      1.385513   363A      1.390133   364A      1.392500  
     365A      1.403833   366A      1.413054   367A      1.422356  
     368A      1.430546   369A      1.434710   370A      1.446041  
     371A      1.449477   372A      1.462071   373A      1.466185  
     374A      1.472703   375A      1.477864   376A      1.490065  
     377A      1.498830   378A      1.503448   379A      1.513732  
     380A      1.520124   381A      1.523242   382A      1.530096  
     383A      1.537488   384A      1.542774   385A      1.549968  
     386A      1.554019   387A      1.562316   388A      1.567852  
     389A      1.573663   390A      1.576284   391A      1.585967  
     392A      1.595949   393A      1.611284   394A      1.615738  
     395A      1.628752   396A      1.642020   397A      1.652252  
     398A      1.657813   399A      1.658903   400A      1.663148  
     401A      1.665935   402A      1.675689   403A      1.684995  
     404A      1.690177   405A      1.697798   406A      1.707918  
     407A      1.712584   408A      1.720992   409A      1.731653  
     410A      1.736974   411A      1.740008   412A      1.754378  
     413A      1.763427   414A      1.770402   415A      1.778566  
     416A      1.790932   417A      1.795658   418A      1.803020  
     419A      1.806602   420A      1.811602   421A      1.817286  
     422A      1.823471   423A      1.832798   424A      1.845139  
     425A      1.850157   426A      1.858774   427A      1.861731  
     428A      1.869325   429A      1.872995   430A      1.880538  
     431A      1.887752   432A      1.901177   433A      1.906957  
     434A      1.912413   435A      1.918257   436A      1.924400  
     437A      1.932381   438A      1.941013   439A      1.948593  
     440A      1.950101   441A      1.962924   442A      1.978405  
     443A      1.992594   444A      1.997828   445A      1.999004  
     446A      2.010128   447A      2.015275   448A      2.029630  
     449A      2.035319   450A      2.044390   451A      2.048913  
     452A      2.053165   453A      2.062541   454A      2.078173  
     455A      2.082032   456A      2.087248   457A      2.093430  
     458A      2.105198   459A      2.109089   460A      2.134602  
     461A      2.151351   462A      2.167289   463A      2.168887  
     464A      2.182578   465A      2.185344   466A      2.189456  
     467A      2.200855   468A      2.208678   469A      2.218171  
     470A      2.227118   471A      2.235596   472A      2.239994  
     473A      2.253991   474A      2.263826   475A      2.271317  
     476A      2.275618   477A      2.297819   478A      2.302001  
     479A      2.321784   480A      2.327289   481A      2.342994  
     482A      2.349428   483A      2.363454   484A      2.366907  
     485A      2.381777   486A      2.395607   487A      2.400976  
     488A      2.407963   489A      2.419194   490A      2.426997  
     491A      2.435139   492A      2.438908   493A      2.467711  
     494A      2.470686   495A      2.484321   496A      2.497777  
     497A      2.514807   498A      2.526407   499A      2.540638  
     500A      2.556450   501A      2.558266   502A      2.581179  
     503A      2.588596   504A      2.594788   505A      2.607344  
     506A      2.623847   507A      2.626151   508A      2.638914  
     509A      2.680593   510A      2.700800   511A      2.721593  
     512A      2.726531   513A      2.743091   514A      2.766175  
     515A      2.767862   516A      2.780571   517A      2.800823  
     518A      2.817437   519A      2.835069   520A      2.862278  
     521A      2.896870   522A      2.926566   523A      2.931659  
     524A      2.939186   525A      2.952620   526A      2.962728  
     527A      2.973840   528A      2.989847   529A      3.004539  
     530A      3.015754   531A      3.025585   532A      3.034879  
     533A      3.044220   534A      3.057185   535A      3.074073  
     536A      3.076658   537A      3.096754   538A      3.118430  
     539A      3.142637   540A      3.153657   541A      3.156243  
     542A      3.164228   543A      3.173736   544A      3.187516  
     545A      3.195681   546A      3.199174   547A      3.221785  
     548A      3.223090   549A      3.234095   550A      3.250578  
     551A      3.252807   552A      3.271128   553A      3.271707  
     554A      3.278961   555A      3.301386   556A      3.308785  
     557A      3.321770   558A      3.331400   559A      3.339391  
     560A      3.345435   561A      3.346559   562A      3.356233  
     563A      3.365783   564A      3.374956   565A      3.385670  
     566A      3.386821   567A      3.400813   568A      3.408915  
     569A      3.414269   570A      3.421423   571A      3.428634  
     572A      3.434978   573A      3.445125   574A      3.455217  
     575A      3.470076   576A      3.474787   577A      3.487872  
     578A      3.498267   579A      3.501198   580A      3.509792  
     581A      3.516419   582A      3.532244   583A      3.539280  
     584A      3.547600   585A      3.558872   586A      3.564777  
     587A      3.571643   588A      3.593567   589A      3.595033  
     590A      3.601131   591A      3.616127   592A      3.635021  
     593A      3.636607   594A      3.641998   595A      3.651007  
     596A      3.660894   597A      3.667966   598A      3.680538  
     599A      3.685829   600A      3.694744   601A      3.705950  
     602A      3.716276   603A      3.717897   604A      3.720369  
     605A      3.729299   606A      3.747438   607A      3.753489  
     608A      3.758835   609A      3.762842   610A      3.779451  
     611A      3.782006   612A      3.790520   613A      3.795747  
     614A      3.809234   615A      3.813028   616A      3.822686  
     617A      3.833826   618A      3.838210   619A      3.847440  
     620A      3.865912   621A      3.870314   622A      3.877112  
     623A      3.878770   624A      3.889961   625A      3.893966  
     626A      3.898870   627A      3.916454   628A      3.927610  
     629A      3.932441   630A      3.948722   631A      3.963420  
     632A      3.966326   633A      3.975226   634A      3.989465  
     635A      3.992158   636A      3.996122   637A      4.014615  
     638A      4.023491   639A      4.026366   640A      4.037236  
     641A      4.044409   642A      4.054265   643A      4.062065  
     644A      4.070689   645A      4.072512   646A      4.097426  
     647A      4.105136   648A      4.112790   649A      4.116555  
     650A      4.125977   651A      4.130399   652A      4.143237  
     653A      4.159760   654A      4.169376   655A      4.175621  
     656A      4.186270   657A      4.195483   658A      4.203701  
     659A      4.204684   660A      4.217211   661A      4.225908  
     662A      4.228012   663A      4.236951   664A      4.246485  
     665A      4.247807   666A      4.258138   667A      4.262864  
     668A      4.272492   669A      4.286009   670A      4.288040  
     671A      4.297412   672A      4.308160   673A      4.317638  
     674A      4.334397   675A      4.336875   676A      4.343437  
     677A      4.356707   678A      4.365323   679A      4.374641  
     680A      4.395032   681A      4.398878   682A      4.406132  
     683A      4.413556   684A      4.428112   685A      4.442429  
     686A      4.447673   687A      4.459227   688A      4.467678  
     689A      4.477688   690A      4.488221   691A      4.498929  
     692A      4.511639   693A      4.537093   694A      4.566695  
     695A      4.574767   696A      4.581269   697A      4.594972  
     698A      4.597838   699A      4.618906   700A      4.632880  
     701A      4.640369   702A      4.643455   703A      4.652591  
     704A      4.672059   705A      4.684342   706A      4.699998  
     707A      4.718377   708A      4.730675   709A      4.738938  
     710A      4.753157   711A      4.761370   712A      4.775550  
     713A      4.783073   714A      4.815211   715A      4.817831  
     716A      4.823262   717A      4.837576   718A      4.844080  
     719A      4.856146   720A      4.874752   721A      4.884810  
     722A      4.907389   723A      4.917346   724A      4.923838  
     725A      4.943513   726A      4.954376   727A      4.956789  
     728A      4.960059   729A      4.970632   730A      4.991090  
     731A      5.005828   732A      5.014698   733A      5.024256  
     734A      5.028662   735A      5.040550   736A      5.046340  
     737A      5.065705   738A      5.084351   739A      5.089351  
     740A      5.112457   741A      5.121901   742A      5.145069  
     743A      5.157782   744A      5.162770   745A      5.189952  
     746A      5.200098   747A      5.208390   748A      5.213852  
     749A      5.239518   750A      5.271364   751A      5.275517  
     752A      5.283650   753A      5.319601   754A      5.332379  
     755A      5.341848   756A      5.367614   757A      5.375716  
     758A      5.388747   759A      5.406315   760A      5.419063  
     761A      5.455236   762A      5.476387   763A      5.485514  
     764A      5.502010   765A      5.510869   766A      5.559124  
     767A      5.579423   768A      5.605061   769A      5.610808  
     770A      5.621725   771A      5.656020   772A      5.670841  
     773A      5.696875   774A      5.703775   775A      5.706927  
     776A      5.754512   777A      5.779084   778A      5.828097  
     779A      5.839404   780A      5.880018   781A      5.926017  
     782A      5.934791   783A      5.977556   784A      5.992621  
     785A      6.010691   786A      6.030785   787A      6.101318  
     788A      6.146187   789A      6.164562   790A      6.195900  
     791A      6.217898   792A      6.276022   793A      6.300300  
     794A      6.339983   795A      6.376544   796A      6.398434  
     797A      6.421406   798A      6.468667   799A      6.524528  
     800A      6.566373   801A      6.597951   802A      6.618270  
     803A      6.655668   804A      6.744327   805A      6.753355  
     806A      6.789096   807A      6.825992   808A      6.834536  
     809A      6.895173   810A      6.908604   811A      6.946016  
     812A      6.974562   813A      7.080798   814A      7.156512  
     815A      7.286941   816A      7.318110   817A      7.358212  
     818A      7.454353   819A      7.541556   820A      7.581179  
     821A      7.584547   822A      7.645462   823A      7.897179  
     824A      8.278978   825A      8.534011   826A      8.928318  
     827A      8.949384   828A      9.150486   829A      9.169884  
     830A      9.297400   831A      9.407276   832A      9.439340  
     833A      9.497746   834A      9.526397   835A      9.596853  
     836A      9.917896   837A      9.970982   838A     15.857831  
     839A     16.139207   840A     16.461471   841A     16.489743  
     842A     16.752139   843A     16.897800   844A     18.772883  
     845A     19.272347   846A     19.478278   847A     19.702628  
     848A     20.041679   849A     20.272686   850A     20.338243  
     851A     21.784524  

    Final Occupation by Irrep:
              A 
    DOCC [    49 ]

  Energy converged.

  @DF-RHF Final Energy:  -650.56162074593828

   => Energetics <=

    Nuclear Repulsion Energy =            830.6543981629880591
    One-Electron Energy =               -2521.3968438471119953
    Two-Electron Energy =                1040.1808249381856513
    DFT Exchange-Correlation Energy =       0.0000000000000000
    Empirical Dispersion Energy =           0.0000000000000000
    PCM Polarization Energy =               0.0000000000000000
    EFP Energy =                            0.0000000000000000
    Total Energy =                       -650.5616207459383986



Properties will be evaluated at   0.000000,   0.000000,   0.000000 Bohr

Properties computed using the SCF density matrix

  Nuclear Dipole Moment: (a.u.)
     X:     1.2738      Y:    -0.4905      Z:    -6.6449

  Electronic Dipole Moment: (a.u.)
     X:     1.5844      Y:    -1.0055      Z:     4.3994

  Dipole Moment: (a.u.)
     X:     2.8581      Y:    -1.4960      Z:    -2.2455     Total:     3.9306

  Dipole Moment: (Debye)
     X:     7.2647      Y:    -3.8025      Z:    -5.7075     Total:     9.9905


*** tstop() called on gpu-2-7.local at Sat Nov 11 18:25:56 2017
Module time:
	user time   =    1448.31 seconds =      24.14 minutes
	system time =      64.41 seconds =       1.07 minutes
	total time  =        575 seconds =       9.58 minutes
Total time:
	user time   =    1448.31 seconds =      24.14 minutes
	system time =      64.41 seconds =       1.07 minutes
	total time  =        575 seconds =       9.58 minutes

  //>>>>>>>>>>>>>>>>>>>>>>>>>>>>>>>>>>>//
  //               DFMP2               //
  //<<<<<<<<<<<<<<<<<<<<<<<<<<<<<<<<<<<//

   => Loading Basis Set <=

    Name: (AUG-CC-PVTZ AUX)
    Role: RIFIT
    Keyword: DF_BASIS_MP2
    atoms 1-11  entry C          line   147 file /cbio/jclab/home/chayas/anaconda/envs/py35/share/psi4/basis/aug-cc-pvtz-ri.gbs 
    atoms 12    entry N          line   205 file /cbio/jclab/home/chayas/anaconda/envs/py35/share/psi4/basis/aug-cc-pvtz-ri.gbs 
    atoms 13    entry O          line   263 file /cbio/jclab/home/chayas/anaconda/envs/py35/share/psi4/basis/aug-cc-pvtz-ri.gbs 
    atoms 14    entry F          line   321 file /cbio/jclab/home/chayas/anaconda/envs/py35/share/psi4/basis/aug-cc-pvtz-ri.gbs 
    atoms 15-23 entry H          line    29 file /cbio/jclab/home/chayas/anaconda/envs/py35/share/psi4/basis/aug-cc-pvtz-ri.gbs 

	 --------------------------------------------------------
	                          DF-MP2                         
	      2nd-Order Density-Fitted Moller-Plesset Theory     
	              RMP2 Wavefunction,   8 Threads             
	                                                         
	        Rob Parrish, Justin Turney, Andy Simmonett,      
	           Ed Hohenstein, and C. David Sherrill          
	 --------------------------------------------------------

   => Auxiliary Basis Set <=

  Basis Set: (AUG-CC-PVTZ AUX)
    Blend: AUG-CC-PVTZ-RI
    Number of shells: 518
    Number of basis function: 1898
    Number of Cartesian functions: 2399
    Spherical Harmonics?: true
    Max angular momentum: 4

	 --------------------------------------------------------
	                 NBF =   851, NAUX =  1898
	 --------------------------------------------------------
	   CLASS    FOCC     OCC    AOCC    AVIR     VIR    FVIR
	   PAIRS       0      49      49     802     802       0
	 --------------------------------------------------------


         ------------------------------------------------------------
                                     CPHF                           
                                  Rob Parrish                       
         ------------------------------------------------------------

  ==> Geometry <==

    Molecular point group: c1
    Full point group: C1

    Geometry (in Angstrom), charge = 1, multiplicity = 1:

       Center              X                  Y                   Z               Mass       
    ------------   -----------------  -----------------  -----------------  -----------------
           C         -1.338019591328     0.763721740865    -0.788346714428    12.000000000000
           C         -2.416019591328     1.336721740865    -0.115346714428    12.000000000000
           C          2.115980408672    -0.183278259135    -0.341346714428    12.000000000000
           C          0.588980408672    -1.238278259135    -1.877346714428    12.000000000000
           C         -1.423019591328     0.720721740865     1.999653285572    12.000000000000
           C          3.166980408672    -0.765278259135    -1.035346714428    12.000000000000
           C          1.678980408672    -1.793278259135    -2.532346714428    12.000000000000
           C         -0.302019591328     0.168721740865    -0.068346714428    12.000000000000
           C          0.814980408672    -0.425278259135    -0.771346714428    12.000000000000
           C         -2.459019591328     1.315721740865     1.278653285572    12.000000000000
           C         -0.345019591328     0.147721740865     1.325653285572    12.000000000000
           N          2.921980408672    -1.544278259135    -2.097346714428    14.003074004780
           O         -3.512019591328     1.875721740865     1.935653285572    15.994914619560
           F          0.642980408672    -0.420278259135     2.032653285572    18.998403224000
           H         -1.319019591328     0.787721740865    -1.875346714428     1.007825032070
           H         -3.221019591328     1.797721740865    -0.682346714428     1.007825032070
           H          2.321980408672     0.446721740865     0.518653285572     1.007825032070
           H         -0.416019591328    -1.443278259135    -2.235346714428     1.007825032070
           H         -1.451019591328     0.700721740865     3.085653285572     1.007825032070
           H          4.207980408672    -0.634278259135    -0.773346714428     1.007825032070
           H          1.598980408672    -2.436278259135    -3.398346714428     1.007825032070
           H          3.708980408672    -1.961278259135    -2.593346714428     1.007825032070
           H         -3.398019591328     1.781721740865     2.894653285572     1.007825032070

  Nuclear repulsion =  830.654398162988059
  Reference energy  = -650.561620745938285

  ==> Basis Set <==

  Basis Set: AUG-CC-PVTZ
    Blend: AUG-CC-PVTZ
    Number of shells: 277
    Number of basis function: 851
    Number of Cartesian functions: 995
    Spherical Harmonics?: true
    Max angular momentum: 3

  ==> CGRSolver (by Rob Parrish) <==

   Number of roots    =         1
   Preconditioning    =    JACOBI
   Convergence cutoff =     1E-06
   Maximum iterations =       100

  ==> CPHFRHamiltonian (by Rob Parrish) <== 

  ==> DFJK: Density-Fitted J/K Matrices <==

    J tasked:                  Yes
    K tasked:                  Yes
    wK tasked:                  No
    OpenMP threads:              8
    Integrals threads:           8
    Memory (MB):              3576
    Algorithm:                Disk
    Integral Cache:           NONE
    Schwarz Cutoff:          1E-12
    Fitting Condition:       1E-12

   => Auxiliary Basis Set <=

  Basis Set: (AUG-CC-PVTZ AUX)
    Blend: AUG-CC-PVTZ-JKFIT
    Number of shells: 546
    Number of basis function: 1870
    Number of Cartesian functions: 2329
    Spherical Harmonics?: true
    Max angular momentum: 4

  ==> CPHF Iterations <==

  => Iterations <=

             Iter  Converged  Remaining    Residual
  CGR           1          0          1   1.231E-01
  CGR           2          0          1   4.888E-02
  CGR           3          0          1   2.857E-02
  CGR           4          0          1   9.428E-03
  CGR           5          0          1   4.172E-03
  CGR           6          0          1   1.833E-03
  CGR           7          0          1   5.910E-04
  CGR           8          0          1   2.548E-04
  CGR           9          0          1   1.139E-04
  CGR          10          0          1   4.412E-05
  CGR          11          0          1   1.789E-05
  CGR          12          0          1   5.950E-06
  CGR          13          0          1   2.118E-06
  CGR          14          1          0   7.078E-07

    CGRSolver converged.

  ==> DFCorrGrad: Density-Fitted Correlated Gradients <==

    OpenMP threads:              8
    Integrals threads:           8
    Memory (MB):              3576
    Schwarz Cutoff:          0E+00
    Fitting Condition:       1E-12

   => Auxiliary Basis Set <=

  Basis Set: (AUG-CC-PVTZ AUX)
    Blend: AUG-CC-PVTZ-JKFIT
    Number of shells: 546
    Number of basis function: 1870
    Number of Cartesian functions: 2329
    Spherical Harmonics?: true
    Max angular momentum: 4

	-----------------------------------------------------------
	 ==================> DF-MP2 Energies <==================== 
	-----------------------------------------------------------
	 Reference Energy          =    -650.5616207459382849 [Eh]
	 Singles Energy            =      -0.0000000000000001 [Eh]
	 Same-Spin Energy          =      -0.6695436098850011 [Eh]
	 Opposite-Spin Energy      =      -2.0146113280085287 [Eh]
	 Correlation Energy        =      -2.6841549378935299 [Eh]
	 Total Energy              =    -653.2457756838317664 [Eh]
	-----------------------------------------------------------
	 ================> DF-SCS-MP2 Energies <================== 
	-----------------------------------------------------------
	 SCS Same-Spin Scale       =       0.3333333333333333 [-]
	 SCS Opposite-Spin Scale   =       1.2000000000000000 [-]
	 SCS Same-Spin Energy      =      -0.2231812032950004 [Eh]
	 SCS Opposite-Spin Energy  =      -2.4175335936102345 [Eh]
	 SCS Correlation Energy    =      -2.6407147969052347 [Eh]
	 SCS Total Energy          =    -653.2023355428435707 [Eh]
	-----------------------------------------------------------


  -Total Gradient:
     Atom            X                  Y                   Z
    ------   -----------------  -----------------  -----------------
       1        0.016170439935    -0.002705562279    -0.011750429466
       2        0.000801655909    -0.001010864870     0.009037245241
       3       -0.015980995556     0.009018987276     0.006668637499
       4       -0.013413715762     0.005102224350     0.011703963011
       5       -0.011742601831     0.006868264541     0.001806404851
       6       -0.002120688010    -0.006985935504    -0.010825885441
       7        0.011336006337     0.001171065369     0.004718224347
       8       -0.008619350666     0.004921361720     0.001176946415
       9        0.008883102565    -0.004472745067    -0.007751799607
      10        0.000563561420     0.000243195381    -0.012464435462
      11        0.021792215015    -0.017602578795    -0.002199005967
      12        0.000752275898     0.000315830531     0.000307212131
      13       -0.007491388102     0.003727609509     0.008588986853
      14        0.001622925025     0.000357278720     0.002880663517
      15       -0.001665563746    -0.000153804411    -0.005865118333
      16       -0.003851511102     0.001580309069    -0.005175890066
      17        0.000933610396     0.003531161722     0.005813902950
      18       -0.005787503290    -0.000083414434    -0.002835407414
      19       -0.001374214669     0.001141262475     0.004708712321
      20        0.003003928875    -0.000944273380    -0.000197911355
      21        0.001283481927    -0.001497147318    -0.002496510043
      22        0.004846967636    -0.002357726368    -0.003148343004
      23        0.000057361788    -0.000164498241     0.007299837018


*** tstop() called on gpu-2-7.local at Sat Nov 11 19:07:21 2017
Module time:
	user time   =    7023.27 seconds =     117.05 minutes
	system time =     136.93 seconds =       2.28 minutes
	total time  =       3060 seconds =      51.00 minutes
Total time:
	user time   =    7023.27 seconds =     117.05 minutes
	system time =     136.93 seconds =       2.28 minutes
	total time  =       3060 seconds =      51.00 minutes

			-----------------------------------------
			 OPTKING 2.0: for geometry optimizations 
			  - R.A. King,  Bethel University        
			-----------------------------------------

	Internal coordinates to be generated automatically.
	Detected frag 1 with atoms:  1 2 3 4 5 6 7 8 9 10 11 12 13 14 15 16 17 18 19 20
	 21 22 23
	---Fragment 1 Bond Connectivity---
	 1 : 2 8 15
	 2 : 1 10 16
	 3 : 6 9 17
	 4 : 7 9 18
	 5 : 10 11 19
	 6 : 3 12 20
	 7 : 4 12 21
	 8 : 1 9 11
	 9 : 3 4 8
	 10 : 2 5 13
	 11 : 5 8 14
	 12 : 6 7 22
	 13 : 10 23
	 14 : 11
	 15 : 1
	 16 : 2
	 17 : 3
	 18 : 4
	 19 : 5
	 20 : 6
	 21 : 7
	 22 : 12
	 23 : 13

	Assuming in current code that numbering for constraints corresponds to unified fragment.
	Fixed dihedral atom list: 
	     1     8     9     3
	---Fragment 1 Geometry and Gradient---
	 C          -2.5284905880        1.4432249320       -1.4897593880
	 C          -4.5656153593        2.5260380061       -0.2179737006
	 C           3.9986234749       -0.3463457159       -0.6450518066
	 C           1.1130116700       -2.3400067861       -3.5476711467
	 C          -2.6891173093        1.3619667083        3.7787970705
	 C           5.9847256406       -1.4461663252       -1.9565217429
	 C           3.1728131549       -3.3888047898       -4.7854417638
	 C          -0.5707343144        0.3188378829       -0.1291565724
	 C           1.5400897761       -0.8036594400       -1.4576340438
	 C          -4.6468735830        2.4863537573        2.4163045286
	 C          -0.6519925381        0.2791536341        2.5051216569
	 N           5.5217427380       -2.9182629827       -3.9634108960
	 O          -6.6367552009        3.5446003917        3.6578545980
	 F           1.2150568812       -0.7942108094        3.8411580328
	 H          -2.4925857915        1.4885783592       -3.5438916945
	 H          -6.0868448963        3.3972017534       -1.2894484179
	 H           4.3879070583        0.8441817478        0.9801126677
	 H          -0.7861630935       -2.7274006433       -4.2241931023
	 H          -2.7420296411        1.3241721856        5.8310396508
	 H           7.9519305449       -1.1986122018       -1.4614134960
	 H           3.0216350642       -4.6038986933       -6.4219445949
	 H           7.0089572046       -3.7062787801       -4.9007150579
	 H          -6.4213264218        3.3669661352        5.4701019594
	             0.0161704399       -0.0027055623       -0.0117504295
	             0.0008016559       -0.0010108649        0.0090372452
	            -0.0159809956        0.0090189873        0.0066686375
	            -0.0134137158        0.0051022244        0.0117039630
	            -0.0117426018        0.0068682645        0.0018064049
	            -0.0021206880       -0.0069859355       -0.0108258854
	             0.0113360063        0.0011710654        0.0047182243
	            -0.0086193507        0.0049213617        0.0011769464
	             0.0088831026       -0.0044727451       -0.0077517996
	             0.0005635614        0.0002431954       -0.0124644355
	             0.0217922150       -0.0176025788       -0.0021990060
	             0.0007522759        0.0003158305        0.0003072121
	            -0.0074913881        0.0037276095        0.0085889869
	             0.0016229250        0.0003572787        0.0028806635
	            -0.0016655637       -0.0001538044       -0.0058651183
	            -0.0038515111        0.0015803091       -0.0051758901
	             0.0009336104        0.0035311617        0.0058139029
	            -0.0057875033       -0.0000834144       -0.0028354074
	            -0.0013742147        0.0011412625        0.0047087123
	             0.0030039289       -0.0009442734       -0.0001979114
	             0.0012834819       -0.0014971473       -0.0024965100
	             0.0048469676       -0.0023577264       -0.0031483430
	             0.0000573618       -0.0001644982        0.0072998370

	Previous optimization step data not found.  Starting new optimization.

	---Fragment 1 Intrafragment Coordinates---
	 - Coordinate -           - BOHR/RAD -       - ANG/DEG -
	 R(1,2)           =         2.634350	       1.394038
	 R(1,8)           =         2.635962	       1.394891
	 R(1,15)          =         2.054947	       1.087431
	 R(2,10)          =         2.635830	       1.394821
	 R(2,16)          =         2.054537	       1.087214
	 R(3,6)           =         2.621862	       1.387430
	 R(3,9)           =         2.629413	       1.391426
	 R(3,17)          =         2.051842	       1.085788
	 R(4,7)           =         2.621991	       1.387498
	 R(4,9)           =         2.628881	       1.391144
	 R(4,18)          =         2.052954	       1.086377
	 R(5,10)          =         2.636938	       1.395407
	 R(5,11)          =         2.635263	       1.394521
	 R(5,19)          =         2.053272	       1.086545
	 R(6,12)          =         2.531605	       1.339668
	 R(6,20)          =         2.043602	       1.081428
	 R(7,12)          =         2.532709	       1.340252
	 R(7,21)          =         2.043881	       1.081575
	 R(8,9)           =         2.735038	       1.447320
	 R(8,11)          =         2.635830	       1.394821
	 R(10,13)         =         2.573123	       1.361638
	 R(11,14)         =         2.534359	       1.341125
	 R(12,22)         =         1.926477	       1.019448
	 R(13,23)         =         1.833631	       0.970316
	 B(1,2,10)        =         2.094553	     120.009056
	 B(1,2,16)        =         2.088723	     119.675016
	 B(1,8,9)         =         2.091569	     119.838095
	 B(1,8,11)        =         2.093692	     119.959722
	 B(2,1,8)         =         2.094940	     120.031219
	 B(2,1,15)        =         2.079469	     119.144799
	 B(2,10,5)        =         2.094306	     119.994870
	 B(2,10,13)       =         2.094247	     119.991510
	 B(3,6,12)        =         2.096610	     120.126924
	 B(3,6,20)        =         2.161803	     123.862167
	 B(3,9,4)         =         2.093510	     119.949275
	 B(3,9,8)         =         2.094544	     120.008551
	 B(4,7,12)        =         2.095607	     120.069464
	 B(4,7,21)        =         2.162380	     123.895229
	 B(4,9,8)         =         2.095131	     120.042173
	 B(5,10,13)       =         2.094633	     120.013619
	 B(5,11,8)        =         2.095181	     120.045019
	 B(5,11,14)       =         2.081414	     119.256220
	 B(6,3,9)         =         2.072304	     118.734286
	 B(6,3,17)        =         2.089624	     119.726623
	 B(6,12,7)        =         2.135230	     122.339666
	 B(6,12,22)       =         2.074152	     118.840156
	 B(7,4,9)         =         2.073108	     118.780348
	 B(7,4,18)        =         2.089432	     119.715661
	 B(7,12,22)       =         2.073802	     118.820091
	 B(8,1,15)        =         2.108776	     120.823969
	 B(8,11,14)       =         2.106591	     120.698759
	 B(9,3,17)        =         2.121257	     121.539088
	 B(9,4,18)        =         2.120643	     121.503904
	 B(9,8,11)        =         2.097924	     120.202184
	 B(10,2,16)       =         2.099909	     120.315896
	 B(10,5,11)       =         2.093699	     119.960108
	 B(10,5,19)       =         2.100355	     120.341451
	 B(10,13,23)      =         1.924294	     110.253909
	 B(11,5,19)       =         2.089132	     119.698439
	 B(12,6,20)       =         2.024771	     116.010827
	 B(12,7,21)       =         2.025197	     116.035254
	 D(1,2,10,5)      =        -0.000325	      -0.018609
	 D(1,2,10,13)     =         3.141388	     179.988267
	 D(1,8,9,3)       =         2.355786	     134.976615
	 D(1,8,9,4)       =        -0.785646	     -45.014198
	 D(1,8,11,5)      =         0.000325	       0.018608
	 D(1,8,11,14)     =        -3.141528	    -179.996269
	 D(2,1,8,9)       =         3.141277	     179.981897
	 D(2,1,8,11)      =        -0.000348	      -0.019945
	 D(2,10,5,11)     =         0.000301	       0.017261
	 D(2,10,5,19)     =        -3.141029	    -179.967685
	 D(2,10,13,23)    =         3.141285	     179.982383
	 D(3,6,12,7)      =         0.000896	       0.051355
	 D(3,6,12,22)     =         3.140595	     179.942864
	 D(3,9,4,7)       =        -0.000801	      -0.045880
	 D(3,9,4,18)      =        -3.140511	    -179.938039
	 D(3,9,8,11)      =        -0.785774	     -45.021540
	 D(4,7,12,6)      =        -0.001051	      -0.060209
	 D(4,7,12,22)     =        -3.140750	    -179.951739
	 D(4,9,3,6)       =         0.000651	       0.037315
	 D(4,9,3,17)      =        -3.141315	    -179.984073
	 D(4,9,8,11)      =         2.355979	     134.987647
	 D(5,10,2,16)     =         3.140149	     179.917291
	 D(5,10,13,23)    =        -0.000187	      -0.010740
	 D(5,11,8,9)      =        -3.141300	    -179.983240
	 D(6,3,9,8)       =        -3.140781	    -179.953507
	 D(6,12,7,21)     =        -3.141244	    -179.980024
	 D(7,4,9,8)       =         3.140632	     179.944939
	 D(7,12,6,20)     =         3.140735	     179.950853
	 D(8,1,2,10)      =         0.000348	       0.019955
	 D(8,1,2,16)      =        -3.140133	    -179.916358
	 D(8,9,3,17)      =         0.000438	       0.025106
	 D(8,9,4,18)      =         0.000921	       0.052780
	 D(8,11,5,10)     =        -0.000301	      -0.017270
	 D(8,11,5,19)     =         3.141030	     179.967774
	 D(9,3,6,12)      =        -0.000681	      -0.039022
	 D(9,3,6,20)      =        -3.140375	    -179.930249
	 D(9,4,7,12)      =         0.000985	       0.056428
	 D(9,4,7,21)      =         3.141063	     179.969628
	 D(9,8,1,15)      =         0.000403	       0.023110
	 D(9,8,11,14)     =         0.000033	       0.001883
	 D(10,2,1,15)     =         3.141234	     179.979432
	 D(10,5,11,14)    =         3.141547	     179.997392
	 D(11,5,10,13)    =        -3.141411	    -179.989616
	 D(11,8,1,15)     =        -3.141221	    -179.978731
	 D(12,6,3,17)     =         3.141278	     179.981969
	 D(12,7,4,18)     =         3.140730	     179.950560
	 D(13,10,2,16)    =        -0.001324	      -0.075833
	 D(13,10,5,19)    =         0.000444	       0.025437
	 D(14,11,5,19)    =        -0.000307	      -0.017564
	 D(15,1,2,16)     =         0.000753	       0.043120
	 D(17,3,6,20)     =         0.001584	       0.090742
	 D(18,4,7,21)     =        -0.002378	      -0.136239
	 D(20,6,12,22)    =        -0.002751	      -0.157639
	 D(21,7,12,22)    =         0.002242	       0.128447
	 R(3,14)          =         5.298576	       2.803886

	Current energy   :      -653.2457756838

	Generating empirical Hessian (Schlegel '84) for each fragment.
	Adding user-defined constraint: Fragment 1; Coordinate 64:
		Value =     2.355786; Fixed value    =     2.356194
		Force =     0.000204; Force constant =     0.500000
	Removing off-diagonal coupling between coordinate 64 and others.
	Taking RFO optimization step.
	Going to follow RFO solution 1.
	Using RFO vector 1.

	Determining step-restricting scale parameter for RS-RFO.
	Maximum step size allowed    0.10000

	 Iter      |step|        alpha        rfo_root  
	------------------------------------------------
	    0     0.21874       1.00000           1
	    1     0.16348       4.24834           1
	    2     0.13072      11.90322           1
	    3     0.11006      24.33805           1
	    4     0.10148      32.90905           1
	    5     0.10004      34.62895           1
	    6     0.10000      34.67673           1
	------------------------------------------------
	Norm of target step-size    0.10000
	Projected energy change by RFO approximation:        -0.0046576465

	Back-transformation to cartesian coordinates...
	Successfully converged to displaced geometry.
	First geometry is closer to target in internal coordinates, so am using that one.
	First geometry has RMS(Delta(q)) = 1.09e-04

	--- Internal Coordinate Step in ANG or DEG, aJ/ANG or AJ/DEG ---
	 ---------------------------------------------------------------------------
	   Coordinate                Previous        Force       Change         New 
	   ----------                --------       ------       ------       ------
	    1 R(1,2)          =      1.394038    -0.102493    -0.010407     1.383631
	    2 R(1,8)          =      1.394891     0.003896     0.000570     1.395461
	    3 R(1,15)         =      1.087431    -0.048034    -0.005990     1.081441
	    4 R(2,10)         =      1.394821    -0.050063    -0.005095     1.389726
	    5 R(2,16)         =      1.087214    -0.051254    -0.006337     1.080877
	    6 R(3,6)          =      1.387430    -0.102251    -0.010209     1.377221
	    7 R(3,9)          =      1.391426     0.048737     0.005073     1.396498
	    8 R(3,17)         =      1.085788    -0.056277    -0.006984     1.078804
	    9 R(4,7)          =      1.387498    -0.102412    -0.010249     1.377248
	   10 R(4,9)          =      1.391144     0.042422     0.004375     1.395519
	   11 R(4,18)         =      1.086377    -0.051938    -0.006463     1.079914
	   12 R(5,10)         =      1.395407    -0.025100    -0.002607     1.392800
	   13 R(5,11)         =      1.394521    -0.141083    -0.014356     1.380165
	   14 R(5,19)         =      1.086545    -0.038894    -0.004764     1.081781
	   15 R(6,12)         =      1.339668     0.023921     0.002096     1.341764
	   16 R(6,20)         =      1.081428    -0.022485    -0.002760     1.078668
	   17 R(7,12)         =      1.340252     0.015817     0.001358     1.341610
	   18 R(7,21)         =      1.081575    -0.023020    -0.002813     1.078763
	   19 R(8,9)          =      1.447320     0.050273     0.005959     1.453279
	   20 R(8,11)         =      1.394821    -0.044755    -0.004409     1.390412
	   21 R(10,13)        =      1.361638    -0.122599    -0.010985     1.350653
	   22 R(11,14)        =      1.341125    -0.021948    -0.001864     1.339262
	   23 R(12,22)        =      1.019448    -0.051393    -0.005428     1.014020
	   24 R(13,23)        =      0.970316    -0.059629    -0.005309     0.965007
	   25 B(1,2,10)       =    120.009056    -0.000167    -0.316416   119.692641
	   26 B(1,2,16)       =    119.675016     0.000259     0.569054   120.244070
	   27 B(1,8,9)        =    119.838095     0.000501     0.886087   120.724182
	   28 B(1,8,11)       =    119.959722    -0.000730    -1.332530   118.627192
	   29 B(2,1,8)        =    120.031219     0.000376     0.757893   120.789112
	   30 B(2,1,15)       =    119.144799    -0.000077    -0.123403   119.021396
	   31 B(2,10,5)       =    119.994870     0.000109     0.196560   120.191431
	   32 B(2,10,13)      =    119.991510    -0.000961    -1.760867   118.230644
	   33 B(3,6,12)       =    120.126924    -0.000276    -0.555285   119.571639
	   34 B(3,6,20)       =    123.862167     0.000021     0.005865   123.868032
	   35 B(3,9,4)        =    119.949275    -0.000588    -1.077818   118.871457
	   36 B(3,9,8)        =    120.008551     0.000382     0.712239   120.720791
	   37 B(4,7,12)       =    120.069464    -0.000280    -0.575805   119.493658
	   38 B(4,7,21)       =    123.895229     0.000025     0.020911   123.916140
	   39 B(4,9,8)        =    120.042173     0.000207     0.365194   120.407367
	   40 B(5,10,13)      =    120.013619     0.000852     1.564302   121.577920
	   41 B(5,11,8)       =    120.045019     0.000670     1.213713   121.258732
	   42 B(5,11,14)      =    119.256220    -0.000068    -0.141095   119.115125
	   43 B(6,3,9)        =    118.734286     0.000408     0.799297   119.533583
	   44 B(6,3,17)       =    119.726623    -0.000231    -0.464805   119.261818
	   45 B(6,12,7)       =    122.339666     0.000295     0.553946   122.893612
	   46 B(6,12,22)      =    118.840156    -0.000145    -0.270798   118.569358
	   47 B(7,4,9)        =    118.780348     0.000442     0.855608   119.635956
	   48 B(7,4,18)       =    119.715661    -0.000225    -0.440902   119.274759
	   49 B(7,12,22)      =    118.820091    -0.000150    -0.283158   118.536933
	   50 B(8,1,15)       =    120.823969    -0.000298    -0.634963   120.189006
	   51 B(8,11,14)      =    120.698759    -0.000602    -1.073511   119.625248
	   52 B(9,3,17)       =    121.539088    -0.000178    -0.334599   121.204489
	   53 B(9,4,18)       =    121.503904    -0.000216    -0.414664   121.089240
	   54 B(9,8,11)       =    120.202184     0.000229     0.446242   120.648426
	   55 B(10,2,16)      =    120.315896    -0.000092    -0.252628   120.063269
	   56 B(10,5,11)      =    119.960108    -0.000257    -0.519823   119.440285
	   57 B(10,5,19)      =    120.341451     0.000261     0.566659   120.908110
	   58 B(10,13,23)     =    110.253909    -0.000135    -0.318487   109.935422
	   59 B(11,5,19)      =    119.698439    -0.000004    -0.046835   119.651604
	   60 B(12,6,20)      =    116.010827     0.000255     0.549502   116.560329
	   61 B(12,7,21)      =    116.035254     0.000255     0.554598   116.589853
	   62 D(1,2,10,5)     =     -0.018609     0.000007     0.129008     0.110399
	   63 D(1,2,10,13)    =    179.988267     0.000006     0.096015   180.084282
	   64 D(1,8,9,3)      =    134.976615     0.000024     0.203404   135.180019
	   65 D(1,8,9,4)      =    -45.014198     0.000031     0.422422   -44.591776
	   66 D(1,8,11,5)     =      0.018608     0.000009     0.200303     0.218911
	   67 D(1,8,11,14)    =   -179.996269    -0.000009    -0.132025  -180.128294
	   68 D(2,1,8,9)      =    179.981897     0.000007     0.177275   180.159172
	   69 D(2,1,8,11)     =     -0.019945     0.000003     0.017317    -0.002627
	   70 D(2,10,5,11)    =      0.017261     0.000005     0.083473     0.100735
	   71 D(2,10,5,19)    =   -179.967685     0.000004     0.059060  -179.908626
	   72 D(2,10,13,23)   =    179.982383    -0.000001    -0.009567   179.972816
	   73 D(3,6,12,7)     =      0.051355     0.000001     0.027825     0.079180
	   74 D(3,6,12,22)    =    179.942864     0.000001     0.021370   179.964234
	   75 D(3,9,4,7)      =     -0.045880     0.000001     0.053791     0.007911
	   76 D(3,9,4,18)     =   -179.938039    -0.000009    -0.132054  -180.070092
	   77 D(3,9,8,11)     =    -45.021540     0.000028     0.366639   -44.654901
	   78 D(4,7,12,6)     =     -0.060209    -0.000003    -0.058102    -0.118311
	   79 D(4,7,12,22)    =   -179.951739    -0.000003    -0.051661  -180.003400
	   80 D(4,9,3,6)      =      0.037315    -0.000002    -0.083654    -0.046339
	   81 D(4,9,3,17)     =   -179.984073    -0.000008    -0.184092  -180.168165
	   82 D(4,9,8,11)     =    134.987647     0.000035     0.585656   135.573303
	   83 D(5,10,2,16)    =    179.917291     0.000007     0.141320   180.058611
	   84 D(5,10,13,23)   =     -0.010740    -0.000002    -0.042942    -0.053682
	   85 D(5,11,8,9)     =   -179.983240     0.000004     0.040479  -179.942762
	   86 D(6,3,9,8)      =   -179.953507     0.000005     0.131917  -179.821589
	   87 D(6,12,7,21)    =   -179.980024     0.000005     0.068135  -179.911888
	   88 D(7,4,9,8)      =    179.944939    -0.000006    -0.161053   179.783886
	   89 D(7,12,6,20)    =    179.950853     0.000006     0.128064   180.078916
	   90 D(8,1,2,10)     =      0.019955    -0.000011    -0.179502    -0.159548
	   91 D(8,1,2,16)     =   -179.916358    -0.000011    -0.191307  -180.107665
	   92 D(8,9,3,17)     =      0.025106    -0.000001     0.031480     0.056585
	   93 D(8,9,4,18)     =      0.052780    -0.000016    -0.346897    -0.294117
	   94 D(8,11,5,10)    =     -0.017270    -0.000013    -0.250879    -0.268149
	   95 D(8,11,5,19)    =    179.967774    -0.000012    -0.226682   179.741092
	   96 D(9,3,6,12)     =     -0.039022     0.000002     0.044276     0.005254
	   97 D(9,3,6,20)     =   -179.930249    -0.000004    -0.064213  -179.994462
	   98 D(9,4,7,12)     =      0.056428     0.000002     0.015651     0.072079
	   99 D(9,4,7,21)     =    179.969628    -0.000006    -0.119986   179.849642
	  100 D(9,8,1,15)     =      0.023110    -0.000009    -0.119993    -0.096883
	  101 D(9,8,11,14)    =      0.001883    -0.000013    -0.291849    -0.289966
	  102 D(10,2,1,15)    =    179.979432     0.000006     0.114127   180.093559
	  103 D(10,5,11,14)   =    179.997392     0.000005     0.079928   180.077320
	  104 D(11,5,10,13)   =   -179.989616     0.000006     0.117360  -179.872255
	  105 D(11,8,1,15)    =   -179.978731    -0.000014    -0.279951  -180.258682
	  106 D(12,6,3,17)    =    179.981969     0.000007     0.142726   180.124695
	  107 D(12,7,4,18)    =    179.950560     0.000012     0.198098   180.148659
	  108 D(13,10,2,16)   =     -0.075833     0.000006     0.108327     0.032494
	  109 D(13,10,5,19)   =      0.025437     0.000005     0.092947     0.118384
	  110 D(14,11,5,19)   =     -0.017564     0.000006     0.104125     0.086561
	  111 D(15,1,2,16)    =      0.043120     0.000005     0.102323     0.145442
	  112 D(17,3,6,20)    =      0.090742     0.000002     0.034238     0.124979
	  113 D(18,4,7,21)    =     -0.136239     0.000004     0.062461    -0.073778
	  114 D(20,6,12,22)   =     -0.157639     0.000007     0.121609    -0.036030
	  115 D(21,7,12,22)   =      0.128447     0.000004     0.074576     0.203022
	  116 R(3,14)         =      2.803886     0.008749     0.002870     2.806755
	 ---------------------------------------------------------------------------
	Successfully symmetrized geometry.
	 Forces used to impose fixed constraints are not included.
	  Forces zeroed: 64 

  ==> Convergence Check <==

  Measures of convergence in internal coordinates in au.
  Criteria marked as inactive (o), active & met (*), and active & unmet ( ).
  --------------------------------------------------------------------------------------------- ~
   Step     Total Energy     Delta E     MAX Force     RMS Force      MAX Disp      RMS Disp    ~
  --------------------------------------------------------------------------------------------- ~
    Convergence Criteria    1.00e-06 *    3.00e-04 *             o    1.20e-03 *             o  ~
  --------------------------------------------------------------------------------------------- ~
      1    -653.24577568   -6.53e+02      1.71e-02      4.54e-03 o    3.07e-02      9.28e-03 o  ~
  ---------------------------------------------------------------------------------------------

	Writing optimization data to binary file.
	Structure for next step:
	Cartesian Geometry (in Angstrom)
	    C    -1.3526173322   0.7649671064  -0.7700292452
	    C    -2.4214185154   1.3357517720  -0.1019693859
	    C     2.1282488435  -0.1940711901  -0.3464273296
	    C     0.6030743521  -1.2402637441  -1.8823253210
	    C    -1.4196699497   0.7209516124   2.0043429453
	    C     3.1749545618  -0.7683260637  -1.0329956566
	    C     1.6797378562  -1.7934075765  -2.5393191317
	    C    -0.3059266686   0.1687941223  -0.0655238577
	    C     0.8176667715  -0.4272678315  -0.7685657802
	    C    -2.4563910859   1.3131600812   1.2871327294
	    C    -0.3581918998   0.1596287527   1.3238752957
	    N     2.9219644619  -1.5439959111  -2.0982015850
	    O    -3.5144045071   1.8773780449   1.9088475141
	    F     0.6343826459  -0.4094639110   2.0199720467
	    H    -1.3357411579   0.7900304441  -1.8510482204
	    H    -3.2266155874   1.7967221202  -0.6564593095
	    H     2.3374758854   0.4303314322   0.5080691954
	    H    -0.3954095248  -1.4453215666  -2.2389693956
	    H    -1.4357533945   0.6955425018   3.0857058194
	    H     4.2122272304  -0.6355690985  -0.7684848619
	    H     1.5936596973  -2.4325178024  -3.4041067504
	    H     3.7040364323  -1.9587045572  -2.5927885063
	    H    -3.4167397156   1.7942513023   2.8652943591
			--------------------------
			 OPTKING Finished Execution 
			--------------------------

    Structure for next step:
    Molecular point group: c1
    Full point group: C1

    Geometry (in Angstrom), charge = 1, multiplicity = 1:

    C           -1.352000841822     0.764257522747    -0.768623642904
    C           -2.420802025007     1.335042188283    -0.100563783545
    C            2.128865333904    -0.194780773783    -0.345021727260
    C            0.603690842540    -1.240973327839    -1.880919718635
    C           -1.419053459248     0.720242028746     2.005748547595
    C            3.175571052248    -0.769035647402    -1.031590054287
    C            1.680354346608    -1.794117160237    -2.537913529352
    C           -0.305310178134     0.168084538603    -0.064118255377
    C            0.818283261954    -0.427977415226    -0.767160177853
    C           -2.455774595485     1.312450497493     1.288538331764
    C           -0.357575409355     0.158919168967     1.325280898067
    N            2.922580952304    -1.544705494825    -2.096795982686
    O           -3.513788016719     1.876668461190     1.910253116451
    F            0.634999136374    -0.410173494697     2.021377649079
    H           -1.335124667467     0.789320860423    -1.849642618023
    H           -3.225999096998     1.796012536480    -0.655053707135
    H            2.338092375836     0.429621848527     0.509474797777
    H           -0.394793034359    -1.446031150330    -2.237563793227
    H           -1.435136904050     0.694832918128     3.087111421753
    H            4.212843720828    -0.636278682186    -0.767079259549
    H            1.594276187760    -2.433227386063    -3.402701148035
    H            3.704652922702    -1.959414140880    -2.591382904002
    H           -3.416123225129     1.793541718618     2.866699961424

gradient() will perform analytic gradient computation.

*** tstart() called on gpu-2-7.local
*** at Sat Nov 11 19:07:23 2017

    SCF Algorithm Type (re)set to DF.

*** tstart() called on gpu-2-7.local
*** at Sat Nov 11 19:07:23 2017

   => Loading Basis Set <=

    Name: AUG-CC-PVTZ
    Role: ORBITAL
    Keyword: BASIS
    atoms 1-11  entry C          line   221 file /cbio/jclab/home/chayas/anaconda/envs/py35/share/psi4/basis/aug-cc-pvtz.gbs 
    atoms 12    entry N          line   267 file /cbio/jclab/home/chayas/anaconda/envs/py35/share/psi4/basis/aug-cc-pvtz.gbs 
    atoms 13    entry O          line   313 file /cbio/jclab/home/chayas/anaconda/envs/py35/share/psi4/basis/aug-cc-pvtz.gbs 
    atoms 14    entry F          line   359 file /cbio/jclab/home/chayas/anaconda/envs/py35/share/psi4/basis/aug-cc-pvtz.gbs 
    atoms 15-23 entry H          line    34 file /cbio/jclab/home/chayas/anaconda/envs/py35/share/psi4/basis/aug-cc-pvtz.gbs 


         ---------------------------------------------------------
                                   SCF
            by Justin Turney, Rob Parrish, and Andy Simmonett
                              RHF Reference
                        8 Threads,   4768 MiB Core
         ---------------------------------------------------------

  ==> Geometry <==

    Molecular point group: c1
    Full point group: C1

    Geometry (in Angstrom), charge = 1, multiplicity = 1:

       Center              X                  Y                   Z               Mass       
    ------------   -----------------  -----------------  -----------------  -----------------
           C         -1.352000841822     0.764257522747    -0.768623642904    12.000000000000
           C         -2.420802025007     1.335042188283    -0.100563783545    12.000000000000
           C          2.128865333904    -0.194780773783    -0.345021727260    12.000000000000
           C          0.603690842540    -1.240973327839    -1.880919718635    12.000000000000
           C         -1.419053459248     0.720242028746     2.005748547595    12.000000000000
           C          3.175571052248    -0.769035647402    -1.031590054287    12.000000000000
           C          1.680354346608    -1.794117160237    -2.537913529352    12.000000000000
           C         -0.305310178134     0.168084538603    -0.064118255377    12.000000000000
           C          0.818283261954    -0.427977415226    -0.767160177853    12.000000000000
           C         -2.455774595485     1.312450497493     1.288538331764    12.000000000000
           C         -0.357575409355     0.158919168967     1.325280898067    12.000000000000
           N          2.922580952304    -1.544705494825    -2.096795982686    14.003074004780
           O         -3.513788016719     1.876668461190     1.910253116451    15.994914619560
           F          0.634999136374    -0.410173494697     2.021377649079    18.998403224000
           H         -1.335124667467     0.789320860423    -1.849642618023     1.007825032070
           H         -3.225999096998     1.796012536480    -0.655053707135     1.007825032070
           H          2.338092375836     0.429621848527     0.509474797777     1.007825032070
           H         -0.394793034359    -1.446031150330    -2.237563793227     1.007825032070
           H         -1.435136904050     0.694832918128     3.087111421753     1.007825032070
           H          4.212843720828    -0.636278682186    -0.767079259549     1.007825032070
           H          1.594276187760    -2.433227386063    -3.402701148035     1.007825032070
           H          3.704652922702    -1.959414140880    -2.591382904002     1.007825032070
           H         -3.416123225129     1.793541718618     2.866699961424     1.007825032070

  Running in c1 symmetry.

  Rotational constants: A =      0.06341  B =      0.01309  C =      0.01133 [cm^-1]
  Rotational constants: A =   1901.09169  B =    392.36295  C =    339.59015 [MHz]
  Nuclear repulsion =  831.904345271498869

  Charge       = 1
  Multiplicity = 1
  Electrons    = 98
  Nalpha       = 49
  Nbeta        = 49

  ==> Algorithm <==

  SCF Algorithm Type is DF.
  DIIS enabled.
  MOM disabled.
  Fractional occupation disabled.
  Guess Type is READ.
  Energy threshold   = 1.00e-10
  Density threshold  = 1.00e-10
  Integral threshold = 0.00e+00

  ==> Primary Basis <==

  Basis Set: AUG-CC-PVTZ
    Blend: AUG-CC-PVTZ
    Number of shells: 277
    Number of basis function: 851
    Number of Cartesian functions: 995
    Spherical Harmonics?: true
    Max angular momentum: 3

   => Loading Basis Set <=

    Name: (AUG-CC-PVTZ AUX)
    Role: JKFIT
    Keyword: DF_BASIS_SCF
    atoms 1-11  entry C          line   161 file /cbio/jclab/home/chayas/anaconda/envs/py35/share/psi4/basis/aug-cc-pvtz-jkfit.gbs 
    atoms 12    entry N          line   223 file /cbio/jclab/home/chayas/anaconda/envs/py35/share/psi4/basis/aug-cc-pvtz-jkfit.gbs 
    atoms 13    entry O          line   285 file /cbio/jclab/home/chayas/anaconda/envs/py35/share/psi4/basis/aug-cc-pvtz-jkfit.gbs 
    atoms 14    entry F          line   347 file /cbio/jclab/home/chayas/anaconda/envs/py35/share/psi4/basis/aug-cc-pvtz-jkfit.gbs 
    atoms 15-23 entry H          line    69 file /cbio/jclab/home/chayas/anaconda/envs/py35/share/psi4/basis/aug-cc-pvtz-jkfit.gbs 

  Reading orbitals from file 180, no projection.

  ==> Pre-Iterations <==

   -------------------------------------------------------
    Irrep   Nso     Nmo     Nalpha   Nbeta   Ndocc  Nsocc
   -------------------------------------------------------
     A        851     851       0       0       0       0
   -------------------------------------------------------
    Total     851     851      49      49      49       0
   -------------------------------------------------------

  ==> Integral Setup <==

  ==> DFJK: Density-Fitted J/K Matrices <==

    J tasked:                  Yes
    K tasked:                  Yes
    wK tasked:                  No
    OpenMP threads:              8
    Integrals threads:           8
    Memory (MB):              3576
    Algorithm:                Disk
    Integral Cache:           NONE
    Schwarz Cutoff:          1E-12
    Fitting Condition:       1E-12

   => Auxiliary Basis Set <=

  Basis Set: (AUG-CC-PVTZ AUX)
    Blend: AUG-CC-PVTZ-JKFIT
    Number of shells: 546
    Number of basis function: 1870
    Number of Cartesian functions: 2329
    Spherical Harmonics?: true
    Max angular momentum: 4

  Minimum eigenvalue in the overlap matrix is 6.3973409755E-07.
  Using Symmetric Orthogonalization.

  SCF Guess: Orbitals guess was supplied from a previous computation.

  ==> Iterations <==

                           Total Energy        Delta E     RMS |[F,P]|

   @DF-RHF iter   0:  -650.63449310659701   -6.50634e+02   4.11685e-04 
   @DF-RHF iter   1:  -650.56704899674173    6.74441e-02   8.30819e-05 
   @DF-RHF iter   2:  -650.56729492041370   -2.45924e-04   3.91332e-05 DIIS
   @DF-RHF iter   3:  -650.56743051295837   -1.35593e-04   6.75037e-06 DIIS
   @DF-RHF iter   4:  -650.56743723949978   -6.72654e-06   3.61030e-06 DIIS
   @DF-RHF iter   5:  -650.56743914276717   -1.90327e-06   1.40461e-06 DIIS
   @DF-RHF iter   6:  -650.56743962621420   -4.83447e-07   5.49490e-07 DIIS
   @DF-RHF iter   7:  -650.56743981203920   -1.85825e-07   2.52063e-07 DIIS
   @DF-RHF iter   8:  -650.56743985784647   -4.58073e-08   8.66482e-08 DIIS
   @DF-RHF iter   9:  -650.56743986103038   -3.18391e-09   4.81774e-08 DIIS
   @DF-RHF iter  10:  -650.56743986131380   -2.83421e-10   1.18361e-08 DIIS
   @DF-RHF iter  11:  -650.56743986134893   -3.51292e-11   4.04464e-09 DIIS
   @DF-RHF iter  12:  -650.56743986137576   -2.68301e-11   1.77793e-09 DIIS
   @DF-RHF iter  13:  -650.56743986135371    2.20552e-11   1.24503e-09 DIIS
   @DF-RHF iter  14:  -650.56743986135268    1.02318e-12   3.96101e-10 DIIS
   @DF-RHF iter  15:  -650.56743986138122   -2.85354e-11   1.82982e-10 DIIS
   @DF-RHF iter  16:  -650.56743986137315    8.07177e-12   6.38581e-11 DIIS

  ==> Post-Iterations <==

    Orbital Energies (a.u.)
    -----------------------

    Doubly Occupied:                                                      

       1A    -26.446872     2A    -20.711032     3A    -15.835945  
       4A    -11.485171     5A    -11.483026     6A    -11.470909  
       7A    -11.452826     8A    -11.442280     9A    -11.416398  
      10A    -11.414127    11A    -11.385368    12A    -11.378987  
      13A    -11.361518    14A    -11.352334    15A     -1.767452  
      16A     -1.531549    17A     -1.513051    18A     -1.324136  
      19A     -1.274742    20A     -1.241657    21A     -1.166976  
      22A     -1.158377    23A     -1.069054    24A     -1.062540  
      25A     -0.996105    26A     -0.970744    27A     -0.962299  
      28A     -0.896578    29A     -0.873124    30A     -0.860649  
      31A     -0.858779    32A     -0.833802    33A     -0.819210  
      34A     -0.809264    35A     -0.796040    36A     -0.776789  
      37A     -0.763579    38A     -0.751390    39A     -0.729389  
      40A     -0.715047    41A     -0.710773    42A     -0.690600  
      43A     -0.660171    44A     -0.648212    45A     -0.629533  
      46A     -0.575716    47A     -0.540127    48A     -0.475979  
      49A     -0.446271  

    Virtual:                                                              

      50A     -0.106876    51A     -0.084554    52A     -0.062221  
      53A     -0.061408    54A     -0.056455    55A     -0.049090  
      56A     -0.042870    57A     -0.039636    58A     -0.033532  
      59A     -0.028230    60A     -0.024456    61A     -0.019432  
      62A     -0.014334    63A     -0.010181    64A     -0.006612  
      65A     -0.000709    66A      0.004045    67A      0.006810  
      68A      0.010012    69A      0.013697    70A      0.017927  
      71A      0.021034    72A      0.023504    73A      0.026910  
      74A      0.030998    75A      0.033677    76A      0.036722  
      77A      0.039373    78A      0.041771    79A      0.041938  
      80A      0.049488    81A      0.054004    82A      0.056425  
      83A      0.064170    84A      0.066778    85A      0.068404  
      86A      0.070505    87A      0.077203    88A      0.081179  
      89A      0.081795    90A      0.085105    91A      0.093169  
      92A      0.096224    93A      0.105285    94A      0.110487  
      95A      0.114687    96A      0.116947    97A      0.119578  
      98A      0.121782    99A      0.127465   100A      0.133118  
     101A      0.135658   102A      0.137070   103A      0.138068  
     104A      0.142126   105A      0.152816   106A      0.156446  
     107A      0.159779   108A      0.161548   109A      0.164357  
     110A      0.168108   111A      0.169470   112A      0.173504  
     113A      0.178201   114A      0.183798   115A      0.185694  
     116A      0.192828   117A      0.194538   118A      0.200290  
     119A      0.203820   120A      0.205350   121A      0.207990  
     122A      0.213880   123A      0.216652   124A      0.220327  
     125A      0.220896   126A      0.224764   127A      0.231145  
     128A      0.236262   129A      0.240380   130A      0.242228  
     131A      0.243875   132A      0.247795   133A      0.249117  
     134A      0.257408   135A      0.265591   136A      0.267947  
     137A      0.273969   138A      0.275295   139A      0.279797  
     140A      0.282595   141A      0.288137   142A      0.294143  
     143A      0.297462   144A      0.304781   145A      0.306066  
     146A      0.312004   147A      0.313125   148A      0.318685  
     149A      0.321090   150A      0.323968   151A      0.328162  
     152A      0.330515   153A      0.336224   154A      0.338865  
     155A      0.341727   156A      0.344717   157A      0.345608  
     158A      0.348949   159A      0.350546   160A      0.359632  
     161A      0.362183   162A      0.365250   163A      0.369170  
     164A      0.372498   165A      0.374448   166A      0.378193  
     167A      0.379311   168A      0.387539   169A      0.390356  
     170A      0.392752   171A      0.396593   172A      0.402154  
     173A      0.402822   174A      0.407031   175A      0.411035  
     176A      0.412383   177A      0.418656   178A      0.422221  
     179A      0.425783   180A      0.428860   181A      0.432184  
     182A      0.434812   183A      0.438027   184A      0.443123  
     185A      0.448764   186A      0.455703   187A      0.460928  
     188A      0.464831   189A      0.468947   190A      0.474939  
[...]
	 B(10,2,16)       =         2.075939	     118.942552
	 B(10,5,11)       =         2.072530	     118.747234
	 B(10,5,19)       =         2.129214	     121.994964
	 B(10,13,23)      =         1.933981	     110.808935
	 B(11,5,19)       =         2.081436	     119.257471
	 B(12,6,20)       =         2.040590	     116.917184
	 B(12,7,21)       =         2.041679	     116.979599
	 D(1,2,10,5)      =         0.014397	       0.824912
	 D(1,2,10,13)     =        -3.130622	    -179.371426
	 D(1,8,9,3)       =         2.362557	     135.364569
	 D(1,8,9,4)       =        -0.713401	     -40.874882
	 D(1,8,11,5)      =         0.032672	       1.871976
	 D(1,8,11,14)     =         3.137128	     179.744197
	 D(2,1,8,9)       =        -3.088380	    -176.951155
	 D(2,1,8,11)      =        -0.012501	      -0.716228
	 D(2,10,5,11)     =         0.004616	       0.264479
	 D(2,10,5,19)     =        -3.133296	    -179.524636
	 D(2,10,13,23)    =        -3.139056	    -179.854665
	 D(3,6,12,7)      =         0.003389	       0.194179
	 D(3,6,12,22)     =        -3.139187	    -179.862177
	 D(3,9,4,7)       =         0.015220	       0.872028
	 D(3,9,4,18)      =         3.128820	     179.268165
	 D(3,9,8,11)      =        -0.710041	     -40.682371
	 D(4,7,12,6)      =        -0.004960	      -0.284158
	 D(4,7,12,22)     =         3.137617	     179.772205
	 D(4,9,3,6)       =        -0.016755	      -0.959977
	 D(4,9,3,17)      =         3.116081	     178.538288
	 D(4,9,8,11)      =         2.497185	     143.078178
	 D(5,10,2,16)     =        -3.118161	    -178.657492
	 D(5,10,13,23)    =        -0.001006	      -0.057628
	 D(5,11,8,9)      =         3.107910	     178.070111
	 D(6,3,9,8)       =        -3.094561	    -177.305306
	 D(6,12,7,21)     =        -3.135904	    -179.674066
	 D(7,4,9,8)       =         3.094104	     177.279113
	 D(7,12,6,20)     =        -3.124834	    -179.039791
	 D(8,1,2,10)      =        -0.010220	      -0.585588
	 D(8,1,2,16)      =         3.122130	     178.884845
	 D(8,9,3,17)      =         0.038274	       2.192959
	 D(8,9,4,18)      =        -0.075481	      -4.324750
	 D(8,11,5,10)     =        -0.029009	      -1.662069
	 D(8,11,5,19)     =         3.109006	     178.132929
	 D(9,3,6,12)      =         0.007862	       0.450482
	 D(9,3,6,20)      =         3.135138	     179.630153
	 D(9,4,7,12)      =        -0.004736	      -0.271346
	 D(9,4,7,21)      =         3.125440	     179.074541
	 D(9,8,1,15)      =         0.016697	       0.956651
	 D(9,8,11,14)     =        -0.070820	      -4.057668
	 D(10,2,1,15)     =        -3.115306	    -178.493859
	 D(10,5,11,14)    =        -3.133611	    -179.542711
	 D(11,5,10,13)    =        -3.133325	    -179.526316
	 D(11,8,1,15)     =         3.092576	     177.191578
	 D(12,6,3,17)     =        -3.125138	    -179.057195
	 D(12,7,4,18)     =        -3.118782	    -178.693056
	 D(13,10,2,16)    =         0.020004	       1.146170
	 D(13,10,5,19)    =         0.011948	       0.684569
	 D(14,11,5,19)    =         0.004403	       0.252286
	 D(15,1,2,16)     =         0.017044	       0.976574
	 D(17,3,6,20)     =         0.002138	       0.122476
	 D(18,4,7,21)     =         0.011394	       0.652831
	 D(20,6,12,22)    =         0.015775	       0.903853
	 D(21,7,12,22)    =         0.006672	       0.382297
	 R(3,14)          =         5.337583	       2.824527

	Current energy   :      -653.2502332951

	Energy change for the previous step:
		Projected    :         0.0000001461
		Actual       :         0.0000003004

	Performing BFGS update.
	Previous computed or guess Hessian on step 1.
	Steps to be used in Hessian update: 11 10
	Adding user-defined constraint: Fragment 1; Coordinate 64:
		Value =     2.362557; Fixed value    =     2.356190
		Force =    -0.004935; Force constant =     0.775000
	Removing off-diagonal coupling between coordinate 64 and others.
	Taking RFO optimization step.
	Going to follow RFO solution 1.
	Rejecting RFO root 1 because normalization gives large value.
	Using RFO vector 2.
	Norm of target step-size    0.00468
	Projected energy change by RFO approximation:         0.0000000208

	Back-transformation to cartesian coordinates...
	Successfully converged to displaced geometry.

	--- Internal Coordinate Step in ANG or DEG, aJ/ANG or AJ/DEG ---
	 ---------------------------------------------------------------------------
	   Coordinate                Previous        Force       Change         New 
	   ----------                --------       ------       ------       ------
	    1 R(1,2)          =      1.375988     0.000088     0.000036     1.376024
	    2 R(1,8)          =      1.400307    -0.000115    -0.000090     1.400217
	    3 R(1,15)         =      1.079951     0.000081     0.000043     1.079995
	    4 R(2,10)         =      1.394235     0.000136     0.000100     1.394335
	    5 R(2,16)         =      1.077895    -0.000007    -0.000013     1.077882
	    6 R(3,6)          =      1.372948     0.000091     0.000054     1.373002
	    7 R(3,9)          =      1.399719    -0.000052    -0.000014     1.399706
	    8 R(3,17)         =      1.076680     0.000125     0.000054     1.076735
	    9 R(4,7)          =      1.372923     0.000126     0.000070     1.372993
	   10 R(4,9)          =      1.399119     0.000053     0.000042     1.399161
	   11 R(4,18)         =      1.078082     0.000005    -0.000011     1.078071
	   12 R(5,10)         =      1.390758    -0.000023     0.000000     1.390758
	   13 R(5,11)         =      1.374382     0.000054     0.000035     1.374417
	   14 R(5,19)         =      1.079073     0.000045     0.000017     1.079090
	   15 R(6,12)         =      1.343168     0.000220     0.000102     1.343271
	   16 R(6,20)         =      1.077129    -0.000013    -0.000016     1.077113
	   17 R(7,12)         =      1.342578     0.000012    -0.000002     1.342576
	   18 R(7,21)         =      1.077187     0.000068     0.000042     1.077229
	   19 R(8,9)          =      1.445844    -0.000029    -0.000012     1.445831
	   20 R(8,11)         =      1.391093     0.000316     0.000210     1.391302
	   21 R(10,13)        =      1.342559     0.000014     0.000009     1.342568
	   22 R(11,14)        =      1.344446    -0.000020     0.000109     1.344555
	   23 R(12,22)        =      1.012080     0.000077     0.000040     1.012120
	   24 R(13,23)        =      0.963740     0.000096     0.000045     0.963785
	   25 B(1,2,10)       =    119.850913     0.000000     0.000424   119.851337
	   26 B(1,2,16)       =    121.204460     0.000001     0.013073   121.217533
	   27 B(1,8,9)        =    121.001255     0.000002     0.039559   121.040814
	   28 B(1,8,11)       =    116.976709    -0.000000    -0.001878   116.974830
	   29 B(2,1,8)        =    121.429024     0.000000    -0.000855   121.428169
	   30 B(2,1,15)       =    119.257827     0.000001     0.015457   119.273284
	   31 B(2,10,5)       =    120.037141     0.000001     0.007476   120.044617
	   32 B(2,10,13)      =    116.833286    -0.000001    -0.013531   116.819755
	   33 B(3,6,12)       =    119.449415    -0.000001    -0.007792   119.441624
	   34 B(3,6,20)       =    123.628625     0.000001     0.010466   123.639091
	   35 B(3,9,4)        =    117.460101     0.000000     0.003120   117.463221
	   36 B(3,9,8)        =    122.023504    -0.000001    -0.006014   122.017490
	   37 B(4,7,12)       =    119.239204    -0.000001    -0.007279   119.231925
	   38 B(4,7,21)       =    123.778158     0.000000     0.005862   123.784020
	   39 B(4,9,8)        =    120.414696     0.000000     0.002371   120.417066
	   40 B(5,10,13)      =    123.129263     0.000000     0.005704   123.134968
	   41 B(5,11,8)       =    122.931575     0.000000     0.006793   122.938368
	   42 B(5,11,14)      =    118.308699     0.000000     0.000409   118.309108
	   43 B(6,3,9)        =    120.424279     0.000000     0.001274   120.425553
	   44 B(6,3,17)       =    118.839248     0.000001     0.012540   118.851788
	   45 B(6,12,7)       =    122.758342     0.000001     0.009512   122.767854
	   46 B(6,12,22)      =    118.614368    -0.000000    -0.003039   118.611329
	   47 B(7,4,9)        =    120.661602     0.000000     0.000950   120.662552
	   48 B(7,4,18)       =    118.851376     0.000000     0.012852   118.864228
	   49 B(7,12,22)      =    118.627267    -0.000000    -0.006472   118.620795
	   50 B(8,1,15)       =    119.280559    -0.000001    -0.012986   119.267573
	   51 B(8,11,14)      =    118.726694    -0.000001    -0.006483   118.720211
	   52 B(9,3,17)       =    120.734613    -0.000001    -0.013727   120.720887
	   53 B(9,4,18)       =    120.468019    -0.000001    -0.013990   120.454029
	   54 B(9,8,11)       =    121.910687    -0.000002    -0.036636   121.874051
	   55 B(10,2,16)      =    118.942552    -0.000001    -0.013577   118.928975
	   56 B(10,5,11)      =    118.747234    -0.000001    -0.011806   118.735429
	   57 B(10,5,19)      =    121.994964     0.000000    -0.000754   121.994211
	   58 B(10,13,23)     =    110.808935     0.000001     0.006889   110.815824
	   59 B(11,5,19)      =    119.257471     0.000001     0.012526   119.269997
	   60 B(12,6,20)      =    116.917184     0.000000    -0.002379   116.914805
	   61 B(12,7,21)      =    116.979599     0.000000     0.001540   116.981140
	   62 D(1,2,10,5)     =      0.824912     0.000000     0.015752     0.840664
	   63 D(1,2,10,13)    =   -179.371426    -0.000000    -0.074457  -179.445883
	   64 D(1,8,9,3)      =    135.364569    -0.000002    -0.005316   135.359253
	   65 D(1,8,9,4)      =    -40.874882    -0.000001     0.004206   -40.870676
	   66 D(1,8,11,5)     =      1.871976     0.000000     0.007135     1.879111
	   67 D(1,8,11,14)    =    179.744197     0.000001     0.030377   179.774574
	   68 D(2,1,8,9)      =   -176.951155     0.000000    -0.053144  -177.004300
	   69 D(2,1,8,11)     =     -0.716228    -0.000001    -0.036942    -0.753169
	   70 D(2,10,5,11)    =      0.264479    -0.000000    -0.044501     0.219978
	   71 D(2,10,5,19)    =   -179.524636    -0.000000    -0.034247  -179.558883
	   72 D(2,10,13,23)   =   -179.854665     0.000000     0.079417  -179.775248
	   73 D(3,6,12,7)     =      0.194179     0.000000     0.010836     0.205015
	   74 D(3,6,12,22)    =   -179.862177    -0.000000     0.013434  -179.848743
	   75 D(3,9,4,7)      =      0.872028     0.000000     0.023627     0.895655
	   76 D(3,9,4,18)     =    179.268165     0.000000     0.015896   179.284061
	   77 D(3,9,8,11)     =    -40.682371    -0.000002    -0.023833   -40.706203
	   78 D(4,7,12,6)     =     -0.284158    -0.000000     0.004317    -0.279841
	   79 D(4,7,12,22)    =    179.772205     0.000000     0.001718   179.773922
	   80 D(4,9,3,6)      =     -0.959977    -0.000000    -0.008491    -0.968468
	   81 D(4,9,3,17)     =    178.538288    -0.000000     0.003471   178.541759
	   82 D(4,9,8,11)     =    143.078178    -0.000001    -0.014311   143.063867
	   83 D(5,10,2,16)    =   -178.657492     0.000000     0.025619  -178.631873
	   84 D(5,10,13,23)   =     -0.057628    -0.000000    -0.013834    -0.071462
	   85 D(5,11,8,9)     =    178.070111    -0.000000     0.026578   178.096689
	   86 D(6,3,9,8)      =   -177.305306     0.000000     0.000776  -177.304529
	   87 D(6,12,7,21)    =   -179.674066    -0.000000    -0.008172  -179.682239
	   88 D(7,4,9,8)      =    177.279113    -0.000000     0.014193   177.293306
	   89 D(7,12,6,20)    =   -179.039791     0.000000    -0.013343  -179.053133
	   90 D(8,1,2,10)     =     -0.585588     0.000000     0.026135    -0.559452
	   91 D(8,1,2,16)     =    178.884845     0.000000     0.015895   178.900740
	   92 D(8,9,3,17)     =      2.192959     0.000000     0.012738     2.205697
	   93 D(8,9,4,18)     =     -4.324750    -0.000000     0.006462    -4.318289
	   94 D(8,11,5,10)    =     -1.662069    -0.000000     0.033271    -1.628797
	   95 D(8,11,5,19)    =    178.132929    -0.000000     0.023275   178.156204
	   96 D(9,3,6,12)     =      0.450482     0.000000    -0.008353     0.442129
	   97 D(9,3,6,20)     =    179.630153     0.000000     0.017426   179.647579
	   98 D(9,4,7,12)     =     -0.271346    -0.000000    -0.021895    -0.293241
	   99 D(9,4,7,21)     =    179.074541    -0.000000    -0.008540   179.066002
	  100 D(9,8,1,15)     =      0.956651     0.000000    -0.000346     0.956305
	  101 D(9,8,11,14)    =     -4.057668    -0.000000     0.049820    -4.007847
	  102 D(10,2,1,15)    =   -178.493859     0.000000    -0.026084  -178.519943
	  103 D(10,5,11,14)   =   -179.542711    -0.000000     0.010259  -179.532453
	  104 D(11,5,10,13)   =   -179.526316     0.000000     0.051677  -179.474639
	  105 D(11,8,1,15)    =    177.191578    -0.000000     0.015857   177.207435
	  106 D(12,6,3,17)    =   -179.057195     0.000000    -0.019964  -179.077159
	  107 D(12,7,4,18)    =   -178.693056    -0.000000    -0.013864  -178.706920
	  108 D(13,10,2,16)   =      1.146170    -0.000000    -0.064591     1.081580
	  109 D(13,10,5,19)   =      0.684569     0.000000     0.061931     0.746501
	  110 D(14,11,5,19)   =      0.252286    -0.000000     0.000263     0.252549
	  111 D(15,1,2,16)    =      0.976574     0.000000    -0.036324     0.940250
	  112 D(17,3,6,20)    =      0.122476     0.000000     0.005815     0.128291
	  113 D(18,4,7,21)    =      0.652831    -0.000000    -0.000508     0.652324
	  114 D(20,6,12,22)   =      0.903853     0.000000    -0.010745     0.893108
	  115 D(21,7,12,22)   =      0.382297    -0.000000    -0.010772     0.371525
	  116 R(3,14)         =      2.824527     0.000021    -0.001325     2.823203
	 ---------------------------------------------------------------------------
	Successfully symmetrized geometry.
	 Forces used to impose fixed constraints are not included.
	  Forces zeroed: 64 

  ==> Convergence Check <==

  Measures of convergence in internal coordinates in au.
  Criteria marked as inactive (o), active & met (*), and active & unmet ( ).
  ---------------------------------------------------------------------------------------------
   Step     Total Energy     Delta E     MAX Force     RMS Force      MAX Disp      RMS Disp   
  ---------------------------------------------------------------------------------------------
    Convergence Criteria    1.00e-06 *    3.00e-04 *             o    1.20e-03 *             o
  ---------------------------------------------------------------------------------------------
     12    -653.25023330    3.00e-07 *    8.83e-05 *    1.78e-05 o    2.50e-03      4.35e-04 o  ~
  ---------------------------------------------------------------------------------------------


  **** Optimization is complete! (in 12 steps) ****

  ==> Optimization Summary <==

  Measures of convergence in internal coordinates in au.
  --------------------------------------------------------------------------------------------------------------- ~
   Step         Total Energy             Delta E       MAX Force       RMS Force        MAX Disp        RMS Disp  ~
  --------------------------------------------------------------------------------------------------------------- ~
      1    -653.245775683832   -653.245775683832      0.01712439      0.00454455      0.03073292      0.00927886  ~
      2    -653.249007773604     -0.003232089772      0.00522882      0.00170711      0.03751659      0.00928473  ~
      3    -653.249959142638     -0.000951369034      0.00203703      0.00050121      0.05468664      0.00928954  ~
      4    -653.250197211016     -0.000238068378      0.00085995      0.00018832      0.03948775      0.00667111  ~
      5    -653.250255670507     -0.000058459491      0.00048794      0.00010888      0.00474529      0.00111270  ~
      6    -653.250247616032      0.000008054475      0.00025350      0.00004383      0.00372681      0.00086126  ~
      7    -653.250244107437      0.000003508595      0.00021189      0.00004032      0.00350259      0.00085282  ~
      8    -653.250242167686      0.000001939751      0.00021607      0.00003590      0.00581788      0.00135318  ~
      9    -653.250239402381      0.000002765304      0.00024694      0.00005459      0.01816058      0.00416984  ~
     10    -653.250208924645      0.000030477737      0.00050233      0.00013768      0.01406665      0.00311139  ~
     11    -653.250233595504     -0.000024670860      0.00008292      0.00001585      0.00145141      0.00031257  ~
     12    -653.250233295117      0.000000300388      0.00013948      0.00002197      0.00250300      0.00043457  ~
  --------------------------------------------------------------------------------------------------------------- ~

	Writing optimization data to binary file.
	Final energy is   -653.2502332951166
	Final (previous) structure:
	Cartesian Geometry (in Angstrom)
	    C    -1.3749044203   0.6915123131  -0.7425855679
	    C    -2.4190963703   1.3017914436  -0.0864102253
	    C     2.1289586008  -0.2557766247  -0.3353581069
	    C     0.6075258152  -1.2318043197  -1.9023595784
	    C    -1.4025222469   0.7553070934   2.0319029443
	    C     3.1745048306  -0.7788679271  -1.0552159443
	    C     1.6752279790  -1.7392103497  -2.6005496988
	    C    -0.3168398104   0.1009283884  -0.0407519137
	    C     0.8077381918  -0.4802297487  -0.7393528837
	    C    -2.4418643046   1.3289226392   1.3073746819
	    C    -0.3624112719   0.1730787484   1.3477206207
	    N     2.9204572067  -1.5020381787  -2.1582055478
	    O    -3.4952395062   1.9285394643   1.8847165949
	    F     0.6330210043  -0.3870230297   2.0569003095
	    H    -1.3544155016   0.6974523967  -1.8223261571
	    H    -3.2227581824   1.7708222969  -0.6304652490
	    H     2.3443048565   0.3352113779   0.5384836414
	    H    -0.3902824222  -1.4439256803  -2.2511359616
	    H    -1.3916520199   0.7516794013   3.1109149754
	    H     4.2095956564  -0.6338958648  -0.7948761785
	    H     1.5787275779  -2.3355496781  -3.4924006471
	    H     3.7005765034  -1.8834292747  -2.6780716087
	    H    -3.4216698943   1.8995517565   2.8452067265
	Saving final (previous) structure.
			--------------------------
			 OPTKING Finished Execution 
			--------------------------

    Final optimized geometry and variables:
    Molecular point group: c1
    Full point group: C1

    Geometry (in Angstrom), charge = 1, multiplicity = 1:

    C           -1.374904420270     0.691512313074    -0.742585567938
    C           -2.419096370343     1.301791443557    -0.086410225283
    C            2.128958600839    -0.255776624689    -0.335358106896
    C            0.607525815236    -1.231804319719    -1.902359578352
    C           -1.402522246920     0.755307093351     2.031902944286
    C            3.174504830627    -0.778867927076    -1.055215944292
    C            1.675227978976    -1.739210349657    -2.600549698756
    C           -0.316839810427     0.100928388438    -0.040751913712
    C            0.807738191809    -0.480229748712    -0.739352883674
    C           -2.441864304573     1.328922639225     1.307374681923
    C           -0.362411271895     0.173078748364     1.347720620720
    N            2.920457206686    -1.502038178693    -2.158205547822
    O           -3.495239506170     1.928539464339     1.884716594922
    F            0.633021004285    -0.387023029681     2.056900309451
    H           -1.354415501630     0.697452396659    -1.822326157083
    H           -3.222758182393     1.770822296914    -0.630465248981
    H            2.344304856546     0.335211377895     0.538483641425
    H           -0.390282422207    -1.443925680318    -2.251135961647
    H           -1.391652019855     0.751679401280     3.110914975446
    H            4.209595656385    -0.633895864828    -0.794876178473
    H            1.578727577943    -2.335549678121    -3.492400647145
    H            3.700576503403    -1.883429274743    -2.678071608738
    H           -3.421669894264     1.899551756518     2.845206726484

	Cleaning optimization helper files.

*** Psi4 exiting successfully. Buy a developer a beer!
