
    -----------------------------------------------------------------------
          Psi4: An Open-Source Ab Initio Electronic Structure Package
                               Psi4 1.1 release

                         Git: Rev {HEAD} add49b9 


    R. M. Parrish, L. A. Burns, D. G. A. Smith, A. C. Simmonett,
    A. E. DePrince III, E. G. Hohenstein, U. Bozkaya, A. Yu. Sokolov,
    R. Di Remigio, R. M. Richard, J. F. Gonthier, A. M. James,
    H. R. McAlexander, A. Kumar, M. Saitow, X. Wang, B. P. Pritchard,
    P. Verma, H. F. Schaefer III, K. Patkowski, R. A. King, E. F. Valeev,
    F. A. Evangelista, J. M. Turney, T. D. Crawford, and C. D. Sherrill,
    J. Chem. Theory Comput. in press (2017).
    (doi: 10.1021/acs.jctc.7b00174)

    -----------------------------------------------------------------------


    Psi4 started on: Sunday, 12 November 2017 06:34AM

    Process ID:  15115
    PSIDATADIR: /cbio/jclab/home/chayas/anaconda/envs/py35/share/psi4
    Memory:     500.0 MiB
    Threads:    8
    
  ==> Input File <==

--------------------------------------------------------------------------

memory 5 Gb

molecule phepyrOH_cation {
  symmetry C1
  1 1 
  C      1.885   -1.036   -0.112
  C      2.878   -1.652   2.002
  C      0.807   -0.463   0.561
  C      1.800   -1.079   2.676
  C      4.083   -2.205   -1.481
  C      5.074   -2.819   0.628
  C      5.169   -2.783   -2.124
  C      6.134   -3.382   -0.069
  C      2.921   -1.631   0.608
  C      4.040   -2.225   -0.090
  C      0.764   -0.484   1.955
  N      6.150   -3.348   -1.408
  O      -0.288   0.076   2.612
  H      1.904   -1.012   -1.199
  H      3.678   -2.112   2.578
  H      0.003   -0.001   -0.006
  H      1.772   -1.098   3.762
  H      3.291   -1.748   -2.066
  H      5.065   -2.850   1.713
  H      5.287   -2.812   -3.198
  H      6.978   -3.863   0.404
  H      6.938   -3.768   -1.901
  H      -0.175   -0.018   3.571
  units Angstrom
}

dih_string = "1 9 10 5 0.001"
set optking fixed_dihedral = $dih_string

optimize('MP2/aug-cc-PVTZ')
--------------------------------------------------------------------------

  Memory set to   4.657 GiB by Python driver.
gradient() will perform analytic gradient computation.

*** tstart() called on gpu-1-4.local
*** at Sun Nov 12 06:34:46 2017

    SCF Algorithm Type (re)set to DF.

*** tstart() called on gpu-1-4.local
*** at Sun Nov 12 06:34:46 2017

   => Loading Basis Set <=

    Name: AUG-CC-PVTZ
    Role: ORBITAL
    Keyword: BASIS
    atoms 1-11  entry C          line   221 file /cbio/jclab/home/chayas/anaconda/envs/py35/share/psi4/basis/aug-cc-pvtz.gbs 
    atoms 12    entry N          line   267 file /cbio/jclab/home/chayas/anaconda/envs/py35/share/psi4/basis/aug-cc-pvtz.gbs 
    atoms 13    entry O          line   313 file /cbio/jclab/home/chayas/anaconda/envs/py35/share/psi4/basis/aug-cc-pvtz.gbs 
    atoms 14-23 entry H          line    34 file /cbio/jclab/home/chayas/anaconda/envs/py35/share/psi4/basis/aug-cc-pvtz.gbs 


         ---------------------------------------------------------
                                   SCF
            by Justin Turney, Rob Parrish, and Andy Simmonett
                              RHF Reference
                        8 Threads,   4768 MiB Core
         ---------------------------------------------------------

  ==> Geometry <==

    Molecular point group: c1
    Full point group: C1

    Geometry (in Angstrom), charge = 1, multiplicity = 1:

       Center              X                  Y                   Z               Mass       
    ------------   -----------------  -----------------  -----------------  -----------------
           C         -1.271654413696     0.720242246914    -0.579217398798    12.000000000000
           C         -0.278654413696     0.104242246914     1.534782601202    12.000000000000
           C         -2.349654413696     1.293242246914     0.093782601202    12.000000000000
           C         -1.356654413696     0.677242246914     2.208782601202    12.000000000000
           C          0.926345586304    -0.448757753086    -1.948217398798    12.000000000000
           C          1.917345586304    -1.062757753086     0.160782601202    12.000000000000
           C          2.012345586304    -1.026757753086    -2.591217398798    12.000000000000
           C          2.977345586304    -1.625757753086    -0.536217398798    12.000000000000
           C         -0.235654413696     0.125242246914     0.140782601202    12.000000000000
           C          0.883345586304    -0.468757753086    -0.557217398798    12.000000000000
           C         -2.392654413696     1.272242246914     1.487782601202    12.000000000000
           N          2.993345586304    -1.591757753086    -1.875217398798    14.003074004780
           O         -3.444654413696     1.832242246914     2.144782601202    15.994914619560
           H         -1.252654413696     0.744242246914    -1.666217398798     1.007825032070
           H          0.521345586304    -0.355757753086     2.110782601202     1.007825032070
           H         -3.153654413696     1.755242246914    -0.473217398798     1.007825032070
           H         -1.384654413696     0.658242246914     3.294782601202     1.007825032070
           H          0.134345586304     0.008242246914    -2.533217398798     1.007825032070
           H          1.908345586304    -1.093757753086     1.245782601202     1.007825032070
           H          2.130345586304    -1.055757753086    -3.665217398798     1.007825032070
           H          3.821345586304    -2.106757753086    -0.063217398798     1.007825032070
           H          3.781345586304    -2.011757753086    -2.368217398798     1.007825032070
           H         -3.331654413696     1.738242246914     3.103782601202     1.007825032070

  Running in c1 symmetry.

  Rotational constants: A =      0.09610  B =      0.01348  C =      0.01182 [cm^-1]
  Rotational constants: A =   2880.92543  B =    404.17076  C =    354.44498 [MHz]
  Nuclear repulsion =  713.807567908698047

  Charge       = 1
  Multiplicity = 1
  Electrons    = 90
  Nalpha       = 45
  Nbeta        = 45

  ==> Algorithm <==

  SCF Algorithm Type is DF.
  DIIS enabled.
  MOM disabled.
  Fractional occupation disabled.
  Guess Type is SAD.
  Energy threshold   = 1.00e-10
  Density threshold  = 1.00e-10
  Integral threshold = 0.00e+00

  ==> Primary Basis <==

  Basis Set: AUG-CC-PVTZ
    Blend: AUG-CC-PVTZ
    Number of shells: 272
    Number of basis function: 828
    Number of Cartesian functions: 965
    Spherical Harmonics?: true
    Max angular momentum: 3

   => Loading Basis Set <=

    Name: (AUG-CC-PVTZ AUX)
    Role: JKFIT
    Keyword: DF_BASIS_SCF
    atoms 1-11  entry C          line   161 file /cbio/jclab/home/chayas/anaconda/envs/py35/share/psi4/basis/aug-cc-pvtz-jkfit.gbs 
    atoms 12    entry N          line   223 file /cbio/jclab/home/chayas/anaconda/envs/py35/share/psi4/basis/aug-cc-pvtz-jkfit.gbs 
    atoms 13    entry O          line   285 file /cbio/jclab/home/chayas/anaconda/envs/py35/share/psi4/basis/aug-cc-pvtz-jkfit.gbs 
    atoms 14-23 entry H          line    69 file /cbio/jclab/home/chayas/anaconda/envs/py35/share/psi4/basis/aug-cc-pvtz-jkfit.gbs 

  ==> Pre-Iterations <==

   -------------------------------------------------------
    Irrep   Nso     Nmo     Nalpha   Nbeta   Ndocc  Nsocc
   -------------------------------------------------------
     A        828     828       0       0       0       0
   -------------------------------------------------------
    Total     828     828      45      45      45       0
   -------------------------------------------------------

  ==> Integral Setup <==

  ==> DFJK: Density-Fitted J/K Matrices <==

    J tasked:                  Yes
    K tasked:                  Yes
    wK tasked:                  No
    OpenMP threads:              8
    Integrals threads:           8
    Memory (MB):              3576
    Algorithm:                Disk
    Integral Cache:           NONE
    Schwarz Cutoff:          1E-12
    Fitting Condition:       1E-12

   => Auxiliary Basis Set <=

  Basis Set: (AUG-CC-PVTZ AUX)
    Blend: AUG-CC-PVTZ-JKFIT
    Number of shells: 530
    Number of basis function: 1812
    Number of Cartesian functions: 2253
    Spherical Harmonics?: true
    Max angular momentum: 4

  Minimum eigenvalue in the overlap matrix is 2.6657441906E-07.
  Using Symmetric Orthogonalization.

  SCF Guess: Superposition of Atomic Densities via on-the-fly atomic UHF.

  ==> Iterations <==

                           Total Energy        Delta E     RMS |[F,P]|

   @DF-RHF iter   0:  -553.82221201864115   -5.53822e+02   1.47787e-02 
   @DF-RHF iter   1:  -551.23579296269509    2.58642e+00   1.66645e-03 
   @DF-RHF iter   2:  -551.58074760478939   -3.44955e-01   7.76013e-04 DIIS
   @DF-RHF iter   3:  -551.65012080599365   -6.93732e-02   3.37411e-04 DIIS
   @DF-RHF iter   4:  -551.66831357156002   -1.81928e-02   1.26542e-04 DIIS
   @DF-RHF iter   5:  -551.67106155202748   -2.74798e-03   4.40923e-05 DIIS
   @DF-RHF iter   6:  -551.67156468355483   -5.03132e-04   1.43534e-05 DIIS
   @DF-RHF iter   7:  -551.67163066890646   -6.59854e-05   5.58501e-06 DIIS
   @DF-RHF iter   8:  -551.67164148340669   -1.08145e-05   2.34109e-06 DIIS
   @DF-RHF iter   9:  -551.67164533157950   -3.84817e-06   1.21923e-06 DIIS
   @DF-RHF iter  10:  -551.67164652313613   -1.19156e-06   5.43437e-07 DIIS
   @DF-RHF iter  11:  -551.67164668249143   -1.59355e-07   1.53863e-07 DIIS
   @DF-RHF iter  12:  -551.67164669261251   -1.01211e-08   5.64988e-08 DIIS
   @DF-RHF iter  13:  -551.67164669385079   -1.23828e-09   2.64258e-08 DIIS
   @DF-RHF iter  14:  -551.67164669409522   -2.44427e-10   1.00065e-08 DIIS
   @DF-RHF iter  15:  -551.67164669415979   -6.45741e-11   4.63494e-09 DIIS
   @DF-RHF iter  16:  -551.67164669415968    1.13687e-13   2.28645e-09 DIIS
   @DF-RHF iter  17:  -551.67164669414944    1.02318e-11   7.84930e-10 DIIS
   @DF-RHF iter  18:  -551.67164669415297   -3.52429e-12   3.46261e-10 DIIS
   @DF-RHF iter  19:  -551.67164669415604   -3.06954e-12   1.42326e-10 DIIS
   @DF-RHF iter  20:  -551.67164669414979    6.25278e-12   5.64083e-11 DIIS

  ==> Post-Iterations <==

    Orbital Energies (a.u.)
    -----------------------

    Doubly Occupied:                                                      

       1A    -20.707388     2A    -15.828151     3A    -11.481221  
       4A    -11.481185     5A    -11.445143     6A    -11.439296  
       7A    -11.411436     8A    -11.411183     9A    -11.383951  
      10A    -11.382097    11A    -11.372991    12A    -11.360635  
      13A    -11.356948    14A     -1.522011    15A     -1.507480  
      16A     -1.321464    17A     -1.264911    18A     -1.234450  
      19A     -1.156077    20A     -1.155238    21A     -1.067803  
      22A     -1.053657    23A     -0.978705    24A     -0.959655  
      25A     -0.952467    26A     -0.872610    27A     -0.860559  
      28A     -0.854833    29A     -0.823518    30A     -0.798224  
      31A     -0.775773    32A     -0.773580    33A     -0.761030  
      34A     -0.738697    35A     -0.716829    36A     -0.708185  
      37A     -0.702925    38A     -0.683535    39A     -0.656547  
      40A     -0.648065    41A     -0.621725    42A     -0.569288  
      43A     -0.535998    44A     -0.472742    45A     -0.437908  

    Virtual:                                                              

      46A     -0.106485    47A     -0.083223    48A     -0.065576  
      49A     -0.062706    50A     -0.059556    51A     -0.044882  
      52A     -0.039999    53A     -0.039805    54A     -0.031175  
      55A     -0.025497    56A     -0.019596    57A     -0.016104  
      58A     -0.013779    59A     -0.008838    60A     -0.001224  
      61A      0.000857    62A      0.003727    63A      0.005917  
      64A      0.008562    65A      0.017187    66A      0.023157  
      67A      0.023520    68A      0.025295    69A      0.026126  
      70A      0.026813    71A      0.028808    72A      0.033678  
      73A      0.038929    74A      0.045666    75A      0.048320  
      76A      0.051125    77A      0.053613    78A      0.063236  
      79A      0.063391    80A      0.064862    81A      0.068430  
      82A      0.076318    83A      0.078241    84A      0.084534  
      85A      0.086263    86A      0.086560    87A      0.092176  
      88A      0.097616    89A      0.101523    90A      0.102720  
      91A      0.110173    92A      0.112407    93A      0.122812  
      94A      0.130858    95A      0.135462    96A      0.138189  
      97A      0.143532    98A      0.146009    99A      0.149121  
     100A      0.150386   101A      0.150493   102A      0.157964  
     103A      0.159551   104A      0.163708   105A      0.167307  
     106A      0.173363   107A      0.174183   108A      0.176927  
     109A      0.179667   110A      0.184113   111A      0.184184  
     112A      0.189148   113A      0.196216   114A      0.202958  
     115A      0.206727   116A      0.211827   117A      0.212510  
     118A      0.218190   119A      0.221163   120A      0.225020  
     121A      0.229900   122A      0.234654   123A      0.240532  
     124A      0.240772   125A      0.242709   126A      0.244706  
     127A      0.247664   128A      0.250681   129A      0.254553  
     130A      0.257414   131A      0.265249   132A      0.272566  
     133A      0.279509   134A      0.281465   135A      0.292483  
     136A      0.292776   137A      0.301591   138A      0.302493  
     139A      0.305266   140A      0.307167   141A      0.311460  
     142A      0.314459   143A      0.317218   144A      0.317756  
     145A      0.320851   146A      0.328401   147A      0.330696  
     148A      0.336116   149A      0.336388   150A      0.337993  
     151A      0.344567   152A      0.346503   153A      0.352274  
     154A      0.354869   155A      0.357993   156A      0.358189  
     157A      0.360868   158A      0.364298   159A      0.367339  
     160A      0.368257   161A      0.377622   162A      0.378031  
     163A      0.394226   164A      0.396757   165A      0.397256  
     166A      0.397533   167A      0.405384   168A      0.409157  
     169A      0.410560   170A      0.411715   171A      0.414883  
     172A      0.420386   173A      0.424355   174A      0.424947  
     175A      0.429224   176A      0.436184   177A      0.437870  
     178A      0.442836   179A      0.444641   180A      0.450942  
     181A      0.451575   182A      0.463467   183A      0.468675  
     184A      0.474323   185A      0.479275   186A      0.486690  
     187A      0.487420   188A      0.495859   189A      0.508082  
     190A      0.514648   191A      0.518697   192A      0.531404  
     193A      0.536107   194A      0.536531   195A      0.543962  
     196A      0.548299   197A      0.555623   198A      0.556367  
     199A      0.560265   200A      0.565018   201A      0.569054  
     202A      0.574442   203A      0.585445   204A      0.595236  
     205A      0.597982   206A      0.603127   207A      0.605645  
     208A      0.607040   209A      0.609459   210A      0.615471  
     211A      0.617293   212A      0.635154   213A      0.637543  
     214A      0.644071   215A      0.647489   216A      0.648766  
     217A      0.662518   218A      0.672267   219A      0.673958  
     220A      0.678678   221A      0.684246   222A      0.691955  
     223A      0.702215   224A      0.704929   225A      0.708239  
     226A      0.714110   227A      0.717210   228A      0.717272  
     229A      0.724991   230A      0.732445   231A      0.736758  
     232A      0.737774   233A      0.742538   234A      0.746871  
     235A      0.755611   236A      0.756396   237A      0.757479  
     238A      0.763404   239A      0.768981   240A      0.776629  
     241A      0.776980   242A      0.788942   243A      0.794124  
     244A      0.798018   245A      0.802276   246A      0.805096  
     247A      0.806954   248A      0.808763   249A      0.810754  
     250A      0.811639   251A      0.816706   252A      0.827971  
     253A      0.831735   254A      0.832664   255A      0.833784  
     256A      0.836079   257A      0.840068   258A      0.841791  
     259A      0.845894   260A      0.862128   261A      0.864391  
     262A      0.868781   263A      0.870144   264A      0.873882  
     265A      0.878321   266A      0.880978   267A      0.891850  
     268A      0.901394   269A      0.905347   270A      0.909914  
     271A      0.912045   272A      0.914715   273A      0.921789  
     274A      0.925173   275A      0.932459   276A      0.936208  
     277A      0.937421   278A      0.942742   279A      0.947817  
     280A      0.949840   281A      0.953031   282A      0.963579  
     283A      0.965657   284A      0.969124   285A      0.972709  
     286A      0.974512   287A      0.982237   288A      0.985073  
     289A      0.993752   290A      0.994831   291A      1.000068  
     292A      1.015393   293A      1.016955   294A      1.021389  
     295A      1.021761   296A      1.032575   297A      1.037250  
     298A      1.038542   299A      1.045457   300A      1.049676  
     301A      1.054468   302A      1.055964   303A      1.065981  
     304A      1.067277   305A      1.067960   306A      1.076925  
     307A      1.082871   308A      1.087754   309A      1.088365  
     310A      1.096960   311A      1.106028   312A      1.110307  
     313A      1.113594   314A      1.114735   315A      1.118274  
     316A      1.126643   317A      1.130441   318A      1.131419  
     319A      1.135122   320A      1.151170   321A      1.156370  
     322A      1.159212   323A      1.170217   324A      1.176577  
     325A      1.181794   326A      1.192742   327A      1.194075  
     328A      1.196163   329A      1.201996   330A      1.207897  
     331A      1.212801   332A      1.217493   333A      1.225349  
     334A      1.228392   335A      1.239240   336A      1.247315  
     337A      1.252269   338A      1.255278   339A      1.257452  
     340A      1.263367   341A      1.270652   342A      1.291635  
     343A      1.300330   344A      1.312631   345A      1.312920  
     346A      1.314357   347A      1.324601   348A      1.338560  
     349A      1.346957   350A      1.349702   351A      1.353909  
     352A      1.362709   353A      1.367379   354A      1.370040  
     355A      1.377496   356A      1.386827   357A      1.391643  
     358A      1.403847   359A      1.404067   360A      1.407696  
     361A      1.412785   362A      1.423174   363A      1.442470  
     364A      1.448046   365A      1.457515   366A      1.468944  
     367A      1.470643   368A      1.480980   369A      1.482330  
     370A      1.485836   371A      1.495129   372A      1.508393  
     373A      1.513364   374A      1.514769   375A      1.529222  
     376A      1.535455   377A      1.536393   378A      1.543442  
     379A      1.553733   380A      1.555253   381A      1.559911  
     382A      1.574668   383A      1.577957   384A      1.586699  
     385A      1.592679   386A      1.606889   387A      1.618145  
     388A      1.622428   389A      1.627450   390A      1.636740  
     391A      1.646225   392A      1.650207   393A      1.662196  
     394A      1.667717   395A      1.671412   396A      1.679073  
     397A      1.702520   398A      1.710108   399A      1.710869  
     400A      1.731529   401A      1.732256   402A      1.733550  
     403A      1.738276   404A      1.738738   405A      1.746427  
     406A      1.766415   407A      1.768801   408A      1.772724  
     409A      1.783370   410A      1.790691   411A      1.806743  
     412A      1.818296   413A      1.824103   414A      1.833476  
     415A      1.834842   416A      1.853307   417A      1.859878  
     418A      1.861713   419A      1.866930   420A      1.869776  
     421A      1.870154   422A      1.875750   423A      1.878749  
     424A      1.899654   425A      1.915733   426A      1.916513  
     427A      1.919736   428A      1.926217   429A      1.933754  
     430A      1.934565   431A      1.938510   432A      1.943652  
     433A      1.958881   434A      1.963837   435A      1.992184  
     436A      2.002652   437A      2.010696   438A      2.017184  
     439A      2.024780   440A      2.033718   441A      2.040535  
     442A      2.044366   443A      2.060203   444A      2.060358  
     445A      2.066480   446A      2.068342   447A      2.073102  
     448A      2.084476   449A      2.092474   450A      2.093099  
     451A      2.114619   452A      2.116398   453A      2.123012  
     454A      2.129991   455A      2.135092   456A      2.144311  
     457A      2.151531   458A      2.183096   459A      2.196125  
     460A      2.201978   461A      2.204904   462A      2.212491  
     463A      2.215696   464A      2.221412   465A      2.245542  
     466A      2.253566   467A      2.255034   468A      2.263279  
     469A      2.271853   470A      2.295310   471A      2.303676  
     472A      2.305068   473A      2.320802   474A      2.327724  
     475A      2.336299   476A      2.340512   477A      2.360229  
     478A      2.361587   479A      2.367254   480A      2.390244  
     481A      2.394791   482A      2.415616   483A      2.430528  
     484A      2.436313   485A      2.439492   486A      2.447411  
     487A      2.459564   488A      2.474524   489A      2.481200  
     490A      2.490589   491A      2.514459   492A      2.529172  
     493A      2.529474   494A      2.537026   495A      2.563564  
     496A      2.577735   497A      2.604372   498A      2.610355  
     499A      2.624778   500A      2.645032   501A      2.648577  
     502A      2.666053   503A      2.676461   504A      2.680008  
     505A      2.693840   506A      2.718266   507A      2.757308  
     508A      2.777315   509A      2.778890   510A      2.784310  
     511A      2.795616   512A      2.816423   513A      2.839362  
     514A      2.876395   515A      2.892731   516A      2.893253  
     517A      2.925953   518A      2.960126   519A      2.962175  
     520A      3.004807   521A      3.015726   522A      3.025587  
     523A      3.039252   524A      3.040384   525A      3.047333  
     526A      3.051985   527A      3.074558   528A      3.099473  
     529A      3.117753   530A      3.118476   531A      3.147107  
     532A      3.147899   533A      3.173052   534A      3.174811  
     535A      3.185485   536A      3.194570   537A      3.196591  
     538A      3.206009   539A      3.234393   540A      3.235266  
     541A      3.245957   542A      3.267698   543A      3.275420  
     544A      3.283205   545A      3.287015   546A      3.294493  
     547A      3.303781   548A      3.309910   549A      3.336942  
     550A      3.342323   551A      3.349859   552A      3.359522  
     553A      3.361293   554A      3.372629   555A      3.378821  
     556A      3.379967   557A      3.401022   558A      3.404234  
     559A      3.417046   560A      3.423385   561A      3.431338  
     562A      3.435537   563A      3.455510   564A      3.462237  
     565A      3.475393   566A      3.475740   567A      3.505800  
     568A      3.506837   569A      3.514664   570A      3.535671  
     571A      3.538917   572A      3.544755   573A      3.552396  
     574A      3.554178   575A      3.557804   576A      3.570438  
     577A      3.589392   578A      3.596231   579A      3.604636  
     580A      3.614958   581A      3.623618   582A      3.629665  
     583A      3.648092   584A      3.653002   585A      3.664516  
     586A      3.665540   587A      3.679446   588A      3.692389  
     589A      3.714278   590A      3.729690   591A      3.735726  
     592A      3.748776   593A      3.751167   594A      3.758332  
     595A      3.779390   596A      3.781373   597A      3.783071  
     598A      3.784270   599A      3.788529   600A      3.817699  
     601A      3.821398   602A      3.822445   603A      3.824867  
     604A      3.833918   605A      3.844710   606A      3.851281  
     607A      3.855721   608A      3.857591   609A      3.868967  
     610A      3.875506   611A      3.889141   612A      3.897436  
     613A      3.910258   614A      3.916846   615A      3.920417  
     616A      3.936902   617A      3.959505   618A      3.970297  
     619A      3.974273   620A      3.994577   621A      4.002023  
     622A      4.007547   623A      4.018567   624A      4.022733  
     625A      4.031124   626A      4.039214   627A      4.048499  
     628A      4.057694   629A      4.067619   630A      4.068165  
     631A      4.073491   632A      4.077137   633A      4.085800  
     634A      4.117390   635A      4.117803   636A      4.126954  
     637A      4.145151   638A      4.148415   639A      4.155827  
     640A      4.166747   641A      4.169361   642A      4.170555  
     643A      4.174874   644A      4.182741   645A      4.186767  
     646A      4.191229   647A      4.194221   648A      4.207663  
     649A      4.220506   650A      4.226352   651A      4.246684  
     652A      4.256631   653A      4.263431   654A      4.264083  
     655A      4.278941   656A      4.286177   657A      4.286377  
     658A      4.302951   659A      4.306362   660A      4.315093  
     661A      4.328939   662A      4.343849   663A      4.348095  
     664A      4.356061   665A      4.366790   666A      4.374900  
     667A      4.383336   668A      4.396864   669A      4.411784  
     670A      4.420203   671A      4.434369   672A      4.449525  
     673A      4.460146   674A      4.462110   675A      4.464233  
     676A      4.482687   677A      4.491147   678A      4.497941  
     679A      4.513958   680A      4.523990   681A      4.528483  
     682A      4.541264   683A      4.559706   684A      4.568268  
     685A      4.583667   686A      4.592296   687A      4.604385  
     688A      4.619178   689A      4.625065   690A      4.626777  
     691A      4.643894   692A      4.651052   693A      4.664739  
     694A      4.673526   695A      4.700625   696A      4.716600  
     697A      4.735097   698A      4.756991   699A      4.759689  
     700A      4.782783   701A      4.783046   702A      4.807754  
     703A      4.809977   704A      4.812644   705A      4.817402  
     706A      4.831267   707A      4.852039   708A      4.862504  
     709A      4.871904   710A      4.877173   711A      4.896399  
     712A      4.904207   713A      4.941023   714A      4.954166  
     715A      4.956248   716A      4.961127   717A      4.980067  
     718A      4.991484   719A      4.992371   720A      4.995031  
     721A      5.006219   722A      5.007027   723A      5.010204  
     724A      5.031082   725A      5.054325   726A      5.064994  
     727A      5.085429   728A      5.088419   729A      5.115025  
     730A      5.126524   731A      5.142071   732A      5.182108  
     733A      5.184243   734A      5.198956   735A      5.217643  
     736A      5.224811   737A      5.233731   738A      5.262934  
     739A      5.271962   740A      5.296289   741A      5.310279  
     742A      5.333178   743A      5.333656   744A      5.350592  
     745A      5.374587   746A      5.383431   747A      5.405090  
     748A      5.410088   749A      5.421304   750A      5.455705  
     751A      5.496936   752A      5.524826   753A      5.538094  
     754A      5.563205   755A      5.598503   756A      5.604554  
     757A      5.615784   758A      5.625636   759A      5.648800  
     760A      5.670843   761A      5.695375   762A      5.696982  
     763A      5.700445   764A      5.736312   765A      5.783523  
     766A      5.788882   767A      5.820598   768A      5.842341  
     769A      5.876538   770A      5.893545   771A      5.961461  
     772A      5.968220   773A      5.993769   774A      6.013030  
     775A      6.070986   776A      6.114913   777A      6.134459  
     778A      6.205516   779A      6.217664   780A      6.251851  
     781A      6.301438   782A      6.331956   783A      6.341762  
     784A      6.363424   785A      6.403493   786A      6.463183  
     787A      6.485667   788A      6.532148   789A      6.535376  
     790A      6.598657   791A      6.638929   792A      6.662190  
     793A      6.727645   794A      6.757264   795A      6.787418  
     796A      6.813144   797A      6.823790   798A      6.848705  
     799A      6.851532   800A      6.892072   801A      6.963365  
     802A      6.994053   803A      7.060655   804A      7.132455  
     805A      7.155219   806A      7.312970   807A      7.337974  
     808A      7.486875   809A      7.570055   810A      7.570985  
     811A      7.622903   812A      7.658506   813A      7.917273  
     814A      8.298891   815A      8.546756   816A     15.975744  
     817A     16.273956   818A     16.727437   819A     17.261341  
     820A     17.602424   821A     18.788367   822A     19.602232  
     823A     19.996474   824A     20.092931   825A     20.689219  
     826A     20.852926   827A     21.242544   828A     21.302165  

    Final Occupation by Irrep:
              A 
    DOCC [    45 ]

  Energy converged.

  @DF-RHF Final Energy:  -551.67164669414979

   => Energetics <=

    Nuclear Repulsion Energy =            713.8075679086980472
    One-Electron Energy =               -2150.4622073458112936
    Two-Electron Energy =                 884.9829927429634608
    DFT Exchange-Correlation Energy =       0.0000000000000000
    Empirical Dispersion Energy =           0.0000000000000000
    PCM Polarization Energy =               0.0000000000000000
    EFP Energy =                            0.0000000000000000
    Total Energy =                       -551.6716466941497856



Properties will be evaluated at   0.000000,   0.000000,   0.000000 Bohr

Properties computed using the SCF density matrix

  Nuclear Dipole Moment: (a.u.)
     X:     2.9507      Y:    -1.5986      Z:    -0.9350

  Electronic Dipole Moment: (a.u.)
     X:     0.1536      Y:    -0.0718      Z:    -0.4014

  Dipole Moment: (a.u.)
     X:     3.1043      Y:    -1.6704      Z:    -1.3364     Total:     3.7700

  Dipole Moment: (Debye)
     X:     7.8904      Y:    -4.2457      Z:    -3.3968     Total:     9.5824


*** tstop() called on gpu-1-4.local at Sun Nov 12 06:43:04 2017
Module time:
	user time   =     994.81 seconds =      16.58 minutes
	system time =     160.46 seconds =       2.67 minutes
	total time  =        498 seconds =       8.30 minutes
Total time:
	user time   =     994.82 seconds =      16.58 minutes
	system time =     160.46 seconds =       2.67 minutes
	total time  =        498 seconds =       8.30 minutes

  //>>>>>>>>>>>>>>>>>>>>>>>>>>>>>>>>>>>//
  //               DFMP2               //
  //<<<<<<<<<<<<<<<<<<<<<<<<<<<<<<<<<<<//

   => Loading Basis Set <=

    Name: (AUG-CC-PVTZ AUX)
    Role: RIFIT
    Keyword: DF_BASIS_MP2
    atoms 1-11  entry C          line   147 file /cbio/jclab/home/chayas/anaconda/envs/py35/share/psi4/basis/aug-cc-pvtz-ri.gbs 
    atoms 12    entry N          line   205 file /cbio/jclab/home/chayas/anaconda/envs/py35/share/psi4/basis/aug-cc-pvtz-ri.gbs 
    atoms 13    entry O          line   263 file /cbio/jclab/home/chayas/anaconda/envs/py35/share/psi4/basis/aug-cc-pvtz-ri.gbs 
    atoms 14-23 entry H          line    29 file /cbio/jclab/home/chayas/anaconda/envs/py35/share/psi4/basis/aug-cc-pvtz-ri.gbs 

	 --------------------------------------------------------
	                          DF-MP2                         
	      2nd-Order Density-Fitted Moller-Plesset Theory     
	              RMP2 Wavefunction,   8 Threads             
	                                                         
	        Rob Parrish, Justin Turney, Andy Simmonett,      
	           Ed Hohenstein, and C. David Sherrill          
	 --------------------------------------------------------

   => Auxiliary Basis Set <=

  Basis Set: (AUG-CC-PVTZ AUX)
    Blend: AUG-CC-PVTZ-RI
    Number of shells: 504
    Number of basis function: 1838
    Number of Cartesian functions: 2318
    Spherical Harmonics?: true
    Max angular momentum: 4

	 --------------------------------------------------------
	                 NBF =   828, NAUX =  1838
	 --------------------------------------------------------
	   CLASS    FOCC     OCC    AOCC    AVIR     VIR    FVIR
	   PAIRS       0      45      45     783     783       0
	 --------------------------------------------------------


         ------------------------------------------------------------
                                     CPHF                           
                                  Rob Parrish                       
         ------------------------------------------------------------

  ==> Geometry <==

    Molecular point group: c1
    Full point group: C1

    Geometry (in Angstrom), charge = 1, multiplicity = 1:

       Center              X                  Y                   Z               Mass       
    ------------   -----------------  -----------------  -----------------  -----------------
           C         -1.271654413696     0.720242246914    -0.579217398798    12.000000000000
           C         -0.278654413696     0.104242246914     1.534782601202    12.000000000000
           C         -2.349654413696     1.293242246914     0.093782601202    12.000000000000
           C         -1.356654413696     0.677242246914     2.208782601202    12.000000000000
           C          0.926345586304    -0.448757753086    -1.948217398798    12.000000000000
           C          1.917345586304    -1.062757753086     0.160782601202    12.000000000000
           C          2.012345586304    -1.026757753086    -2.591217398798    12.000000000000
           C          2.977345586304    -1.625757753086    -0.536217398798    12.000000000000
           C         -0.235654413696     0.125242246914     0.140782601202    12.000000000000
           C          0.883345586304    -0.468757753086    -0.557217398798    12.000000000000
           C         -2.392654413696     1.272242246914     1.487782601202    12.000000000000
           N          2.993345586304    -1.591757753086    -1.875217398798    14.003074004780
           O         -3.444654413696     1.832242246914     2.144782601202    15.994914619560
           H         -1.252654413696     0.744242246914    -1.666217398798     1.007825032070
           H          0.521345586304    -0.355757753086     2.110782601202     1.007825032070
           H         -3.153654413696     1.755242246914    -0.473217398798     1.007825032070
           H         -1.384654413696     0.658242246914     3.294782601202     1.007825032070
           H          0.134345586304     0.008242246914    -2.533217398798     1.007825032070
           H          1.908345586304    -1.093757753086     1.245782601202     1.007825032070
           H          2.130345586304    -1.055757753086    -3.665217398798     1.007825032070
           H          3.821345586304    -2.106757753086    -0.063217398798     1.007825032070
           H          3.781345586304    -2.011757753086    -2.368217398798     1.007825032070
           H         -3.331654413696     1.738242246914     3.103782601202     1.007825032070

  Nuclear repulsion =  713.807567908698047
  Reference energy  = -551.671646694149786

  ==> Basis Set <==

  Basis Set: AUG-CC-PVTZ
    Blend: AUG-CC-PVTZ
    Number of shells: 272
    Number of basis function: 828
    Number of Cartesian functions: 965
    Spherical Harmonics?: true
    Max angular momentum: 3

  ==> CGRSolver (by Rob Parrish) <==

   Number of roots    =         1
   Preconditioning    =    JACOBI
   Convergence cutoff =     1E-06
   Maximum iterations =       100

  ==> CPHFRHamiltonian (by Rob Parrish) <== 

  ==> DFJK: Density-Fitted J/K Matrices <==

    J tasked:                  Yes
    K tasked:                  Yes
    wK tasked:                  No
    OpenMP threads:              8
    Integrals threads:           8
    Memory (MB):              3576
    Algorithm:                Disk
    Integral Cache:           NONE
    Schwarz Cutoff:          1E-12
    Fitting Condition:       1E-12

   => Auxiliary Basis Set <=

  Basis Set: (AUG-CC-PVTZ AUX)
    Blend: AUG-CC-PVTZ-JKFIT
    Number of shells: 530
    Number of basis function: 1812
    Number of Cartesian functions: 2253
    Spherical Harmonics?: true
    Max angular momentum: 4

  ==> CPHF Iterations <==

  => Iterations <=

             Iter  Converged  Remaining    Residual
  CGR           1          0          1   1.162E-01
  CGR           2          0          1   5.353E-02
  CGR           3          0          1   3.118E-02
  CGR           4          0          1   1.017E-02
  CGR           5          0          1   4.964E-03
  CGR           6          0          1   2.462E-03
  CGR           7          0          1   7.429E-04
  CGR           8          0          1   2.975E-04
  CGR           9          0          1   1.403E-04
  CGR          10          0          1   4.607E-05
  CGR          11          0          1   1.441E-05
  CGR          12          0          1   5.432E-06
  CGR          13          0          1   1.683E-06
  CGR          14          1          0   5.229E-07

    CGRSolver converged.

  ==> DFCorrGrad: Density-Fitted Correlated Gradients <==

    OpenMP threads:              8
    Integrals threads:           8
    Memory (MB):              3576
    Schwarz Cutoff:          0E+00
    Fitting Condition:       1E-12

   => Auxiliary Basis Set <=

  Basis Set: (AUG-CC-PVTZ AUX)
    Blend: AUG-CC-PVTZ-JKFIT
    Number of shells: 530
    Number of basis function: 1812
    Number of Cartesian functions: 2253
    Spherical Harmonics?: true
    Max angular momentum: 4

	-----------------------------------------------------------
	 ==================> DF-MP2 Energies <==================== 
	-----------------------------------------------------------
	 Reference Energy          =    -551.6716466941497856 [Eh]
	 Singles Energy            =      -0.0000000000000001 [Eh]
	 Same-Spin Energy          =      -0.5971050769346047 [Eh]
	 Opposite-Spin Energy      =      -1.8275687554224676 [Eh]
	 Correlation Energy        =      -2.4246738323570725 [Eh]
	 Total Energy              =    -554.0963205265068154 [Eh]
	-----------------------------------------------------------
	 ================> DF-SCS-MP2 Energies <================== 
	-----------------------------------------------------------
	 SCS Same-Spin Scale       =       0.3333333333333333 [-]
	 SCS Opposite-Spin Scale   =       1.2000000000000000 [-]
	 SCS Same-Spin Energy      =      -0.1990350256448682 [Eh]
	 SCS Opposite-Spin Energy  =      -2.1930825065069608 [Eh]
	 SCS Correlation Energy    =      -2.3921175321518291 [Eh]
	 SCS Total Energy          =    -554.0637642263016005 [Eh]
	-----------------------------------------------------------


  -Total Gradient:
     Atom            X                  Y                   Z
    ------   -----------------  -----------------  -----------------
       1        0.012974410013    -0.006758929827    -0.008105826074
       2        0.010999099896    -0.005671835746    -0.010392097108
       3       -0.001147778200     0.000302445959     0.009283041029
       4       -0.013513603005     0.007217540879     0.006126198606
       5       -0.019214223782     0.009823992894     0.013466683629
       6       -0.019985639868     0.010708668962     0.011057354116
       7        0.013834465653    -0.007750723758     0.004363273059
       8        0.004475374132    -0.001955673372    -0.015542733966
       9       -0.004514759862     0.002185032957     0.002290451599
      10        0.015588891448    -0.007895890133    -0.009811655749
      11        0.004576609902    -0.002043169901    -0.015813708763
      12       -0.003730286100     0.001939296596     0.002462507081
      13       -0.006424599233     0.003263960944     0.009987206231
      14        0.004046563001    -0.001986376883    -0.009300319017
      15        0.008659911832    -0.004856281273     0.001617159395
      16       -0.002887061230     0.001759222462    -0.004984848695
      17        0.000341684021    -0.000298400571     0.004162636671
      18       -0.008829134946     0.005000774798    -0.001489407505
      19       -0.003835547515     0.001741720580     0.009370318165
      20        0.001481736492    -0.000670014046    -0.001938609091
      21        0.002028452484    -0.001067278150    -0.000478299773
      22        0.005489797103    -0.002973745804    -0.003507457320
      23       -0.000414362230    -0.000014337566     0.007178133487


*** tstop() called on gpu-1-4.local at Sun Nov 12 07:18:30 2017
Module time:
	user time   =    5257.30 seconds =      87.62 minutes
	system time =     345.68 seconds =       5.76 minutes
	total time  =       2624 seconds =      43.73 minutes
Total time:
	user time   =    5257.31 seconds =      87.62 minutes
	system time =     345.68 seconds =       5.76 minutes
	total time  =       2624 seconds =      43.73 minutes

			-----------------------------------------
			 OPTKING 2.0: for geometry optimizations 
			  - R.A. King,  Bethel University        
			-----------------------------------------

	Internal coordinates to be generated automatically.
	Detected frag 1 with atoms:  1 2 3 4 5 6 7 8 9 10 11 12 13 14 15 16 17 18 19 20
	 21 22 23
	---Fragment 1 Bond Connectivity---
	 1 : 3 9 14
	 2 : 4 9 15
	 3 : 1 11 16
	 4 : 2 11 17
	 5 : 7 10 18
	 6 : 8 10 19
	 7 : 5 12 20
	 8 : 6 12 21
	 9 : 1 2 10
	 10 : 5 6 9
	 11 : 3 4 13
	 12 : 7 8 22
	 13 : 11 23
	 14 : 1
	 15 : 2
	 16 : 3
	 17 : 4
	 18 : 5
	 19 : 6
	 20 : 7
	 21 : 8
	 22 : 12
	 23 : 13

	Assuming in current code that numbering for constraints corresponds to unified fragment.
	Fixed dihedral atom list: 
	     1     9    10     5
	---Fragment 1 Geometry and Gradient---
	 C          -2.4030785776        1.3610605960       -1.0945622551
	 C          -0.5265805276        0.1969892981        2.9003187898
	 C          -4.4402033488        2.4438736701        0.1772234323
	 C          -2.5637052989        1.2798023723        4.1739942034
	 C           1.7505394625       -0.8480292533       -3.6815973311
	 C           3.6232580602       -2.0083210989        0.3038350832
	 C           3.8027820428       -1.9402909582       -4.8966912345
	 C           5.6263677611       -3.0722369117       -1.0133040314
	 C          -0.4453223039        0.2366735469        0.2660405605
	 C           1.6692812388       -0.8858237760       -1.0529882802
	 C          -4.5214615725        2.4041894214        2.8115016615
	 N           5.6566033792       -3.0079862232       -3.5436473234
	 O          -6.5094534643        3.4624360558        4.0530517308
	 H          -2.3671737810        1.4064140232       -3.1486945616
	 H           0.9852003787       -0.6722847230        3.9888010423
	 H          -5.9595431597        3.3169271435       -0.8942512850
	 H          -2.6166176306        1.2438975758        6.2262367837
	 H           0.2538763653        0.0155755894       -4.7870871188
	 H           3.6062505250       -2.0669026091        2.3541879374
	 H           4.0257697265       -1.9950930160       -6.9262571012
	 H           7.2212966172       -3.9811951817       -0.1194635706
	 H           7.1457075719       -3.8016711990       -4.4752823069
	 H          -6.2959144113        3.2848017993        5.8652990923
	             0.0129744100       -0.0067589298       -0.0081058261
	             0.0109990999       -0.0056718357       -0.0103920971
	            -0.0011477782        0.0003024460        0.0092830410
	            -0.0135136030        0.0072175409        0.0061261986
	            -0.0192142238        0.0098239929        0.0134666836
	            -0.0199856399        0.0107086690        0.0110573541
	             0.0138344657       -0.0077507238        0.0043632731
	             0.0044753741       -0.0019556734       -0.0155427340
	            -0.0045147599        0.0021850330        0.0022904516
	             0.0155888914       -0.0078958901       -0.0098116557
	             0.0045766099       -0.0020431699       -0.0158137088
	            -0.0037302861        0.0019392966        0.0024625071
	            -0.0064245992        0.0032639609        0.0099872062
	             0.0040465630       -0.0019863769       -0.0093003190
	             0.0086599118       -0.0048562813        0.0016171594
	            -0.0028870612        0.0017592225       -0.0049848487
	             0.0003416840       -0.0002984006        0.0041626367
	            -0.0088291349        0.0050007748       -0.0014894075
	            -0.0038355475        0.0017417206        0.0093703182
	             0.0014817365       -0.0006700140       -0.0019386091
	             0.0020284525       -0.0010672781       -0.0004782998
	             0.0054897971       -0.0029737458       -0.0035074573
	            -0.0004143622       -0.0000143376        0.0071781335

	Previous optimization step data not found.  Starting new optimization.

	---Fragment 1 Intrafragment Coordinates---
	 - Coordinate -           - BOHR/RAD -       - ANG/DEG -
	 R(1,3)           =         2.634350	       1.394038
	 R(1,9)           =         2.635962	       1.394891
	 R(1,14)          =         2.054947	       1.087431
	 R(2,4)           =         2.635263	       1.394521
	 R(2,9)           =         2.635830	       1.394821
	 R(2,15)          =         2.055702	       1.087831
	 R(3,11)          =         2.635830	       1.394821
	 R(3,16)          =         2.053941	       1.086899
	 R(4,11)          =         2.636938	       1.395407
	 R(4,17)          =         2.053239	       1.086527
	 R(5,7)           =         2.623202	       1.388139
	 R(5,10)          =         2.630136	       1.391808
	 R(5,18)          =         2.051322	       1.085513
	 R(6,8)           =         2.622827	       1.387940
	 R(6,10)          =         2.630398	       1.391947
	 R(6,19)          =         2.051260	       1.085480
	 R(7,12)          =         2.531275	       1.339493
	 R(7,20)          =         2.042514	       1.080852
	 R(8,12)          =         2.531339	       1.339527
	 R(8,21)          =         2.041802	       1.080475
	 R(9,10)          =         2.733384	       1.446444
	 R(11,13)         =         2.571662	       1.360865
	 R(12,22)         =         1.927514	       1.019997
	 R(13,23)         =         1.833410	       0.970199
	 B(1,3,11)        =         2.094553	     120.009056
	 B(1,3,16)        =         2.088505	     119.662516
	 B(1,9,2)         =         2.093692	     119.959722
	 B(1,9,10)        =         2.095161	     120.043881
	 B(2,4,11)        =         2.093699	     119.960108
	 B(2,4,17)        =         2.089577	     119.723926
	 B(2,9,10)        =         2.094332	     119.996376
	 B(3,1,9)         =         2.094940	     120.031219
	 B(3,1,14)        =         2.079469	     119.144799
	 B(3,11,4)        =         2.094306	     119.994870
	 B(3,11,13)       =         2.094549	     120.008801
	 B(4,2,9)         =         2.095181	     120.045019
	 B(4,2,15)        =         2.078675	     119.099297
	 B(4,11,13)       =         2.094331	     119.996326
	 B(5,7,12)        =         2.095542	     120.065734
	 B(5,7,20)        =         2.161393	     123.838675
	 B(5,10,6)        =         2.092902	     119.914474
	 B(5,10,9)        =         2.094721	     120.018685
	 B(6,8,12)        =         2.095333	     120.053720
	 B(6,8,21)        =         2.161939	     123.870001
	 B(6,10,9)        =         2.095560	     120.066769
	 B(7,5,10)        =         2.072738	     118.759125
	 B(7,5,18)        =         2.090325	     119.766775
	 B(7,12,8)        =         2.136818	     122.430665
	 B(7,12,22)       =         2.072725	     118.758390
	 B(8,6,10)        =         2.073036	     118.776221
	 B(8,6,19)        =         2.090599	     119.782483
	 B(8,12,22)       =         2.073642	     118.810942
	 B(9,1,14)        =         2.108776	     120.823969
	 B(9,2,15)        =         2.109330	     120.855683
	 B(10,5,18)       =         2.120121	     121.473976
	 B(10,6,19)       =         2.119550	     121.441265
	 B(11,3,16)       =         2.100127	     120.328425
	 B(11,4,17)       =         2.099910	     120.315955
	 B(11,13,23)      =         1.925489	     110.322421
	 B(12,7,20)       =         2.026250	     116.095583
	 B(12,8,21)       =         2.025913	     116.076279
	 D(1,3,11,4)      =        -0.000325	      -0.018609
	 D(1,3,11,13)     =         3.140978	     179.964785
	 D(1,9,2,4)       =         0.000325	       0.018608
	 D(1,9,2,15)      =        -3.141497	    -179.994534
	 D(1,9,10,5)      =        -0.001573	      -0.090128
	 D(1,9,10,6)      =        -3.141470	    -179.992974
	 D(2,4,11,3)      =         0.000301	       0.017261
	 D(2,4,11,13)     =        -3.141002	    -179.966135
	 D(2,9,1,3)       =        -0.000348	      -0.019945
	 D(2,9,1,14)      =        -3.141221	    -179.978731
	 D(2,9,10,5)      =         3.140936	     179.962375
	 D(2,9,10,6)      =         0.001039	       0.059529
	 D(3,1,9,10)      =        -3.141025	    -179.967461
	 D(3,11,4,17)     =         3.141223	     179.978848
	 D(3,11,13,23)    =         3.140828	     179.956172
	 D(4,2,9,10)      =         3.141002	     179.966149
	 D(4,11,3,16)     =         3.141593	     180.000000
	 D(4,11,13,23)    =        -0.001055	      -0.060434
	 D(5,7,12,8)      =        -0.001122	      -0.064287
	 D(5,7,12,22)     =         3.140146	     179.917095
	 D(5,10,6,8)      =         0.000612	       0.035040
	 D(5,10,6,19)     =        -3.139856	    -179.900509
	 D(6,8,12,7)      =         0.000325	       0.018593
	 D(6,8,12,22)     =        -3.140943	    -179.962780
	 D(6,10,5,7)      =        -0.001379	      -0.078986
	 D(6,10,5,18)     =        -3.140724	    -179.950251
	 D(7,5,10,9)      =        -3.141278	    -179.981981
	 D(7,12,8,21)     =        -3.141124	    -179.973127
	 D(8,6,10,9)      =         3.140510	     179.937988
	 D(8,12,7,20)     =         3.139932	     179.904823
	 D(9,1,3,11)      =         0.000348	       0.019955
	 D(9,1,3,16)      =        -3.141571	    -179.998735
	 D(9,2,4,11)      =        -0.000301	      -0.017270
	 D(9,2,4,17)      =        -3.141228	    -179.979086
	 D(9,10,5,18)     =         0.002561	       0.146754
	 D(9,10,6,19)     =         0.000043	       0.002439
	 D(10,5,7,12)     =         0.001628	       0.093301
	 D(10,5,7,20)     =        -3.139381	    -179.873300
	 D(10,6,8,12)     =        -0.000065	      -0.003716
	 D(10,6,8,21)     =         3.141371	     179.987327
	 D(10,9,1,14)     =         0.001287	       0.073752
	 D(10,9,2,15)     =        -0.000820	      -0.046992
	 D(11,3,1,14)     =         3.141234	     179.979432
	 D(11,4,2,15)     =         3.141517	     179.995641
	 D(12,7,5,18)     =         3.141014	     179.966817
	 D(12,8,6,19)     =         3.140422	     179.932928
	 D(13,11,3,16)    =        -0.000286	      -0.016400
	 D(13,11,4,17)    =        -0.000079	      -0.004548
	 D(14,1,3,16)     =        -0.000685	      -0.039257
	 D(15,2,4,17)     =         0.000590	       0.033826
	 D(18,5,7,20)     =         0.000000	       0.000000
	 D(19,6,8,21)     =        -0.001327	      -0.076029
	 D(20,7,12,22)    =        -0.001986	      -0.113794
	 D(21,8,12,22)    =         0.000794	       0.045500

	Current energy   :      -554.0963205265

	Generating empirical Hessian (Schlegel '84) for each fragment.
	Adding user-defined constraint: Fragment 1; Coordinate 66:
		Value =    -0.001573; Fixed value    =     0.000017
		Force =     0.000795; Force constant =     0.500000
	Removing off-diagonal coupling between coordinate 66 and others.
	Taking RFO optimization step.
	Going to follow RFO solution 1.
	Using RFO vector 1.

	Determining step-restricting scale parameter for RS-RFO.
	Maximum step size allowed    0.10000

	 Iter      |step|        alpha        rfo_root  
	------------------------------------------------
	    0     0.20247       1.00000           1
	    1     0.14807      12.52428           1
	    2     0.11689      30.27526           1
	    3     0.10327      44.63231           1
	    4     0.10016      48.87533           1
	    5     0.10000      49.11247           1
	------------------------------------------------
	Norm of target step-size    0.10000
	Projected energy change by RFO approximation:        -0.0061425713

	Back-transformation to cartesian coordinates...
	Successfully converged to displaced geometry.

	--- Internal Coordinate Step in ANG or DEG, aJ/ANG or AJ/DEG ---
	 ---------------------------------------------------------------------------
	   Coordinate                Previous        Force       Change         New 
	   ----------                --------       ------       ------       ------
	    1 R(1,3)          =      1.394038    -0.110309    -0.009224     1.384814
	    2 R(1,9)          =      1.394891     0.054216     0.004694     1.399585
	    3 R(1,14)         =      1.087431    -0.076814    -0.007527     1.079904
	    4 R(2,4)          =      1.394521    -0.111602    -0.009281     1.385240
	    5 R(2,9)          =      1.394821     0.044761     0.003934     1.398755
	    6 R(2,15)         =      1.087831    -0.076442    -0.007496     1.080335
	    7 R(3,11)         =      1.394821    -0.067580    -0.005840     1.388982
	    8 R(3,16)         =      1.086899    -0.045180    -0.004423     1.082476
	    9 R(4,11)         =      1.395407    -0.019377    -0.001787     1.393621
	   10 R(4,17)         =      1.086527    -0.034249    -0.003350     1.083177
	   11 R(5,7)          =      1.388139    -0.127353    -0.010481     1.377658
	   12 R(5,10)         =      1.391808     0.099179     0.008379     1.400187
	   13 R(5,18)         =      1.085513    -0.077030    -0.007522     1.077991
	   14 R(6,8)          =      1.387940    -0.126280    -0.010386     1.377555
	   15 R(6,10)         =      1.391947     0.098007     0.008285     1.400232
	   16 R(6,19)         =      1.085480    -0.077018    -0.007520     1.077960
	   17 R(7,12)         =      1.339493     0.012825     0.000798     1.340291
	   18 R(7,20)         =      1.080852    -0.017351    -0.001680     1.079172
	   19 R(8,12)         =      1.339527     0.013358     0.000838     1.340365
	   20 R(8,21)         =      1.080475    -0.015244    -0.001475     1.079000
	   21 R(9,10)         =      1.446444     0.135884     0.012621     1.459065
	   22 R(11,13)        =      1.360865    -0.122849    -0.009482     1.351382
	   23 R(12,22)        =      1.019997    -0.058997    -0.005068     1.014929
	   24 R(13,23)        =      0.970199    -0.058070    -0.004452     0.965747
	   25 B(1,3,11)       =    120.009056     0.000004    -0.043936   119.965120
	   26 B(1,3,16)       =    119.662516     0.000193     0.337622   120.000138
	   27 B(1,9,2)        =    119.959722    -0.000996    -1.311608   118.648113
	   28 B(1,9,10)       =    120.043881     0.000489     0.643264   120.687145
	   29 B(2,4,11)       =    119.960108     0.000124     0.143176   120.103285
	   30 B(2,4,17)       =    119.723926    -0.000023    -0.007998   119.715928
	   31 B(2,9,10)       =    119.996376     0.000507     0.668355   120.664731
	   32 B(3,1,9)        =    120.031219     0.000552     0.799749   120.830968
	   33 B(3,1,14)       =    119.144799    -0.000624    -0.965189   118.179610
	   34 B(3,11,4)       =    119.994870    -0.000042    -0.124280   119.870590
	   35 B(3,11,13)      =    120.008801    -0.000994    -1.316348   118.692453
	   36 B(4,2,9)        =    120.045019     0.000358     0.536902   120.581921
	   37 B(4,2,15)       =    119.099297    -0.000483    -0.761298   118.337999
	   38 B(4,11,13)      =    119.996326     0.001036     1.440629   121.436955
	   39 B(5,7,12)       =    120.065734    -0.000128    -0.225512   119.840222
	   40 B(5,7,20)       =    123.838675    -0.000045    -0.063734   123.774941
	   41 B(5,10,6)       =    119.914474    -0.001350    -1.805348   118.109126
	   42 B(5,10,9)       =    120.018685     0.000664     0.888357   120.907042
	   43 B(6,8,12)       =    120.053720    -0.000126    -0.221286   119.832434
	   44 B(6,8,21)       =    123.870001    -0.000049    -0.070051   123.799950
	   45 B(6,10,9)       =    120.066769     0.000686     0.917021   120.983790
	   46 B(7,5,10)       =    118.759125     0.000765     1.104136   119.863261
	   47 B(7,5,18)       =    119.766775    -0.000711    -1.085307   118.681468
	   48 B(7,12,8)       =    122.430665     0.000079     0.051235   122.481900
	   49 B(7,12,22)      =    118.758390    -0.000036    -0.019487   118.738903
	   50 B(8,6,10)       =    118.776221     0.000760     1.096791   119.873012
	   51 B(8,6,19)       =    119.782483    -0.000712    -1.087562   118.694920
	   52 B(8,12,22)      =    118.810942    -0.000043    -0.031748   118.779194
	   53 B(9,1,14)       =    120.823969     0.000073     0.165443   120.989412
	   54 B(9,2,15)       =    120.855683     0.000125     0.224397   121.080079
	   55 B(10,5,18)      =    121.473976    -0.000054    -0.018805   121.455170
	   56 B(10,6,19)      =    121.441265    -0.000047    -0.009224   121.432041
	   57 B(11,3,16)      =    120.328425    -0.000197    -0.293686   120.034739
	   58 B(11,4,17)      =    120.315955    -0.000101    -0.135177   120.180778
	   59 B(11,13,23)     =    110.322421    -0.000198    -0.321292   110.001128
	   60 B(12,7,20)      =    116.095583     0.000173     0.289246   116.384829
	   61 B(12,8,21)      =    116.076279     0.000174     0.291336   116.367615
	   62 D(1,3,11,4)     =     -0.018609    -0.000000     0.000387    -0.018222
	   63 D(1,3,11,13)    =    179.964785     0.000000     0.003216   179.968001
	   64 D(1,9,2,4)      =      0.018608    -0.000001    -0.007097     0.011511
	   65 D(1,9,2,15)     =   -179.994534    -0.000001    -0.005466  -180.000000
	   66 D(1,9,10,5)     =     -0.090128     0.000006     0.039239    -0.050888
	   67 D(1,9,10,6)     =   -179.992974     0.000003     0.018047  -179.974926
	   68 D(2,4,11,3)     =      0.017261     0.000000     0.000104     0.017365
	   69 D(2,4,11,13)    =   -179.966135    -0.000000    -0.002336  -179.968471
	   70 D(2,9,1,3)      =     -0.019945     0.000001     0.007514    -0.012431
	   71 D(2,9,1,14)     =   -179.978731     0.000001     0.003092  -179.975639
	   72 D(2,9,10,5)     =    179.962375     0.000004     0.023571   179.985946
	   73 D(2,9,10,6)     =      0.059529     0.000001     0.002379     0.061908
	   74 D(3,1,9,10)     =   -179.967461    -0.000001    -0.008866  -179.976327
	   75 D(3,11,4,17)    =    179.978848     0.000000     0.003270   179.982118
	   76 D(3,11,13,23)   =    179.956172    -0.000000    -0.000285   179.955887
	   77 D(4,2,9,10)     =    179.966149     0.000001     0.009267   179.975416
	   78 D(4,11,3,16)    =    180.000000    -0.000000    -0.001601   179.998399
	   79 D(4,11,13,23)   =     -0.060434     0.000000     0.002320    -0.058114
	   80 D(5,7,12,8)     =     -0.064287     0.000000     0.005227    -0.059060
	   81 D(5,7,12,22)    =    179.917095     0.000001     0.005510   179.922605
	   82 D(5,10,6,8)     =      0.035040    -0.000001    -0.010117     0.024923
	   83 D(5,10,6,19)    =   -179.900509    -0.000002    -0.013988  -179.914497
	   84 D(6,8,12,7)     =      0.018593    -0.000000    -0.000709     0.017884
	   85 D(6,8,12,22)    =   -179.962780    -0.000000    -0.000995  -179.963775
	   86 D(6,10,5,7)     =     -0.078986     0.000002     0.013769    -0.065217
	   87 D(6,10,5,18)    =   -179.950251     0.000001     0.002489  -179.947762
	   88 D(7,5,10,9)     =   -179.981981    -0.000001    -0.009404  -179.991385
	   89 D(7,12,8,21)    =   -179.973127     0.000000    -0.000238  -179.973365
	   90 D(8,6,10,9)     =    179.937988     0.000002     0.013044   179.951032
	   91 D(8,12,7,20)    =    179.904823     0.000000     0.005778   179.910601
	   92 D(9,1,3,11)     =      0.019955    -0.000001    -0.004031     0.015924
	   93 D(9,1,3,16)     =   -179.998735    -0.000000    -0.001265  -180.000000
	   94 D(9,2,4,11)     =     -0.017270     0.000000     0.003150    -0.014120
	   95 D(9,2,4,17)     =   -179.979086     0.000000     0.000048  -179.979037
	   96 D(9,10,5,18)    =      0.146754    -0.000003    -0.020684     0.126070
	   97 D(9,10,6,19)    =      0.002439     0.000001     0.009173     0.011612
	   98 D(10,5,7,12)    =      0.093301    -0.000001    -0.010849     0.082452
	   99 D(10,5,7,20)    =   -179.873300    -0.000001    -0.011551  -179.884851
	  100 D(10,6,8,12)    =     -0.003716     0.000000     0.002783    -0.000934
	  101 D(10,6,8,21)    =    179.987327     0.000000     0.002305   179.989631
	  102 D(10,9,1,14)    =      0.073752    -0.000002    -0.013288     0.060464
	  103 D(10,9,2,15)    =     -0.046992     0.000002     0.011374    -0.035619
	  104 D(11,3,1,14)    =    179.979432    -0.000000     0.000711   179.980143
	  105 D(11,4,2,15)    =    179.995641     0.000000     0.000976   179.996617
	  106 D(12,7,5,18)    =    179.966817     0.000000     0.001427   179.968245
	  107 D(12,8,6,19)    =    179.932928     0.000001     0.007211   179.940139
	  108 D(13,11,3,16)   =     -0.016400     0.000000     0.001022    -0.015377
	  109 D(13,11,4,17)   =     -0.004548     0.000000     0.000830    -0.003718
	  110 D(14,1,3,16)    =     -0.039257     0.000000     0.002784    -0.036473
	  111 D(15,2,4,17)    =      0.033826    -0.000000    -0.002126     0.031700
	  112 D(18,5,7,20)    =      0.000000     0.000000     0.000941     0.000941
	  113 D(19,6,8,21)    =     -0.076029     0.000001     0.006733    -0.069296
	  114 D(20,7,12,22)   =     -0.113794     0.000001     0.006061    -0.107733
	  115 D(21,8,12,22)   =      0.045500    -0.000000    -0.000524     0.044976
	 ---------------------------------------------------------------------------
	Successfully symmetrized geometry.
	 Forces used to impose fixed constraints are not included.
	  Forces zeroed: 66 

  ==> Convergence Check <==

  Measures of convergence in internal coordinates in au.
  Criteria marked as inactive (o), active & met (*), and active & unmet ( ).
  --------------------------------------------------------------------------------------------- ~
   Step     Total Energy     Delta E     MAX Force     RMS Force      MAX Disp      RMS Disp    ~
  --------------------------------------------------------------------------------------------- ~
    Convergence Criteria    1.00e-06 *    3.00e-04 *             o    1.20e-03 *             o  ~
  --------------------------------------------------------------------------------------------- ~
      1    -554.09632053   -5.54e+02      1.77e-02      5.87e-03 o    3.15e-02      9.32e-03 o  ~
  ---------------------------------------------------------------------------------------------

	Writing optimization data to binary file.
	Structure for next step:
	Cartesian Geometry (in Angstrom)
	    C    -1.2876575424   0.7281072211  -0.5561867097
	    C    -0.2941993515   0.1126077423   1.5477833153
	    C    -2.3588549933   1.2975454708   0.1116340725
	    C    -1.3651114618   0.6818616686   2.2171011546
	    C     0.9477329617  -0.4600666596  -1.9555055401
	    C     1.9396044545  -1.0748028263   0.1437640595
	    C     2.0223039950  -1.0317167613  -2.6008379851
	    C     2.9923015987  -1.6338896013  -0.5468207857
	    C    -0.2394691945   0.1271136990   0.1501743638
	    C     0.8879075900  -0.4714686812  -0.5566439108
	    C    -2.4013793119   1.2766876105   1.4998078718
	    N     3.0050730097  -1.5978124047  -1.8866391284
	    O    -3.4584640373   1.8404571908   2.1250837082
	    H    -1.2842205802   0.7602892280  -1.6356058460
	    H     0.4933690612  -0.3406604366   2.1320848421
	    H    -3.1623374342   1.7588371251  -0.4481697241
	    H    -1.3930002289   0.6630161855   3.2997546204
	    H     0.1681438924  -0.0095390718  -2.5482362946
	    H     1.9475921154  -1.1150179697   1.2209437392
	    H     2.1335859910  -1.0569409841  -3.6739604537
	    H     3.8341419376  -2.1138742474  -0.0723103251
	    H     3.7882271786  -2.0150692448  -2.3792314977
	    H    -3.3603411648   1.7549074263   3.0820162812
			--------------------------
			 OPTKING Finished Execution 
			--------------------------

    Structure for next step:
    Molecular point group: c1
    Full point group: C1

    Geometry (in Angstrom), charge = 1, multiplicity = 1:

    C           -1.288067220934     0.728339953061    -0.556142000342
    C           -0.294609030071     0.112840474204     1.547828024730
    C           -2.359264671800     1.297778202726     0.111678781929
    C           -1.365521140281     0.682094400557     2.217145863940
    C            0.947323283141    -0.459833927727    -1.955460830714
    C            1.939194775982    -1.074570094418     0.143808768889
    C            2.021894316520    -1.031484029409    -2.600793275689
    C            2.991891920141    -1.633656869412    -0.546776076322
    C           -0.239878872981     0.127346430872     0.150219073216
    C            0.887497911431    -0.471235949316    -0.556599201367
    C           -2.401788990395     1.276920342456     1.499852581180
    N            3.004663331187    -1.597579672785    -1.886594419033
    O           -3.458873715856     1.840689922678     2.125128417551
    H           -1.284630258757     0.760521959874    -1.635561136645
    H            0.492959382632    -0.340427704693     2.132129551487
    H           -3.162747112771     1.759069856980    -0.448125014759
    H           -1.393409907455     0.663248917392     3.299799329753
    H            0.167734213902    -0.009306339867    -2.548191585226
    H            1.947182436900    -1.114785237802     1.220988448622
    H            2.133176312465    -1.056708252149    -3.673915744289
    H            3.833732259106    -2.113641515504    -0.072265615736
    H            3.787817500123    -2.014836512929    -2.379186788343
    H           -3.360750843312     1.755140158237     3.082060990619

gradient() will perform analytic gradient computation.

*** tstart() called on gpu-1-4.local
*** at Sun Nov 12 07:18:32 2017

    SCF Algorithm Type (re)set to DF.

*** tstart() called on gpu-1-4.local
*** at Sun Nov 12 07:18:32 2017

   => Loading Basis Set <=

    Name: AUG-CC-PVTZ
    Role: ORBITAL
    Keyword: BASIS
    atoms 1-11  entry C          line   221 file /cbio/jclab/home/chayas/anaconda/envs/py35/share/psi4/basis/aug-cc-pvtz.gbs 
    atoms 12    entry N          line   267 file /cbio/jclab/home/chayas/anaconda/envs/py35/share/psi4/basis/aug-cc-pvtz.gbs 
    atoms 13    entry O          line   313 file /cbio/jclab/home/chayas/anaconda/envs/py35/share/psi4/basis/aug-cc-pvtz.gbs 
    atoms 14-23 entry H          line    34 file /cbio/jclab/home/chayas/anaconda/envs/py35/share/psi4/basis/aug-cc-pvtz.gbs 


         ---------------------------------------------------------
                                   SCF
            by Justin Turney, Rob Parrish, and Andy Simmonett
                              RHF Reference
                        8 Threads,   4768 MiB Core
         ---------------------------------------------------------

  ==> Geometry <==

    Molecular point group: c1
    Full point group: C1

    Geometry (in Angstrom), charge = 1, multiplicity = 1:

       Center              X                  Y                   Z               Mass       
    ------------   -----------------  -----------------  -----------------  -----------------
           C         -1.288067220934     0.728339953061    -0.556142000342    12.000000000000
           C         -0.294609030071     0.112840474204     1.547828024730    12.000000000000
           C         -2.359264671800     1.297778202726     0.111678781929    12.000000000000
           C         -1.365521140281     0.682094400557     2.217145863940    12.000000000000
           C          0.947323283141    -0.459833927727    -1.955460830714    12.000000000000
           C          1.939194775982    -1.074570094418     0.143808768889    12.000000000000
           C          2.021894316520    -1.031484029409    -2.600793275689    12.000000000000
           C          2.991891920141    -1.633656869412    -0.546776076322    12.000000000000
           C         -0.239878872981     0.127346430872     0.150219073216    12.000000000000
           C          0.887497911431    -0.471235949316    -0.556599201367    12.000000000000
           C         -2.401788990395     1.276920342456     1.499852581180    12.000000000000
           N          3.004663331187    -1.597579672785    -1.886594419033    14.003074004780
           O         -3.458873715856     1.840689922678     2.125128417551    15.994914619560
           H         -1.284630258757     0.760521959874    -1.635561136645     1.007825032070
           H          0.492959382632    -0.340427704693     2.132129551487     1.007825032070
           H         -3.162747112771     1.759069856980    -0.448125014759     1.007825032070
           H         -1.393409907455     0.663248917392     3.299799329753     1.007825032070
           H          0.167734213902    -0.009306339867    -2.548191585226     1.007825032070
           H          1.947182436900    -1.114785237802     1.220988448622     1.007825032070
           H          2.133176312465    -1.056708252149    -3.673915744289     1.007825032070
           H          3.833732259106    -2.113641515504    -0.072265615736     1.007825032070
           H          3.787817500123    -2.014836512929    -2.379186788343     1.007825032070
           H         -3.360750843312     1.755140158237     3.082060990619     1.007825032070

  Running in c1 symmetry.

  Rotational constants: A =      0.09654  B =      0.01335  C =      0.01172 [cm^-1]
  Rotational constants: A =   2894.27749  B =    400.08141  C =    351.49378 [MHz]
  Nuclear repulsion =  712.883440084620588

  Charge       = 1
  Multiplicity = 1
  Electrons    = 90
  Nalpha       = 45
  Nbeta        = 45

  ==> Algorithm <==

  SCF Algorithm Type is DF.
  DIIS enabled.
  MOM disabled.
  Fractional occupation disabled.
  Guess Type is READ.
  Energy threshold   = 1.00e-10
  Density threshold  = 1.00e-10
  Integral threshold = 0.00e+00

  ==> Primary Basis <==

  Basis Set: AUG-CC-PVTZ
    Blend: AUG-CC-PVTZ
    Number of shells: 272
    Number of basis function: 828
    Number of Cartesian functions: 965
    Spherical Harmonics?: true
    Max angular momentum: 3

   => Loading Basis Set <=

    Name: (AUG-CC-PVTZ AUX)
    Role: JKFIT
    Keyword: DF_BASIS_SCF
    atoms 1-11  entry C          line   161 file /cbio/jclab/home/chayas/anaconda/envs/py35/share/psi4/basis/aug-cc-pvtz-jkfit.gbs 
    atoms 12    entry N          line   223 file /cbio/jclab/home/chayas/anaconda/envs/py35/share/psi4/basis/aug-cc-pvtz-jkfit.gbs 
    atoms 13    entry O          line   285 file /cbio/jclab/home/chayas/anaconda/envs/py35/share/psi4/basis/aug-cc-pvtz-jkfit.gbs 
    atoms 14-23 entry H          line    69 file /cbio/jclab/home/chayas/anaconda/envs/py35/share/psi4/basis/aug-cc-pvtz-jkfit.gbs 

  Reading orbitals from file 180, no projection.

  ==> Pre-Iterations <==

   -------------------------------------------------------
    Irrep   Nso     Nmo     Nalpha   Nbeta   Ndocc  Nsocc
   -------------------------------------------------------
     A        828     828       0       0       0       0
   -------------------------------------------------------
    Total     828     828      45      45      45       0
   -------------------------------------------------------

  ==> Integral Setup <==

  ==> DFJK: Density-Fitted J/K Matrices <==

    J tasked:                  Yes
    K tasked:                  Yes
    wK tasked:                  No
    OpenMP threads:              8
    Integrals threads:           8
    Memory (MB):              3576
    Algorithm:                Disk
    Integral Cache:           NONE
    Schwarz Cutoff:          1E-12
    Fitting Condition:       1E-12

   => Auxiliary Basis Set <=

  Basis Set: (AUG-CC-PVTZ AUX)
    Blend: AUG-CC-PVTZ-JKFIT
    Number of shells: 530
    Number of basis function: 1812
    Number of Cartesian functions: 2253
    Spherical Harmonics?: true
    Max angular momentum: 4

  Minimum eigenvalue in the overlap matrix is 2.6703824674E-07.
  Using Symmetric Orthogonalization.

  SCF Guess: Orbitals guess was supplied from a previous computation.

  ==> Iterations <==

                           Total Energy        Delta E     RMS |[F,P]|

   @DF-RHF iter   0:  -551.87710623103192   -5.51877e+02   5.44961e-04 
   @DF-RHF iter   1:  -551.67691161535720    2.00195e-01   1.44276e-04 
   @DF-RHF iter   2:  -551.67819742792221   -1.28581e-03   1.03317e-04 DIIS
   @DF-RHF iter   3:  -551.67914312662583   -9.45699e-04   1.24873e-05 DIIS
   @DF-RHF iter   4:  -551.67916164888084   -1.85223e-05   3.99992e-06 DIIS
   @DF-RHF iter   5:  -551.67916453737564   -2.88849e-06   1.05479e-06 DIIS
   @DF-RHF iter   6:  -551.67916513594105   -5.98565e-07   6.18709e-07 DIIS
   @DF-RHF iter   7:  -551.67916538994950   -2.54008e-07   3.34052e-07 DIIS
   @DF-RHF iter   8:  -551.67916548359062   -9.36411e-08   1.37637e-07 DIIS
   @DF-RHF iter   9:  -551.67916549429833   -1.07077e-08   4.91853e-08 DIIS
   @DF-RHF iter  10:  -551.67916549505196   -7.53630e-10   2.06277e-08 DIIS
   @DF-RHF iter  11:  -551.67916549514155   -8.95852e-11   5.15340e-09 DIIS
   @DF-RHF iter  12:  -551.67916549514121    3.41061e-13   1.79089e-09 DIIS
   @DF-RHF iter  13:  -551.67916549514678   -5.57066e-12   9.89267e-10 DIIS
   @DF-RHF iter  14:  -551.67916549515382   -7.04858e-12   3.95545e-10 DIIS
   @DF-RHF iter  15:  -551.67916549516212   -8.29914e-12   1.57919e-10 DIIS
   @DF-RHF iter  16:  -551.67916549514780    1.43245e-11   6.21201e-11 DIIS

  ==> Post-Iterations <==

    Orbital Energies (a.u.)
    -----------------------

    Doubly Occupied:                                                      

       1A    -20.709362     2A    -15.825546     3A    -11.478855  
       4A    -11.478736     5A    -11.450035     6A    -11.438347  
       7A    -11.409466     8A    -11.409134     9A    -11.383080  
      10A    -11.380590    11A    -11.375601    12A    -11.358470  
      13A    -11.352877    14A     -1.529024    15A     -1.506259  
      16A     -1.317645    17A     -1.266592    18A     -1.235664  
      19A     -1.157667    20A     -1.156010    21A     -1.064524  
      22A     -1.055803    23A     -0.979871    24A     -0.960338  
      25A     -0.954413    26A     -0.874007    27A     -0.860883  
      28A     -0.854801    29A     -0.822588    30A     -0.799116  
      31A     -0.778135    32A     -0.772555    33A     -0.761395  
      34A     -0.736961    35A     -0.719036    36A     -0.712027  
      37A     -0.703142    38A     -0.685840    39A     -0.659950  
      40A     -0.645895    41A     -0.621376    42A     -0.569150  
      43A     -0.537550    44A     -0.474474    45A     -0.437625  

    Virtual:                                                              

      46A     -0.107528    47A     -0.082567    48A     -0.062369  
      49A     -0.061949    50A     -0.059157    51A     -0.044855  
      52A     -0.039823    53A     -0.039786    54A     -0.030814  
      55A     -0.025362    56A     -0.019647    57A     -0.015846  
      58A     -0.012849    59A     -0.008650    60A     -0.001324  
      61A      0.001974    62A      0.003812    63A      0.006264  
      64A      0.008823    65A      0.016865    66A      0.023369  
      67A      0.023794    68A      0.025169    69A      0.025948  
      70A      0.026831    71A      0.028989    72A      0.033729  
      73A      0.039052    74A      0.045775    75A      0.049081  
      76A      0.051401    77A      0.053468    78A      0.062903  
      79A      0.063362    80A      0.065058    81A      0.068070  
      82A      0.076633    83A      0.078077    84A      0.084623  
      85A      0.086775    86A      0.087124    87A      0.092822  
      88A      0.097715    89A      0.101229    90A      0.102787  
      91A      0.110366    92A      0.112450    93A      0.122515  
      94A      0.131169    95A      0.135479    96A      0.138993  
      97A      0.143547    98A      0.146664    99A      0.149126  
     100A      0.149672   101A      0.150250   102A      0.159072  
     103A      0.160508   104A      0.165034   105A      0.167637  
     106A      0.173690   107A      0.173828   108A      0.176779  
     109A      0.179784   110A      0.183446   111A      0.183969  
     112A      0.189474   113A      0.196866   114A      0.202980  
     115A      0.206725   116A      0.211647   117A      0.212566  
     118A      0.217975   119A      0.221192   120A      0.225524  
     121A      0.228897   122A      0.235035   123A      0.240335  
     124A      0.241104   125A      0.242993   126A      0.244808  
     127A      0.248559   128A      0.250458   129A      0.254763  
     130A      0.256941   131A      0.265692   132A      0.272546  
     133A      0.278593   134A      0.281766   135A      0.292575  
     136A      0.293702   137A      0.301582   138A      0.302904  
     139A      0.304738   140A      0.306569   141A      0.311719  
     142A      0.313646   143A      0.316865   144A      0.317295  
     145A      0.320978   146A      0.328838   147A      0.330354  
     148A      0.335386   149A      0.335947   150A      0.338011  
     151A      0.344371   152A      0.346785   153A      0.352292  
     154A      0.354468   155A      0.357759   156A      0.358397  
     157A      0.361158   158A      0.364178   159A      0.367225  
     160A      0.368354   161A      0.377410   162A      0.377731  
     163A      0.393714   164A      0.396305   165A      0.397185  
     166A      0.397734   167A      0.405991   168A      0.408930  
     169A      0.410708   170A      0.411555   171A      0.415668  
     172A      0.421401   173A      0.423159   174A      0.427717  
     175A      0.429521   176A      0.436201   177A      0.437802  
     178A      0.442372   179A      0.444536   180A      0.450834  
     181A      0.451080   182A      0.462181   183A      0.467818  
     184A      0.473357   185A      0.478074   186A      0.487295  
     187A      0.488533   188A      0.493724   189A      0.507716  
     190A      0.513313   191A      0.517269   192A      0.531254  
     193A      0.535428   194A      0.537888   195A      0.545220  
     196A      0.548290   197A      0.555176   198A      0.556923  
     199A      0.560435   200A      0.562587   201A      0.569240  
     202A      0.574534   203A      0.585629   204A      0.595579  
     205A      0.596759   206A      0.602641   207A      0.603348  
     208A      0.607333   209A      0.609480   210A      0.616507  
     211A      0.619157   212A      0.635076   213A      0.638084  
     214A      0.643790   215A      0.646625   216A      0.647677  
     217A      0.661383   218A      0.671985   219A      0.672919  
     220A      0.677078   221A      0.684247   222A      0.692058  
     223A      0.700810   224A      0.704513   225A      0.708756  
     226A      0.713154   227A      0.717149   228A      0.719597  
     229A      0.725771   230A      0.733140   231A      0.736005  
     232A      0.737610   233A      0.741363   234A      0.747935  
     235A      0.755944   236A      0.756713   237A      0.759144  
     238A      0.763974   239A      0.768961   240A      0.777531  
     241A      0.778713   242A      0.789168   243A      0.790821  
     244A      0.795267   245A      0.802480   246A      0.805238  
     247A      0.806961   248A      0.808935   249A      0.810233  
     250A      0.810634   251A      0.814576   252A      0.827614  
     253A      0.827872   254A      0.831110   255A      0.833844  
[...]
	 B(4,2,9)         =         2.116680	     121.276813
	 B(4,2,15)        =         2.051450	     117.539416
	 B(4,11,13)       =         2.157499	     123.615599
	 B(5,7,12)        =         2.089155	     119.699755
	 B(5,7,20)        =         2.152883	     123.351083
	 B(5,10,6)        =         2.021767	     115.838700
	 B(5,10,9)        =         2.130042	     122.042420
	 B(6,8,12)        =         2.089171	     119.700670
	 B(6,8,21)        =         2.153020	     123.358940
	 B(6,10,9)        =         2.131376	     122.118877
	 B(7,5,10)        =         2.119149	     121.418292
	 B(7,5,18)        =         2.044146	     117.120947
	 B(7,12,8)        =         2.127986	     121.924644
	 B(7,12,22)       =         2.077587	     119.036986
	 B(8,6,10)        =         2.119143	     121.417938
	 B(8,6,19)        =         2.043864	     117.104761
	 B(8,12,22)       =         2.077611	     119.038369
	 B(9,1,14)        =         2.114715	     121.164266
	 B(9,2,15)        =         2.115056	     121.183770
	 B(10,5,18)       =         2.119890	     121.460760
	 B(10,6,19)       =         2.120179	     121.477301
	 B(11,3,16)       =         2.074729	     118.873215
	 B(11,4,17)       =         2.095626	     120.070550
	 B(11,13,23)      =         1.930982	     110.637137
	 B(12,7,20)       =         2.041148	     116.949162
	 B(12,8,21)       =         2.040995	     116.940390
	 D(1,3,11,4)      =        -0.000182	      -0.010440
	 D(1,3,11,13)     =        -3.141562	    -179.998238
	 D(1,9,2,4)       =         0.000221	       0.012637
	 D(1,9,2,15)      =        -3.141376	    -179.987568
	 D(1,9,10,5)      =         0.000000	       0.000000
	 D(1,9,10,6)      =         3.141223	     179.978809
	 D(2,4,11,3)      =         0.000146	       0.008350
	 D(2,4,11,13)     =         3.141510	     179.995289
	 D(2,9,1,3)       =        -0.000258	      -0.014774
	 D(2,9,1,14)      =         3.141396	     179.988716
	 D(2,9,10,5)      =        -3.141337	    -179.985345
	 D(2,9,10,6)      =        -0.000118	      -0.006750
	 D(3,1,9,10)      =         3.141578	     179.999189
	 D(3,11,4,17)     =        -3.141506	    -179.995041
	 D(3,11,13,23)    =         3.141424	     179.990347
	 D(4,2,9,10)      =         3.141570	     179.998680
	 D(4,11,3,16)     =         3.141525	     179.996131
	 D(4,11,13,23)    =         0.000054	       0.003107
	 D(5,7,12,8)      =         0.000046	       0.002659
	 D(5,7,12,22)     =        -3.141536	    -179.996761
	 D(5,10,6,8)      =        -0.000167	      -0.009594
	 D(5,10,6,19)     =         3.141439	     179.991202
	 D(6,8,12,7)      =        -0.000054	      -0.003090
	 D(6,8,12,22)     =         3.141529	     179.996330
	 D(6,10,5,7)      =         0.000160	       0.009162
	 D(6,10,5,18)     =        -3.141418	    -179.990004
	 D(7,5,10,9)      =         3.141401	     179.989019
	 D(7,12,8,21)     =        -3.141568	    -179.998588
	 D(8,6,10,9)      =        -3.141408	    -179.989435
	 D(8,12,7,20)     =         3.141568	     179.998572
	 D(9,1,3,11)      =         0.000243	       0.013941
	 D(9,1,3,16)      =        -3.141467	    -179.992774
	 D(9,2,4,11)      =        -0.000170	      -0.009714
	 D(9,2,4,17)      =         3.141482	     179.993669
	 D(9,10,5,18)     =        -0.000177	      -0.010147
	 D(9,10,6,19)     =         0.000198	       0.011362
	 D(10,5,7,12)     =        -0.000104	      -0.005941
	 D(10,5,7,20)     =         3.141565	     179.998420
	 D(10,6,8,12)     =         0.000119	       0.006811
	 D(10,6,8,21)     =        -3.141558	    -179.997994
	 D(10,9,1,14)     =         0.000047	       0.002678
	 D(10,9,2,15)     =        -0.000027	      -0.001525
	 D(11,3,1,14)     =        -3.141408	    -179.989425
	 D(11,4,2,15)     =         3.141427	     179.990484
	 D(12,7,5,18)     =         3.141475	     179.993259
	 D(12,8,6,19)     =        -3.141487	    -179.993952
	 D(13,11,3,16)    =         0.000145	       0.008333
	 D(13,11,4,17)    =        -0.000141	      -0.008103
	 D(14,1,3,16)     =         0.000067	       0.003860
	 D(15,2,4,17)     =        -0.000107	      -0.006133
	 D(18,5,7,20)     =        -0.000042	      -0.002380
	 D(19,6,8,21)     =         0.000022	       0.001243
	 D(20,7,12,22)    =        -0.000015	      -0.000848
	 D(21,8,12,22)    =         0.000015	       0.000832

	Current energy   :      -554.1019080813

	Energy change for the previous step:
		Projected    :        -0.0000041526
		Actual       :        -0.0000029156

	Performing BFGS update.
	Previous computed or guess Hessian on step 1.
	Steps to be used in Hessian update: 4 3
	Adding user-defined constraint: Fragment 1; Coordinate 66:
		Value =     0.000000; Fixed value    =     0.000020
		Force =     0.000012; Force constant =     0.600000
	Removing off-diagonal coupling between coordinate 66 and others.
	Taking RFO optimization step.
	Going to follow RFO solution 1.
	Using RFO vector 1.
	Norm of target step-size    0.00223
	Projected energy change by RFO approximation:        -0.0000008926

	Back-transformation to cartesian coordinates...
	Successfully converged to displaced geometry.

	--- Internal Coordinate Step in ANG or DEG, aJ/ANG or AJ/DEG ---
	 ---------------------------------------------------------------------------
	   Coordinate                Previous        Force       Change         New 
	   ----------                --------       ------       ------       ------
	    1 R(1,3)          =      1.376178    -0.000430    -0.000100     1.376078
	    2 R(1,9)          =      1.401899     0.000185     0.000046     1.401946
	    3 R(1,14)         =      1.077173    -0.000027    -0.000004     1.077168
	    4 R(2,4)          =      1.378630     0.000130     0.000011     1.378641
	    5 R(2,9)          =      1.399975    -0.000241    -0.000056     1.399919
	    6 R(2,15)         =      1.077316    -0.000344    -0.000052     1.077264
	    7 R(3,11)         =      1.393176     0.000164     0.000033     1.393209
	    8 R(3,16)         =      1.078904    -0.000032    -0.000002     1.078903
	    9 R(4,11)         =      1.392983    -0.000016    -0.000003     1.392981
	   10 R(4,17)         =      1.080658    -0.000072    -0.000017     1.080642
	   11 R(5,7)          =      1.370406     0.000158     0.000001     1.370407
	   12 R(5,10)         =      1.404656    -0.000309    -0.000035     1.404621
	   13 R(5,18)         =      1.075478    -0.000064    -0.000007     1.075471
	   14 R(6,8)          =      1.370370     0.000133    -0.000001     1.370369
	   15 R(6,10)         =      1.404615    -0.000024    -0.000000     1.404615
	   16 R(6,19)         =      1.075560    -0.000293    -0.000044     1.075516
	   17 R(7,12)         =      1.343087    -0.000376    -0.000042     1.343045
	   18 R(7,20)         =      1.077518     0.000022     0.000005     1.077523
	   19 R(8,12)         =      1.343183    -0.000312    -0.000033     1.343150
	   20 R(8,21)         =      1.077517     0.000017     0.000004     1.077522
	   21 R(9,10)         =      1.446728     0.000191    -0.000032     1.446696
	   22 R(11,13)        =      1.341041     0.000350     0.000006     1.341047
	   23 R(12,22)        =      1.011390    -0.000106    -0.000018     1.011372
	   24 R(13,23)        =      0.964050     0.000212     0.000021     0.964071
	   25 B(1,3,11)       =    120.105973     0.000002     0.007768   120.113741
	   26 B(1,3,16)       =    121.020812     0.000001     0.011330   121.032141
	   27 B(1,9,2)        =    117.702667     0.000001     0.005393   117.708060
	   28 B(1,9,10)       =    121.168043    -0.000009    -0.024916   121.143127
	   29 B(2,4,11)       =    120.121009    -0.000001    -0.003225   120.117784
	   30 B(2,4,17)       =    119.808441    -0.000002    -0.011247   119.797194
	   31 B(2,9,10)       =    121.129288     0.000007     0.019524   121.148812
	   32 B(3,1,9)        =    121.356865    -0.000002    -0.008490   121.348375
	   33 B(3,1,14)       =    117.478869     0.000006     0.026208   117.505077
	   34 B(3,11,4)       =    119.436671    -0.000001    -0.002087   119.434584
	   35 B(3,11,13)      =    116.947730     0.000000    -0.001469   116.946261
	   36 B(4,2,9)        =    121.276813     0.000000     0.000641   121.277454
	   37 B(4,2,15)       =    117.539416     0.000001     0.006223   117.545640
	   38 B(4,11,13)      =    123.615599     0.000001     0.003556   123.619154
	   39 B(5,7,12)       =    119.699755     0.000001     0.004111   119.703866
	   40 B(5,7,20)       =    123.351083    -0.000002    -0.011192   123.339891
	   41 B(5,10,6)       =    115.838700     0.000000     0.000701   115.839401
	   42 B(5,10,9)       =    122.042420    -0.000008    -0.023385   122.019035
	   43 B(6,8,12)       =    119.700670     0.000002     0.006218   119.706888
	   44 B(6,8,21)       =    123.358940    -0.000002    -0.011802   123.347139
	   45 B(6,10,9)       =    122.118877     0.000008     0.022687   122.141563
	   46 B(7,5,10)       =    121.418292    -0.000001    -0.001119   121.417173
	   47 B(7,5,18)       =    117.120947     0.000001    -0.002401   117.118546
	   48 B(7,12,8)       =    121.924644    -0.000001    -0.005723   121.918921
	   49 B(7,12,22)      =    119.036986     0.000001     0.002980   119.039967
	   50 B(8,6,10)       =    121.417938    -0.000002    -0.004187   121.413751
	   51 B(8,6,19)       =    117.104761    -0.000001    -0.010736   117.094025
	   52 B(8,12,22)      =    119.038369     0.000001     0.002743   119.041112
	   53 B(9,1,14)       =    121.164266    -0.000004    -0.017719   121.146548
	   54 B(9,2,15)       =    121.183770    -0.000001    -0.006864   121.176906
	   55 B(10,5,18)      =    121.460760    -0.000000     0.003521   121.464281
	   56 B(10,6,19)      =    121.477301     0.000003     0.014923   121.492224
	   57 B(11,3,16)      =    118.873215    -0.000004    -0.019097   118.854117
	   58 B(11,4,17)      =    120.070550     0.000002     0.014472   120.085022
	   59 B(11,13,23)     =    110.637137     0.000003     0.012236   110.649373
	   60 B(12,7,20)      =    116.949162     0.000000     0.007081   116.956243
	   61 B(12,8,21)      =    116.940390     0.000000     0.005584   116.945973
	   62 D(1,3,11,4)     =     -0.010440     0.000000     0.019451     0.009011
	   63 D(1,3,11,13)    =   -179.998238    -0.000000    -0.004941  -180.003179
	   64 D(1,9,2,4)      =      0.012637    -0.000000    -0.025229    -0.012592
	   65 D(1,9,2,15)     =   -179.987568    -0.000000    -0.021640  -180.009208
	   66 D(1,9,10,5)     =      0.000000     0.000000     0.000885     0.000885
	   67 D(1,9,10,6)     =    179.978809     0.000000     0.033691   180.012500
	   68 D(2,4,11,3)     =      0.008350    -0.000000    -0.016187    -0.007837
	   69 D(2,4,11,13)    =    179.995289     0.000000     0.009923   180.005212
	   70 D(2,9,1,3)      =     -0.014774     0.000000     0.028568     0.013795
	   71 D(2,9,1,14)     =    179.988716     0.000000     0.020186   180.008902
	   72 D(2,9,10,5)     =   -179.985345    -0.000000    -0.021947  -180.007292
	   73 D(2,9,10,6)     =     -0.006750     0.000000     0.011074     0.004324
	   74 D(3,1,9,10)     =    179.999189     0.000000     0.006702   180.005891
	   75 D(3,11,4,17)    =   -179.995041    -0.000000    -0.010407  -180.005448
	   76 D(3,11,13,23)   =    179.990347     0.000000     0.021016   180.011362
	   77 D(4,2,9,10)     =    179.998680    -0.000000    -0.003368   179.995312
	   78 D(4,11,3,16)    =    179.996131     0.000000     0.008337   180.004469
	   79 D(4,11,13,23)   =      0.003107    -0.000000    -0.004494    -0.001386
	   80 D(5,7,12,8)     =      0.002659    -0.000000    -0.003880    -0.001221
	   81 D(5,7,12,22)    =   -179.996761    -0.000000    -0.004611  -180.001372
	   82 D(5,10,6,8)     =     -0.009594     0.000000     0.015302     0.005708
	   83 D(5,10,6,19)    =    179.991202     0.000000     0.015211   180.006413
	   84 D(6,8,12,7)     =     -0.003090     0.000000     0.004824     0.001734
	   85 D(6,8,12,22)    =    179.996330     0.000000     0.005556   180.001886
	   86 D(6,10,5,7)     =      0.009162    -0.000000    -0.014354    -0.005192
	   87 D(6,10,5,18)    =   -179.990004    -0.000000    -0.017165  -180.007169
	   88 D(7,5,10,9)     =    179.989019     0.000000     0.016716   180.005736
	   89 D(7,12,8,21)    =   -179.998588    -0.000000    -0.002786  -180.001374
	   90 D(8,6,10,9)     =   -179.989435    -0.000000    -0.015800  -180.005235
	   91 D(8,12,7,20)    =    179.998572     0.000000     0.002966   180.001538
	   92 D(9,1,3,11)     =      0.013941    -0.000000    -0.026198    -0.012257
	   93 D(9,1,3,16)     =   -179.992774    -0.000000    -0.014841  -180.007615
	   94 D(9,2,4,11)     =     -0.009714     0.000000     0.019600     0.009887
	   95 D(9,2,4,17)     =    179.993669     0.000000     0.013836   180.007505
	   96 D(9,10,5,18)    =     -0.010147     0.000000     0.013906     0.003759
	   97 D(9,10,6,19)    =      0.011362    -0.000000    -0.015891    -0.004530
	   98 D(10,5,7,12)    =     -0.005941     0.000000     0.009035     0.003094
	   99 D(10,5,7,20)    =    179.998420     0.000000     0.001580   180.000000
	  100 D(10,6,8,12)    =      0.006811    -0.000000    -0.010942    -0.004130
	  101 D(10,6,8,21)    =   -179.997994    -0.000000    -0.002820  -180.000814
	  102 D(10,9,1,14)    =      0.002678    -0.000000    -0.001680     0.000998
	  103 D(10,9,2,15)    =     -0.001525     0.000000     0.000221    -0.001304
	  104 D(11,3,1,14)    =   -179.989425    -0.000000    -0.018111  -180.007536
	  105 D(11,4,2,15)    =    179.990484     0.000000     0.016137   180.006621
	  106 D(12,7,5,18)    =    179.993259     0.000000     0.011729   180.004988
	  107 D(12,8,6,19)    =   -179.993952    -0.000000    -0.010854  -180.004806
	  108 D(13,11,3,16)   =      0.008333    -0.000000    -0.016054    -0.007721
	  109 D(13,11,4,17)   =     -0.008103     0.000000     0.015703     0.007601
	  110 D(14,1,3,16)    =      0.003860    -0.000000    -0.006754    -0.002893
	  111 D(15,2,4,17)    =     -0.006133     0.000000     0.010373     0.004239
	  112 D(18,5,7,20)    =     -0.002380     0.000000     0.004424     0.002044
	  113 D(19,6,8,21)    =      0.001243    -0.000000    -0.002732    -0.001489
	  114 D(20,7,12,22)   =     -0.000848     0.000000     0.002234     0.001386
	  115 D(21,8,12,22)   =      0.000832    -0.000000    -0.002054    -0.001222
	 ---------------------------------------------------------------------------
	Successfully symmetrized geometry.
	 Forces used to impose fixed constraints are not included.
	  Forces zeroed: 66 

  ==> Convergence Check <==

  Measures of convergence in internal coordinates in au.
  Criteria marked as inactive (o), active & met (*), and active & unmet ( ).
  ---------------------------------------------------------------------------------------------
   Step     Total Energy     Delta E     MAX Force     RMS Force      MAX Disp      RMS Disp   
  ---------------------------------------------------------------------------------------------
    Convergence Criteria    1.00e-06 *    3.00e-04 *             o    1.20e-03 *             o
  ---------------------------------------------------------------------------------------------
      5    -554.10190808   -2.92e-06      1.16e-04 *    2.70e-05 o    5.88e-04 *    2.08e-04 o  ~
  ---------------------------------------------------------------------------------------------


  **** Optimization is complete! (in 5 steps) ****

  ==> Optimization Summary <==

  Measures of convergence in internal coordinates in au.
  --------------------------------------------------------------------------------------------------------------- ~
   Step         Total Energy             Delta E       MAX Force       RMS Force        MAX Disp        RMS Disp  ~
  --------------------------------------------------------------------------------------------------------------- ~
      1    -554.096320526507   -554.096320526507      0.01774175      0.00587076      0.03150927      0.00932500  ~
      2    -554.100596937263     -0.004276410756      0.00807329      0.00241571      0.03580857      0.00892273  ~
      3    -554.101857071950     -0.001260134687      0.00204507      0.00046340      0.00678592      0.00183149  ~
      4    -554.101905165602     -0.000048093651      0.00080749      0.00011987      0.00232180      0.00052741  ~
      5    -554.101908081252     -0.000002915650      0.00011569      0.00002697      0.00058802      0.00020766  ~
  --------------------------------------------------------------------------------------------------------------- ~

	Writing optimization data to binary file.
	Final energy is   -554.1019080812516
	Final (previous) structure:
	Cartesian Geometry (in Angstrom)
	    C    -1.2947964768   0.7320165781  -0.5411594348
	    C    -0.3014460454   0.1161466764   1.5526393448
	    C    -2.3587069043   1.2977424079   0.1236076563
	    C    -1.3638851784   0.6808437345   2.2256629873
	    C     0.9603994535  -0.4671734944  -1.9511299373
	    C     1.9463401146  -1.0783054320   0.1273947458
	    C     2.0241972620  -1.0329866595  -2.6039724290
	    C     2.9969783101  -1.6359745292  -0.5531042765
	    C    -0.2387241733   0.1265122613   0.1541083137
	    C     0.8777530766  -0.4670103731  -0.5489070867
	    C    -2.4033869797   1.2775891854   1.5159210472
	    N     3.0135719238  -1.6017021659  -1.8957473513
	    O    -3.4689556769   1.8468470280   2.0980722257
	    H    -1.3034055651   0.7716120684  -1.6175695893
	    H     0.4795278889  -0.3338431353   2.1427234527
	    H    -3.1686805653   1.7622488929  -0.4169578583
	    H    -1.3881191030   0.6593581736   3.3058359733
	    H     0.1919257702  -0.0234501598  -2.5587565788
	    H     1.9757685935  -1.1291638437   1.2013486273
	    H     2.1192989050  -1.0507134741  -3.6771387253
	    H     3.8320621828  -2.1123751360  -0.0665643402
	    H     3.7939084391  -2.0162651993  -2.3878067138
	    H    -3.4070320644   1.7816129491   3.0579167391
	Saving final (previous) structure.
			--------------------------
			 OPTKING Finished Execution 
			--------------------------

    Final optimized geometry and variables:
    Molecular point group: c1
    Full point group: C1

    Geometry (in Angstrom), charge = 1, multiplicity = 1:

    C           -1.294796476850     0.732016578113    -0.541159434815
    C           -0.301446045400     0.116146676396     1.552639344777
    C           -2.358706904319     1.297742407868     0.123607656303
    C           -1.363885178400     0.680843734452     2.225662987286
    C            0.960399453478    -0.467173494441    -1.951129937349
    C            1.946340114567    -1.078305431985     0.127394745804
    C            2.024197262038    -1.032986659531    -2.603972429029
    C            2.996978310079    -1.635974529208    -0.553104276530
    C           -0.238724173336     0.126512261273     0.154108313662
    C            0.877753076566    -0.467010373102    -0.548907086728
    C           -2.403386979697     1.277589185422     1.515921047249
    N            3.013571923820    -1.601702165928    -1.895747351274
    O           -3.468955676900     1.846847027987     2.098072225658
    H           -1.303405565063     0.771612068412    -1.617569589276
    H            0.479527888926    -0.333843135324     2.142723452667
    H           -3.168680565322     1.762248892924    -0.416957858311
    H           -1.388119102986     0.659358173583     3.305835973326
    H            0.191925770234    -0.023450159804    -2.558756578796
    H            1.975768593470    -1.129163843665     1.201348627340
    H            2.119298905045    -1.050713474068    -3.677138725337
    H            3.832062182793    -2.112375135982    -0.066564340199
    H            3.793908439131    -2.016265199339    -2.387806713778
    H           -3.407032064420     1.781612949095     3.057916739137

	Cleaning optimization helper files.

*** Psi4 exiting successfully. Buy a developer a beer!
