
    -----------------------------------------------------------------------
          Psi4: An Open-Source Ab Initio Electronic Structure Package
                               Psi4 1.1 release

                         Git: Rev {HEAD} add49b9 


    R. M. Parrish, L. A. Burns, D. G. A. Smith, A. C. Simmonett,
    A. E. DePrince III, E. G. Hohenstein, U. Bozkaya, A. Yu. Sokolov,
    R. Di Remigio, R. M. Richard, J. F. Gonthier, A. M. James,
    H. R. McAlexander, A. Kumar, M. Saitow, X. Wang, B. P. Pritchard,
    P. Verma, H. F. Schaefer III, K. Patkowski, R. A. King, E. F. Valeev,
    F. A. Evangelista, J. M. Turney, T. D. Crawford, and C. D. Sherrill,
    J. Chem. Theory Comput. in press (2017).
    (doi: 10.1021/acs.jctc.7b00174)

    -----------------------------------------------------------------------


    Psi4 started on: Saturday, 11 November 2017 11:16PM

    Process ID:  11411
    PSIDATADIR: /cbio/jclab/home/chayas/anaconda/envs/py35/share/psi4
    Memory:     500.0 MiB
    Threads:    8
    
  ==> Input File <==

--------------------------------------------------------------------------

memory 5 Gb

molecule phepyrFOH_neutral {
  symmetry C1
  0 1 
  C      1.885   -1.036   -0.112
  C      0.807   -0.463   0.561
  C      3.825   -3.269   -0.988
  C      5.328   -1.753   0.119
  C      1.800   -1.079   2.676
  C      4.927   -3.802   -1.637
  C      6.363   -2.354   -0.579
  C      2.921   -1.631   0.608
  C      4.038   -2.225   -0.095
  C      0.764   -0.484   1.955
  C      2.878   -1.652   2.002
  N      6.195   -3.370   -1.455
  O      -0.289   0.076   2.612
  F      3.866   -2.220   2.709
  H      1.904   -1.012   -1.199
  H      0.002   -0.002   -0.006
  H      2.833   -3.663   -1.183
  H      5.532   -0.940   0.809
  H      1.772   -1.099   3.762
  H      4.814   -4.616   -2.345
  H      7.387   -2.023   -0.446
  H      -1.024   0.232   1.998
  units Angstrom
}

dih_string = "2 10 13 22 15"
set optking fixed_dihedral = $dih_string

optimize('MP2/aug-cc-PVTZ')
--------------------------------------------------------------------------

  Memory set to   4.657 GiB by Python driver.
gradient() will perform analytic gradient computation.

*** tstart() called on gpu-2-10.local
*** at Sat Nov 11 23:16:27 2017

    SCF Algorithm Type (re)set to DF.

*** tstart() called on gpu-2-10.local
*** at Sat Nov 11 23:16:27 2017

   => Loading Basis Set <=

    Name: AUG-CC-PVTZ
    Role: ORBITAL
    Keyword: BASIS
    atoms 1-11  entry C          line   221 file /cbio/jclab/home/chayas/anaconda/envs/py35/share/psi4/basis/aug-cc-pvtz.gbs 
    atoms 12    entry N          line   267 file /cbio/jclab/home/chayas/anaconda/envs/py35/share/psi4/basis/aug-cc-pvtz.gbs 
    atoms 13    entry O          line   313 file /cbio/jclab/home/chayas/anaconda/envs/py35/share/psi4/basis/aug-cc-pvtz.gbs 
    atoms 14    entry F          line   359 file /cbio/jclab/home/chayas/anaconda/envs/py35/share/psi4/basis/aug-cc-pvtz.gbs 
    atoms 15-22 entry H          line    34 file /cbio/jclab/home/chayas/anaconda/envs/py35/share/psi4/basis/aug-cc-pvtz.gbs 


         ---------------------------------------------------------
                                   SCF
            by Justin Turney, Rob Parrish, and Andy Simmonett
                              RHF Reference
                        8 Threads,   4768 MiB Core
         ---------------------------------------------------------

  ==> Geometry <==

    Molecular point group: c1
    Full point group: C1

    Geometry (in Angstrom), charge = 0, multiplicity = 1:

       Center              X                  Y                   Z               Mass       
    ------------   -----------------  -----------------  -----------------  -----------------
           C         -1.317217627963     0.753668320830    -0.791109700143    12.000000000000
           C         -2.395217627963     1.326668320830    -0.118109700143    12.000000000000
           C          0.622782372037    -1.479331679170    -1.667109700143    12.000000000000
           C          2.125782372037     0.036668320830    -0.560109700143    12.000000000000
           C         -1.402217627963     0.710668320830     1.996890299857    12.000000000000
           C          1.724782372037    -2.012331679170    -2.316109700143    12.000000000000
           C          3.160782372037    -0.564331679170    -1.258109700143    12.000000000000
           C         -0.281217627963     0.158668320830    -0.071109700143    12.000000000000
           C          0.835782372037    -0.435331679170    -0.774109700143    12.000000000000
           C         -2.438217627963     1.305668320830     1.275890299857    12.000000000000
           C         -0.324217627963     0.137668320830     1.322890299857    12.000000000000
           N          2.992782372037    -1.580331679170    -2.134109700143    14.003074004780
           O         -3.491217627963     1.865668320830     1.932890299857    15.994914619560
           F          0.663782372037    -0.430331679170     2.029890299857    18.998403224000
           H         -1.298217627963     0.777668320830    -1.878109700143     1.007825032070
           H         -3.200217627963     1.787668320830    -0.685109700143     1.007825032070
           H         -0.369217627963    -1.873331679170    -1.862109700143     1.007825032070
           H          2.329782372037     0.849668320830     0.129890299857     1.007825032070
           H         -1.430217627963     0.690668320830     3.082890299857     1.007825032070
           H          1.611782372037    -2.826331679170    -3.024109700143     1.007825032070
           H          4.184782372037    -0.233331679170    -1.125109700143     1.007825032070
           H         -4.226217627963     2.021668320830     1.318890299857     1.007825032070

  Running in c1 symmetry.

  Rotational constants: A =      0.06302  B =      0.01308  C =      0.01164 [cm^-1]
  Rotational constants: A =   1889.25511  B =    392.04243  C =    349.03806 [MHz]
  Nuclear repulsion =  813.881186600814544

  Charge       = 0
  Multiplicity = 1
  Electrons    = 98
  Nalpha       = 49
  Nbeta        = 49

  ==> Algorithm <==

  SCF Algorithm Type is DF.
  DIIS enabled.
  MOM disabled.
  Fractional occupation disabled.
  Guess Type is SAD.
  Energy threshold   = 1.00e-10
  Density threshold  = 1.00e-10
  Integral threshold = 0.00e+00

  ==> Primary Basis <==

  Basis Set: AUG-CC-PVTZ
    Blend: AUG-CC-PVTZ
    Number of shells: 268
    Number of basis function: 828
    Number of Cartesian functions: 970
    Spherical Harmonics?: true
    Max angular momentum: 3

   => Loading Basis Set <=

    Name: (AUG-CC-PVTZ AUX)
    Role: JKFIT
    Keyword: DF_BASIS_SCF
    atoms 1-11  entry C          line   161 file /cbio/jclab/home/chayas/anaconda/envs/py35/share/psi4/basis/aug-cc-pvtz-jkfit.gbs 
    atoms 12    entry N          line   223 file /cbio/jclab/home/chayas/anaconda/envs/py35/share/psi4/basis/aug-cc-pvtz-jkfit.gbs 
    atoms 13    entry O          line   285 file /cbio/jclab/home/chayas/anaconda/envs/py35/share/psi4/basis/aug-cc-pvtz-jkfit.gbs 
    atoms 14    entry F          line   347 file /cbio/jclab/home/chayas/anaconda/envs/py35/share/psi4/basis/aug-cc-pvtz-jkfit.gbs 
    atoms 15-22 entry H          line    69 file /cbio/jclab/home/chayas/anaconda/envs/py35/share/psi4/basis/aug-cc-pvtz-jkfit.gbs 

  ==> Pre-Iterations <==

   -------------------------------------------------------
    Irrep   Nso     Nmo     Nalpha   Nbeta   Ndocc  Nsocc
   -------------------------------------------------------
     A        828     828       0       0       0       0
   -------------------------------------------------------
    Total     828     828      49      49      49       0
   -------------------------------------------------------

  ==> Integral Setup <==

  ==> DFJK: Density-Fitted J/K Matrices <==

    J tasked:                  Yes
    K tasked:                  Yes
    wK tasked:                  No
    OpenMP threads:              8
    Integrals threads:           8
    Memory (MB):              3576
    Algorithm:                Disk
    Integral Cache:           NONE
    Schwarz Cutoff:          1E-12
    Fitting Condition:       1E-12

   => Auxiliary Basis Set <=

  Basis Set: (AUG-CC-PVTZ AUX)
    Blend: AUG-CC-PVTZ-JKFIT
    Number of shells: 532
    Number of basis function: 1824
    Number of Cartesian functions: 2274
    Spherical Harmonics?: true
    Max angular momentum: 4

  Minimum eigenvalue in the overlap matrix is 7.1628652600E-07.
  Using Symmetric Orthogonalization.

  SCF Guess: Superposition of Atomic Densities via on-the-fly atomic UHF.

  ==> Iterations <==

                           Total Energy        Delta E     RMS |[F,P]|

   @DF-RHF iter   0:  -657.27061244770243   -6.57271e+02   1.55849e-02 
   @DF-RHF iter   1:  -649.75256210750501    7.51805e+00   2.43809e-03 
   @DF-RHF iter   2:  -650.09100846530669   -3.38446e-01   7.72628e-04 DIIS
   @DF-RHF iter   3:  -650.15288400661279   -6.18755e-02   4.69417e-04 DIIS
   @DF-RHF iter   4:  -650.17099972157143   -1.81157e-02   9.51116e-05 DIIS
   @DF-RHF iter   5:  -650.17290761398954   -1.90789e-03   3.97163e-05 DIIS
   @DF-RHF iter   6:  -650.17318833684453   -2.80723e-04   1.31429e-05 DIIS
   @DF-RHF iter   7:  -650.17322506018297   -3.67233e-05   3.77378e-06 DIIS
   @DF-RHF iter   8:  -650.17322934333515   -4.28315e-06   1.55219e-06 DIIS
   @DF-RHF iter   9:  -650.17323006141123   -7.18076e-07   1.07226e-06 DIIS
   @DF-RHF iter  10:  -650.17323028791975   -2.26509e-07   5.10151e-07 DIIS
   @DF-RHF iter  11:  -650.17323036719711   -7.92774e-08   2.04077e-07 DIIS
   @DF-RHF iter  12:  -650.17323038038558   -1.31885e-08   8.72333e-08 DIIS
   @DF-RHF iter  13:  -650.17323038174641   -1.36083e-09   2.41650e-08 DIIS
   @DF-RHF iter  14:  -650.17323038187840   -1.31990e-10   1.05945e-08 DIIS
   @DF-RHF iter  15:  -650.17323038191239   -3.39924e-11   4.87010e-09 DIIS
   @DF-RHF iter  16:  -650.17323038190898    3.41061e-12   2.08995e-09 DIIS
   @DF-RHF iter  17:  -650.17323038189670    1.22782e-11   1.02524e-09 DIIS
   @DF-RHF iter  18:  -650.17323038191034   -1.36424e-11   3.90277e-10 DIIS
   @DF-RHF iter  19:  -650.17323038190727    3.06954e-12   1.89724e-10 DIIS
   @DF-RHF iter  20:  -650.17323038191228   -5.00222e-12   5.96877e-11 DIIS

  ==> Post-Iterations <==

    Orbital Energies (a.u.)
    -----------------------

    Doubly Occupied:                                                      

       1A    -26.326054     2A    -20.607928     3A    -15.565460  
       4A    -11.348561     5A    -11.327362     6A    -11.275116  
       7A    -11.274224     8A    -11.266368     9A    -11.265511  
      10A    -11.253428    11A    -11.250981    12A    -11.249346  
      13A    -11.239883    14A    -11.238387    15A     -1.644080  
      16A     -1.422911    17A     -1.250606    18A     -1.181923  
      19A     -1.110272    20A     -1.041565    21A     -1.034640  
      22A     -1.019299    23A     -0.890811    24A     -0.876609  
      25A     -0.852894    26A     -0.827612    27A     -0.780739  
      28A     -0.735714    29A     -0.721904    30A     -0.710271  
      31A     -0.694568    32A     -0.664964    33A     -0.662761  
      34A     -0.654680    35A     -0.630673    36A     -0.612996  
      37A     -0.606341    38A     -0.599261    39A     -0.577934  
      40A     -0.549528    41A     -0.536809    42A     -0.525171  
      43A     -0.520964    44A     -0.494729    45A     -0.419554  
      46A     -0.387246    47A     -0.359557    48A     -0.349338  
      49A     -0.325405  

    Virtual:                                                              

      50A      0.019403    51A      0.031263    52A      0.033781  
      53A      0.036639    54A      0.042096    55A      0.048091  
      56A      0.053593    57A      0.056082    58A      0.075707  
      59A      0.082562    60A      0.083865    61A      0.086046  
      62A      0.089404    63A      0.094864    64A      0.098050  
      65A      0.100448    66A      0.103359    67A      0.108551  
      68A      0.110146    69A      0.111168    70A      0.115841  
      71A      0.117894    72A      0.119555    73A      0.124757  
      74A      0.126483    75A      0.130532    76A      0.133815  
      77A      0.135287    78A      0.142326    79A      0.144600  
      80A      0.150226    81A      0.151373    82A      0.154231  
      83A      0.155540    84A      0.156556    85A      0.166333  
      86A      0.171918    87A      0.174146    88A      0.180709  
      89A      0.185935    90A      0.195155    91A      0.200243  
      92A      0.208838    93A      0.215158    94A      0.220698  
      95A      0.221562    96A      0.226980    97A      0.234591  
      98A      0.235584    99A      0.240735   100A      0.242306  
     101A      0.245208   102A      0.249135   103A      0.251140  
     104A      0.255712   105A      0.257593   106A      0.262608  
     107A      0.264433   108A      0.268318   109A      0.275107  
     110A      0.275938   111A      0.280907   112A      0.285154  
     113A      0.293126   114A      0.297312   115A      0.303813  
     116A      0.304085   117A      0.311052   118A      0.311481  
     119A      0.314617   120A      0.316244   121A      0.323577  
     122A      0.324792   123A      0.328768   124A      0.330556  
     125A      0.338119   126A      0.344114   127A      0.346103  
     128A      0.351788   129A      0.357294   130A      0.360749  
     131A      0.371918   132A      0.376215   133A      0.382756  
     134A      0.384520   135A      0.387766   136A      0.396447  
     137A      0.398337   138A      0.404040   139A      0.408591  
     140A      0.413614   141A      0.416471   142A      0.420243  
     143A      0.421982   144A      0.426655   145A      0.435237  
     146A      0.436477   147A      0.441278   148A      0.443610  
     149A      0.448817   150A      0.452425   151A      0.457895  
     152A      0.459459   153A      0.463499   154A      0.469642  
     155A      0.472368   156A      0.476613   157A      0.478028  
     158A      0.482230   159A      0.487041   160A      0.488859  
     161A      0.491945   162A      0.497314   163A      0.501241  
     164A      0.504938   165A      0.506644   166A      0.508851  
     167A      0.513296   168A      0.514320   169A      0.518325  
     170A      0.521993   171A      0.523081   172A      0.532573  
     173A      0.536790   174A      0.537957   175A      0.543935  
     176A      0.547553   177A      0.550683   178A      0.553643  
     179A      0.562012   180A      0.562129   181A      0.568496  
     182A      0.575844   183A      0.578891   184A      0.585943  
     185A      0.590670   186A      0.594871   187A      0.606432  
     188A      0.609949   189A      0.620835   190A      0.625616  
     191A      0.628005   192A      0.637274   193A      0.639754  
     194A      0.646950   195A      0.650511   196A      0.658137  
     197A      0.664058   198A      0.666937   199A      0.675807  
     200A      0.682960   201A      0.687498   202A      0.699409  
     203A      0.702420   204A      0.705186   205A      0.708861  
     206A      0.714276   207A      0.718491   208A      0.724301  
     209A      0.728273   210A      0.734621   211A      0.738679  
     212A      0.744962   213A      0.754296   214A      0.755418  
     215A      0.764871   216A      0.767009   217A      0.776828  
     218A      0.784336   219A      0.789120   220A      0.793668  
     221A      0.798842   222A      0.803619   223A      0.810622  
     224A      0.814341   225A      0.821996   226A      0.831142  
     227A      0.834984   228A      0.844181   229A      0.847931  
     230A      0.853186   231A      0.856554   232A      0.857903  
     233A      0.867132   234A      0.870377   235A      0.873887  
     236A      0.878236   237A      0.883716   238A      0.885609  
     239A      0.894587   240A      0.898579   241A      0.905865  
     242A      0.910879   243A      0.916393   244A      0.923913  
     245A      0.927323   246A      0.929417   247A      0.932261  
     248A      0.936293   249A      0.943759   250A      0.946934  
     251A      0.953493   252A      0.956187   253A      0.959992  
     254A      0.963600   255A      0.965187   256A      0.972235  
     257A      0.976693   258A      0.979434   259A      0.987828  
     260A      0.990409   261A      0.993911   262A      1.004535  
     263A      1.005238   264A      1.011851   265A      1.017096  
     266A      1.027189   267A      1.028728   268A      1.029743  
     269A      1.032066   270A      1.037600   271A      1.041281  
     272A      1.043563   273A      1.045234   274A      1.054682  
     275A      1.060367   276A      1.063124   277A      1.071235  
     278A      1.071820   279A      1.079661   280A      1.086496  
     281A      1.089560   282A      1.092286   283A      1.092771  
     284A      1.098949   285A      1.110114   286A      1.111313  
     287A      1.118112   288A      1.120255   289A      1.127080  
     290A      1.133716   291A      1.138256   292A      1.139755  
     293A      1.146084   294A      1.150581   295A      1.158151  
     296A      1.161174   297A      1.162907   298A      1.168263  
     299A      1.175622   300A      1.179531   301A      1.181290  
     302A      1.187751   303A      1.199180   304A      1.200297  
     305A      1.202742   306A      1.211868   307A      1.217351  
     308A      1.223136   309A      1.226104   310A      1.229330  
     311A      1.238706   312A      1.245464   313A      1.250548  
     314A      1.257137   315A      1.266471   316A      1.271266  
     317A      1.273357   318A      1.279978   319A      1.288908  
     320A      1.297372   321A      1.301312   322A      1.308574  
     323A      1.309664   324A      1.316974   325A      1.326603  
     326A      1.334499   327A      1.335692   328A      1.351247  
     329A      1.360384   330A      1.364764   331A      1.368865  
     332A      1.373463   333A      1.380293   334A      1.383793  
     335A      1.386224   336A      1.396333   337A      1.403642  
     338A      1.414996   339A      1.416587   340A      1.418861  
     341A      1.434307   342A      1.442858   343A      1.448543  
     344A      1.457194   345A      1.466558   346A      1.474047  
     347A      1.479437   348A      1.484059   349A      1.495993  
     350A      1.507693   351A      1.508031   352A      1.518582  
     353A      1.537200   354A      1.540081   355A      1.543763  
     356A      1.559654   357A      1.561975   358A      1.569219  
     359A      1.571832   360A      1.584822   361A      1.586868  
     362A      1.595519   363A      1.606366   364A      1.607528  
     365A      1.622569   366A      1.630803   367A      1.637583  
     368A      1.645667   369A      1.647554   370A      1.655500  
     371A      1.658677   372A      1.671335   373A      1.679642  
     374A      1.684039   375A      1.685471   376A      1.691755  
     377A      1.708285   378A      1.711829   379A      1.724288  
     380A      1.728523   381A      1.735988   382A      1.737989  
     383A      1.742514   384A      1.752145   385A      1.761190  
     386A      1.772376   387A      1.781656   388A      1.782962  
     389A      1.786878   390A      1.800838   391A      1.804064  
     392A      1.812666   393A      1.823519   394A      1.829630  
     395A      1.835577   396A      1.848853   397A      1.859108  
     398A      1.864191   399A      1.876223   400A      1.883086  
     401A      1.886188   402A      1.894188   403A      1.901326  
     404A      1.906970   405A      1.911987   406A      1.921929  
     407A      1.926672   408A      1.936849   409A      1.946889  
     410A      1.949973   411A      1.956389   412A      1.964403  
     413A      1.977468   414A      1.987543   415A      1.993363  
     416A      1.999847   417A      2.009227   418A      2.014991  
     419A      2.023343   420A      2.031178   421A      2.039170  
     422A      2.041288   423A      2.050745   424A      2.053039  
     425A      2.065536   426A      2.078055   427A      2.084277  
     428A      2.087125   429A      2.092951   430A      2.107329  
     431A      2.112422   432A      2.120762   433A      2.126170  
     434A      2.127451   435A      2.139969   436A      2.142745  
     437A      2.158301   438A      2.165544   439A      2.177839  
     440A      2.192275   441A      2.193554   442A      2.202191  
     443A      2.211240   444A      2.224302   445A      2.228700  
     446A      2.235376   447A      2.242399   448A      2.253615  
     449A      2.257144   450A      2.270257   451A      2.278755  
     452A      2.289045   453A      2.297488   454A      2.310985  
     455A      2.312450   456A      2.323222   457A      2.340788  
     458A      2.342664   459A      2.349119   460A      2.359240  
     461A      2.382582   462A      2.388757   463A      2.408441  
     464A      2.414754   465A      2.417782   466A      2.437842  
     467A      2.441274   468A      2.458609   469A      2.463022  
     470A      2.470576   471A      2.476037   472A      2.486013  
     473A      2.517158   474A      2.527260   475A      2.536146  
     476A      2.551823   477A      2.565715   478A      2.573501  
     479A      2.584170   480A      2.584918   481A      2.595438  
     482A      2.608857   483A      2.618921   484A      2.634377  
     485A      2.638151   486A      2.669113   487A      2.688969  
     488A      2.691804   489A      2.706390   490A      2.734325  
     491A      2.747901   492A      2.753291   493A      2.762277  
     494A      2.780007   495A      2.798462   496A      2.810070  
     497A      2.822566   498A      2.832980   499A      2.843055  
     500A      2.853199   501A      2.883149   502A      2.907444  
     503A      2.928321   504A      2.953902   505A      2.967694  
     506A      2.975588   507A      3.029692   508A      3.039452  
     509A      3.054856   510A      3.056685   511A      3.075358  
     512A      3.087114   513A      3.094624   514A      3.116459  
     515A      3.125908   516A      3.145971   517A      3.162759  
     518A      3.177635   519A      3.190262   520A      3.197586  
     521A      3.198947   522A      3.211033   523A      3.238161  
     524A      3.248716   525A      3.261981   526A      3.279362  
     527A      3.282626   528A      3.287431   529A      3.303856  
     530A      3.323980   531A      3.330557   532A      3.335099  
     533A      3.349420   534A      3.358976   535A      3.380890  
     536A      3.384626   537A      3.400937   538A      3.416564  
     539A      3.421905   540A      3.427762   541A      3.429666  
     542A      3.441287   543A      3.448369   544A      3.451366  
     545A      3.466435   546A      3.473661   547A      3.484072  
     548A      3.494758   549A      3.496714   550A      3.499622  
     551A      3.526084   552A      3.526505   553A      3.542555  
     554A      3.550285   555A      3.557992   556A      3.563957  
     557A      3.566177   558A      3.574168   559A      3.583840  
     560A      3.594751   561A      3.601426   562A      3.608222  
     563A      3.621706   564A      3.625655   565A      3.636407  
     566A      3.644559   567A      3.654512   568A      3.665019  
     569A      3.668286   570A      3.686558   571A      3.688695  
     572A      3.698157   573A      3.703797   574A      3.712151  
     575A      3.731369   576A      3.735019   577A      3.741973  
     578A      3.751030   579A      3.762890   580A      3.774559  
     581A      3.785400   582A      3.795644   583A      3.803688  
     584A      3.806116   585A      3.819288   586A      3.820887  
     587A      3.827328   588A      3.849951   589A      3.852729  
     590A      3.862843   591A      3.867401   592A      3.879770  
     593A      3.885269   594A      3.898150   595A      3.907434  
     596A      3.916833   597A      3.924610   598A      3.929137  
     599A      3.936851   600A      3.938530   601A      3.948740  
     602A      3.956316   603A      3.963287   604A      3.972263  
     605A      3.980406   606A      3.986328   607A      3.997038  
     608A      4.010061   609A      4.022457   610A      4.032043  
     611A      4.037371   612A      4.040524   613A      4.059384  
     614A      4.060530   615A      4.073835   616A      4.083166  
     617A      4.084921   618A      4.106155   619A      4.110823  
     620A      4.119482   621A      4.129542   622A      4.136899  
     623A      4.144290   624A      4.156769   625A      4.163849  
     626A      4.168580   627A      4.187201   628A      4.196622  
     629A      4.203966   630A      4.206772   631A      4.220537  
     632A      4.225875   633A      4.237455   634A      4.247235  
     635A      4.248338   636A      4.274469   637A      4.288196  
     638A      4.290432   639A      4.297316   640A      4.304173  
     641A      4.315244   642A      4.324289   643A      4.331872  
     644A      4.344471   645A      4.348727   646A      4.355771  
     647A      4.370067   648A      4.376416   649A      4.383342  
     650A      4.391182   651A      4.400831   652A      4.405763  
     653A      4.420789   654A      4.429056   655A      4.436704  
     656A      4.441457   657A      4.459935   658A      4.464539  
     659A      4.467875   660A      4.479877   661A      4.491190  
     662A      4.517579   663A      4.519950   664A      4.533136  
     665A      4.541282   666A      4.549956   667A      4.561097  
     668A      4.572808   669A      4.584877   670A      4.599135  
     671A      4.610665   672A      4.616301   673A      4.629589  
     674A      4.632785   675A      4.662602   676A      4.684860  
     677A      4.692622   678A      4.703965   679A      4.726391  
     680A      4.731631   681A      4.738949   682A      4.751695  
     683A      4.755996   684A      4.772770   685A      4.790403  
     686A      4.801544   687A      4.817138   688A      4.858978  
     689A      4.867469   690A      4.874918   691A      4.889814  
     692A      4.914711   693A      4.919137   694A      4.933591  
     695A      4.942944   696A      4.954648   697A      4.968420  
     698A      4.975163   699A      4.982309   700A      4.997317  
     701A      5.016613   702A      5.030710   703A      5.034122  
     704A      5.039939   705A      5.047207   706A      5.051535  
     707A      5.063896   708A      5.080276   709A      5.102272  
     710A      5.112943   711A      5.114786   712A      5.135039  
     713A      5.154170   714A      5.166825   715A      5.171464  
     716A      5.178230   717A      5.185741   718A      5.187062  
     719A      5.195906   720A      5.200195   721A      5.230286  
     722A      5.273481   723A      5.284660   724A      5.298088  
     725A      5.312552   726A      5.322158   727A      5.326170  
     728A      5.355691   729A      5.362834   730A      5.380748  
     731A      5.385263   732A      5.439443   733A      5.443688  
     734A      5.452454   735A      5.455926   736A      5.461765  
     737A      5.479304   738A      5.484032   739A      5.526609  
     740A      5.547817   741A      5.560398   742A      5.593508  
     743A      5.606392   744A      5.636064   745A      5.644048  
     746A      5.657127   747A      5.711570   748A      5.739958  
     749A      5.745708   750A      5.766131   751A      5.796249  
     752A      5.802538   753A      5.833447   754A      5.865516  
     755A      5.878542   756A      5.883174   757A      5.909833  
     758A      5.963884   759A      6.006013   760A      6.037239  
     761A      6.081509   762A      6.113346   763A      6.162551  
     764A      6.183299   765A      6.231027   766A      6.251266  
     767A      6.268085   768A      6.306502   769A      6.320071  
     770A      6.345768   771A      6.359895   772A      6.456728  
     773A      6.486826   774A      6.518994   775A      6.543122  
     776A      6.573847   777A      6.686448   778A      6.694415  
     779A      6.700683   780A      6.716552   781A      6.733515  
     782A      6.832265   783A      6.871275   784A      6.896162  
     785A      6.926654   786A      6.945887   787A      6.979692  
     788A      7.053209   789A      7.061899   790A      7.081412  
     791A      7.180922   792A      7.264856   793A      7.381326  
     794A      7.419322   795A      7.436026   796A      7.473488  
     797A      7.669129   798A      7.691800   799A      7.746985  
     800A      7.975327   801A      8.367916   802A      8.605758  
     803A      9.004593   804A      9.046751   805A      9.269573  
     806A      9.288777   807A      9.405316   808A      9.518763  
     809A      9.538478   810A      9.590132   811A      9.643073  
     812A      9.715829   813A     10.031194   814A     10.077688  
     815A     15.532558   816A     16.138255   817A     16.511148  
     818A     16.592380   819A     16.689837   820A     16.867642  
     821A     18.455538   822A     18.682401   823A     19.164727  
     824A     19.580907   825A     20.146446   826A     20.178969  
     827A     20.463605   828A     21.788698  

    Final Occupation by Irrep:
              A 
    DOCC [    49 ]

  Energy converged.

  @DF-RHF Final Energy:  -650.17323038191228

   => Energetics <=

    Nuclear Repulsion Energy =            813.8811866008145444
    One-Electron Energy =               -2502.5829572966890737
    Two-Electron Energy =                1038.5285403139623668
    DFT Exchange-Correlation Energy =       0.0000000000000000
    Empirical Dispersion Energy =           0.0000000000000000
    PCM Polarization Energy =               0.0000000000000000
    EFP Energy =                            0.0000000000000000
    Total Energy =                       -650.1732303819121626



Properties will be evaluated at   0.000000,   0.000000,   0.000000 Bohr

Properties computed using the SCF density matrix

  Nuclear Dipole Moment: (a.u.)
     X:    -2.8995      Y:     1.5392      Z:    -5.6895

  Electronic Dipole Moment: (a.u.)
     X:     1.4195      Y:    -0.8645      Z:     5.4034

  Dipole Moment: (a.u.)
     X:    -1.4800      Y:     0.6747      Z:    -0.2860     Total:     1.6515

  Dipole Moment: (Debye)
     X:    -3.7617      Y:     1.7150      Z:    -0.7271     Total:     4.1976


*** tstop() called on gpu-2-10.local at Sat Nov 11 23:25:20 2017
Module time:
	user time   =    1244.78 seconds =      20.75 minutes
	system time =      58.68 seconds =       0.98 minutes
	total time  =        533 seconds =       8.88 minutes
Total time:
	user time   =    1244.78 seconds =      20.75 minutes
	system time =      58.68 seconds =       0.98 minutes
	total time  =        533 seconds =       8.88 minutes

  //>>>>>>>>>>>>>>>>>>>>>>>>>>>>>>>>>>>//
  //               DFMP2               //
  //<<<<<<<<<<<<<<<<<<<<<<<<<<<<<<<<<<<//

   => Loading Basis Set <=

    Name: (AUG-CC-PVTZ AUX)
    Role: RIFIT
    Keyword: DF_BASIS_MP2
    atoms 1-11  entry C          line   147 file /cbio/jclab/home/chayas/anaconda/envs/py35/share/psi4/basis/aug-cc-pvtz-ri.gbs 
    atoms 12    entry N          line   205 file /cbio/jclab/home/chayas/anaconda/envs/py35/share/psi4/basis/aug-cc-pvtz-ri.gbs 
    atoms 13    entry O          line   263 file /cbio/jclab/home/chayas/anaconda/envs/py35/share/psi4/basis/aug-cc-pvtz-ri.gbs 
    atoms 14    entry F          line   321 file /cbio/jclab/home/chayas/anaconda/envs/py35/share/psi4/basis/aug-cc-pvtz-ri.gbs 
    atoms 15-22 entry H          line    29 file /cbio/jclab/home/chayas/anaconda/envs/py35/share/psi4/basis/aug-cc-pvtz-ri.gbs 

	 --------------------------------------------------------
	                          DF-MP2                         
	      2nd-Order Density-Fitted Moller-Plesset Theory     
	              RMP2 Wavefunction,   8 Threads             
	                                                         
	        Rob Parrish, Justin Turney, Andy Simmonett,      
	           Ed Hohenstein, and C. David Sherrill          
	 --------------------------------------------------------

   => Auxiliary Basis Set <=

  Basis Set: (AUG-CC-PVTZ AUX)
    Blend: AUG-CC-PVTZ-RI
    Number of shells: 504
    Number of basis function: 1852
    Number of Cartesian functions: 2344
    Spherical Harmonics?: true
    Max angular momentum: 4

	 --------------------------------------------------------
	                 NBF =   828, NAUX =  1852
	 --------------------------------------------------------
	   CLASS    FOCC     OCC    AOCC    AVIR     VIR    FVIR
	   PAIRS       0      49      49     779     779       0
	 --------------------------------------------------------


         ------------------------------------------------------------
                                     CPHF                           
                                  Rob Parrish                       
         ------------------------------------------------------------

  ==> Geometry <==

    Molecular point group: c1
    Full point group: C1

    Geometry (in Angstrom), charge = 0, multiplicity = 1:

       Center              X                  Y                   Z               Mass       
    ------------   -----------------  -----------------  -----------------  -----------------
           C         -1.317217627963     0.753668320830    -0.791109700143    12.000000000000
           C         -2.395217627963     1.326668320830    -0.118109700143    12.000000000000
           C          0.622782372037    -1.479331679170    -1.667109700143    12.000000000000
           C          2.125782372037     0.036668320830    -0.560109700143    12.000000000000
           C         -1.402217627963     0.710668320830     1.996890299857    12.000000000000
           C          1.724782372037    -2.012331679170    -2.316109700143    12.000000000000
           C          3.160782372037    -0.564331679170    -1.258109700143    12.000000000000
           C         -0.281217627963     0.158668320830    -0.071109700143    12.000000000000
           C          0.835782372037    -0.435331679170    -0.774109700143    12.000000000000
           C         -2.438217627963     1.305668320830     1.275890299857    12.000000000000
           C         -0.324217627963     0.137668320830     1.322890299857    12.000000000000
           N          2.992782372037    -1.580331679170    -2.134109700143    14.003074004780
           O         -3.491217627963     1.865668320830     1.932890299857    15.994914619560
           F          0.663782372037    -0.430331679170     2.029890299857    18.998403224000
           H         -1.298217627963     0.777668320830    -1.878109700143     1.007825032070
           H         -3.200217627963     1.787668320830    -0.685109700143     1.007825032070
           H         -0.369217627963    -1.873331679170    -1.862109700143     1.007825032070
           H          2.329782372037     0.849668320830     0.129890299857     1.007825032070
           H         -1.430217627963     0.690668320830     3.082890299857     1.007825032070
           H          1.611782372037    -2.826331679170    -3.024109700143     1.007825032070
           H          4.184782372037    -0.233331679170    -1.125109700143     1.007825032070
           H         -4.226217627963     2.021668320830     1.318890299857     1.007825032070

  Nuclear repulsion =  813.881186600814544
  Reference energy  = -650.173230381912276

  ==> Basis Set <==

  Basis Set: AUG-CC-PVTZ
    Blend: AUG-CC-PVTZ
    Number of shells: 268
    Number of basis function: 828
    Number of Cartesian functions: 970
    Spherical Harmonics?: true
    Max angular momentum: 3

  ==> CGRSolver (by Rob Parrish) <==

   Number of roots    =         1
   Preconditioning    =    JACOBI
   Convergence cutoff =     1E-06
   Maximum iterations =       100

  ==> CPHFRHamiltonian (by Rob Parrish) <== 

  ==> DFJK: Density-Fitted J/K Matrices <==

    J tasked:                  Yes
    K tasked:                  Yes
    wK tasked:                  No
    OpenMP threads:              8
    Integrals threads:           8
    Memory (MB):              3576
    Algorithm:                Disk
    Integral Cache:           NONE
    Schwarz Cutoff:          1E-12
    Fitting Condition:       1E-12

   => Auxiliary Basis Set <=

  Basis Set: (AUG-CC-PVTZ AUX)
    Blend: AUG-CC-PVTZ-JKFIT
    Number of shells: 532
    Number of basis function: 1824
    Number of Cartesian functions: 2274
    Spherical Harmonics?: true
    Max angular momentum: 4

  ==> CPHF Iterations <==

  => Iterations <=

             Iter  Converged  Remaining    Residual
  CGR           1          0          1   1.022E-01
  CGR           2          0          1   3.405E-02
  CGR           3          0          1   2.237E-02
  CGR           4          0          1   9.783E-03
  CGR           5          0          1   4.067E-03
  CGR           6          0          1   1.517E-03
  CGR           7          0          1   4.309E-04
  CGR           8          0          1   1.355E-04
  CGR           9          0          1   4.455E-05
  CGR          10          0          1   1.210E-05
  CGR          11          0          1   4.760E-06
  CGR          12          0          1   1.473E-06
  CGR          13          1          0   6.851E-07

    CGRSolver converged.

  ==> DFCorrGrad: Density-Fitted Correlated Gradients <==

    OpenMP threads:              8
    Integrals threads:           8
    Memory (MB):              3576
    Schwarz Cutoff:          0E+00
    Fitting Condition:       1E-12

   => Auxiliary Basis Set <=

  Basis Set: (AUG-CC-PVTZ AUX)
    Blend: AUG-CC-PVTZ-JKFIT
    Number of shells: 532
    Number of basis function: 1824
    Number of Cartesian functions: 2274
    Spherical Harmonics?: true
    Max angular momentum: 4

	-----------------------------------------------------------
	 ==================> DF-MP2 Energies <==================== 
	-----------------------------------------------------------
	 Reference Energy          =    -650.1732303819122762 [Eh]
	 Singles Energy            =      -0.0000000000000002 [Eh]
	 Same-Spin Energy          =      -0.6775088128728950 [Eh]
	 Opposite-Spin Energy      =      -2.0193199514839884 [Eh]
	 Correlation Energy        =      -2.6968287643568836 [Eh]
	 Total Energy              =    -652.8700591462691136 [Eh]
	-----------------------------------------------------------
	 ================> DF-SCS-MP2 Energies <================== 
	-----------------------------------------------------------
	 SCS Same-Spin Scale       =       0.3333333333333333 [-]
	 SCS Opposite-Spin Scale   =       1.2000000000000000 [-]
	 SCS Same-Spin Energy      =      -0.2258362709576316 [Eh]
	 SCS Opposite-Spin Energy  =      -2.4231839417807861 [Eh]
	 SCS Correlation Energy    =      -2.6490202127384177 [Eh]
	 SCS Total Energy          =    -652.8222505946506544 [Eh]
	-----------------------------------------------------------


  -Total Gradient:
     Atom            X                  Y                   Z
    ------   -----------------  -----------------  -----------------
       1        0.010446185913    -0.002156873258    -0.011131924591
       2       -0.005573408509     0.003566583803     0.004314380768
       3       -0.007277777782    -0.000995594231     0.002992983476
       4       -0.003819747531     0.005891433856     0.003656911832
       5       -0.002562720339     0.000518235679    -0.006685104932
       6       -0.014028984026    -0.001013984609     0.002647662702
       7       -0.003120642042     0.009510520091     0.008714743092
       8       -0.001025892992     0.000481041183    -0.001996147453
       9       -0.001473057927     0.000943699974    -0.000549556161
      10        0.000222705255     0.002041334111     0.013450642022
      11        0.022604623577    -0.016572178850     0.006087574923
      12        0.013541449579    -0.006714141865    -0.008423064396
      13        0.002140980519     0.001861725408    -0.006660879797
      14        0.002599166478    -0.000766029948     0.002656533972
      15       -0.003191733992     0.001495344222    -0.006065941619
      16       -0.003182008382     0.001182714020    -0.003399827697
      17       -0.003136879440    -0.002579619233    -0.002783393743
      18        0.002905716039     0.003642528580     0.002792472643
      19        0.000756059752    -0.000011947499     0.005537326055
      20        0.000385038859    -0.001760713319    -0.001989880394
      21        0.002504673777     0.000173397686     0.000080055015
      22       -0.009713746795     0.001262524198    -0.003245565705


*** tstop() called on gpu-2-10.local at Sun Nov 12 00:03:30 2017
Module time:
	user time   =    6117.06 seconds =     101.95 minutes
	system time =     149.14 seconds =       2.49 minutes
	total time  =       2823 seconds =      47.05 minutes
Total time:
	user time   =    6117.06 seconds =     101.95 minutes
	system time =     149.14 seconds =       2.49 minutes
	total time  =       2823 seconds =      47.05 minutes

			-----------------------------------------
			 OPTKING 2.0: for geometry optimizations 
			  - R.A. King,  Bethel University        
			-----------------------------------------

	Internal coordinates to be generated automatically.
	Detected frag 1 with atoms:  1 2 3 4 5 6 7 8 9 10 11 12 13 14 15 16 17 18 19 20
	 21 22
	---Fragment 1 Bond Connectivity---
	 1 : 2 8 15
	 2 : 1 10 16
	 3 : 6 9 17
	 4 : 7 9 18
	 5 : 10 11 19
	 6 : 3 12 20
	 7 : 4 12 21
	 8 : 1 9 11
	 9 : 3 4 8
	 10 : 2 5 13
	 11 : 5 8 14
	 12 : 6 7
	 13 : 10 22
	 14 : 11
	 15 : 1
	 16 : 2
	 17 : 3
	 18 : 4
	 19 : 5
	 20 : 6
	 21 : 7
	 22 : 13

	Assuming in current code that numbering for constraints corresponds to unified fragment.
	Fixed dihedral atom list: 
	     2    10    13    22
	---Fragment 1 Geometry and Gradient---
	 C          -2.4891805743        1.4242267214       -1.4949806743
	 C          -4.5263053455        2.5070397955       -0.2231949869
	 C           1.1768881235       -2.7955317333       -3.1503807667
	 C           4.0171465013        0.0692930841       -1.0584539376
	 C          -2.6498072956        1.3429684977        3.7735757841
	 C           3.2593663220       -3.8027557622       -4.3768130270
	 C           5.9730130488       -1.0664323217       -2.3774827784
	 C          -0.5314243006        0.2998396723       -0.1343778587
	 C           1.5793997898       -0.8226576506       -1.4628553301
	 C          -4.6075635692        2.4673555468        2.4110832423
	 C          -0.6126825243        0.2601554235        2.4999003706
	 N           5.6555390585       -2.9863940728       -4.0328828708
	 O          -6.5974451872        3.5256021812        3.6526333116
	 F           1.2543668950       -0.8132090199        3.8359367465
	 H          -2.4532757777        1.4695801486       -3.5491129808
	 H          -6.0475348825        3.3782035428       -1.2946697043
	 H          -0.6977202003       -3.5400838297       -3.5188773627
	 H           4.4026506324        1.6056404302        0.2454570940
	 H          -2.7027196273        1.3051739750        5.8258183645
	 H           3.0458272690       -5.3409928343       -5.7147391291
	 H           7.9080926089       -0.4409329718       -2.1261492027
	 H          -7.9863938948        3.8203994579        2.4923414660
	             0.0104461859       -0.0021568733       -0.0111319246
	            -0.0055734085        0.0035665838        0.0043143808
	            -0.0072777778       -0.0009955942        0.0029929835
	            -0.0038197475        0.0058914339        0.0036569118
	            -0.0025627203        0.0005182357       -0.0066851049
	            -0.0140289840       -0.0010139846        0.0026476627
	            -0.0031206420        0.0095105201        0.0087147431
	            -0.0010258930        0.0004810412       -0.0019961475
	            -0.0014730579        0.0009437000       -0.0005495562
	             0.0002227053        0.0020413341        0.0134506420
	             0.0226046236       -0.0165721789        0.0060875749
	             0.0135414496       -0.0067141419       -0.0084230644
	             0.0021409805        0.0018617254       -0.0066608798
	             0.0025991665       -0.0007660299        0.0026565340
	            -0.0031917340        0.0014953442       -0.0060659416
	            -0.0031820084        0.0011827140       -0.0033998277
	            -0.0031368794       -0.0025796192       -0.0027833937
	             0.0029057160        0.0036425286        0.0027924726
	             0.0007560598       -0.0000119475        0.0055373261
	             0.0003850389       -0.0017607133       -0.0019898804
	             0.0025046738        0.0001733977        0.0000800550
	            -0.0097137468        0.0012625242       -0.0032455657

	Previous optimization step data not found.  Starting new optimization.

	---Fragment 1 Intrafragment Coordinates---
	 - Coordinate -           - BOHR/RAD -       - ANG/DEG -
	 R(1,2)           =         2.634350	       1.394038
	 R(1,8)           =         2.635962	       1.394891
	 R(1,15)          =         2.054947	       1.087431
	 R(2,10)          =         2.635830	       1.394821
	 R(2,16)          =         2.054537	       1.087214
	 R(3,6)           =         2.618273	       1.385530
	 R(3,9)           =         2.627164	       1.390235
	 R(3,17)          =         2.050440	       1.085046
	 R(4,7)           =         2.618229	       1.385507
	 R(4,9)           =         2.627114	       1.390209
	 R(4,18)          =         2.051624	       1.085673
	 R(5,10)          =         2.636938	       1.395407
	 R(5,11)          =         2.635263	       1.394521
	 R(5,19)          =         2.053272	       1.086545
	 R(6,12)          =         2.554678	       1.351877
	 R(6,20)          =         2.049834	       1.084725
	 R(7,12)          =         2.554876	       1.351982
	 R(7,21)          =         2.049134	       1.084355
	 R(8,9)           =         2.735038	       1.447320
	 R(8,11)          =         2.635830	       1.394821
	 R(10,13)         =         2.573123	       1.361638
	 R(11,14)         =         2.534359	       1.341125
	 R(13,22)         =         1.833674	       0.970339
	 B(1,2,10)        =         2.094553	     120.009056
	 B(1,2,16)        =         2.088723	     119.675016
	 B(1,8,9)         =         2.091569	     119.838095
	 B(1,8,11)        =         2.093692	     119.959722
	 B(2,1,8)         =         2.094940	     120.031219
	 B(2,1,15)        =         2.079469	     119.144799
	 B(2,10,5)        =         2.094306	     119.994870
	 B(2,10,13)       =         2.094247	     119.991510
	 B(3,6,12)        =         2.165211	     124.057445
	 B(3,6,20)        =         2.107791	     120.767548
	 B(3,9,4)         =         2.089790	     119.736135
	 B(3,9,8)         =         2.096656	     120.129524
	 B(4,7,12)        =         2.164668	     124.026364
	 B(4,7,21)        =         2.107421	     120.746344
	 B(4,9,8)         =         2.096739	     120.134309
	 B(5,10,13)       =         2.094633	     120.013619
	 B(5,11,8)        =         2.095181	     120.045019
	 B(5,11,14)       =         2.081414	     119.256220
	 B(6,3,9)         =         2.057714	     117.898335
	 B(6,3,17)        =         2.098197	     120.217854
	 B(6,12,7)        =         2.030771	     116.354583
	 B(7,4,9)         =         2.058217	     117.927126
	 B(7,4,18)        =         2.099769	     120.307895
	 B(8,1,15)        =         2.108776	     120.823969
	 B(8,11,14)       =         2.106591	     120.698759
	 B(9,3,17)        =         2.127271	     121.883627
	 B(9,4,18)        =         2.125200	     121.764971
	 B(9,8,11)        =         2.097924	     120.202184
	 B(10,2,16)       =         2.099909	     120.315896
	 B(10,5,11)       =         2.093699	     119.960108
	 B(10,5,19)       =         2.100355	     120.341451
	 B(10,13,22)      =         1.924718	     110.278192
	 B(11,5,19)       =         2.089132	     119.698439
	 B(12,6,20)       =         2.010181	     115.174900
	 B(12,7,21)       =         2.011095	     115.227270
	 D(1,2,10,5)      =        -0.000325	      -0.018609
	 D(1,2,10,13)     =         3.141388	     179.988267
	 D(1,8,9,3)       =        -1.047732	     -60.030615
	 D(1,8,9,4)       =         2.092736	     119.904915
	 D(1,8,11,5)      =         0.000325	       0.018608
	 D(1,8,11,14)     =        -3.141528	    -179.996269
	 D(2,1,8,9)       =         3.141277	     179.981897
	 D(2,1,8,11)      =        -0.000348	      -0.019945
	 D(2,10,5,11)     =         0.000301	       0.017261
	 D(2,10,5,19)     =        -3.141029	    -179.967685
	 D(2,10,13,22)    =         0.261927	      15.007284
	 D(3,6,12,7)      =         0.000000	       0.000000
	 D(3,9,4,7)       =        -0.000043	      -0.002444
	 D(3,9,4,18)      =        -3.141070	    -179.970061
	 D(3,9,8,11)      =         2.093893	     119.971231
	 D(4,7,12,6)      =        -0.000490	      -0.028079
	 D(4,9,3,6)       =        -0.000394	      -0.022595
	 D(4,9,3,17)      =        -3.139269	    -179.866889
	 D(4,9,8,11)      =        -1.048825	     -60.093239
	 D(5,10,2,16)     =         3.140149	     179.917291
	 D(5,10,13,22)    =        -2.879546	    -164.985839
	 D(5,11,8,9)      =        -3.141300	    -179.983240
	 D(6,3,9,8)       =         3.140078	     179.913192
	 D(6,12,7,21)     =         3.140154	     179.917593
	 D(7,4,9,8)       =        -3.140515	    -179.938228
	 D(7,12,6,20)     =         3.139530	     179.881843
	 D(8,1,2,10)      =         0.000348	       0.019955
	 D(8,1,2,16)      =        -3.140133	    -179.916358
	 D(8,9,3,17)      =         0.001202	       0.068898
	 D(8,9,4,18)      =         0.001643	       0.094154
	 D(8,11,5,10)     =        -0.000301	      -0.017270
	 D(8,11,5,19)     =         3.141030	     179.967774
	 D(9,3,6,12)      =         0.000430	       0.024638
	 D(9,3,6,20)      =        -3.138988	    -179.850775
	 D(9,4,7,12)      =         0.000513	       0.029399
	 D(9,4,7,21)      =        -3.140081	    -179.913416
	 D(9,8,1,15)      =         0.000403	       0.023110
	 D(9,8,11,14)     =         0.000033	       0.001883
	 D(10,2,1,15)     =         3.141234	     179.979432
	 D(10,5,11,14)    =         3.141547	     179.997392
	 D(11,5,10,13)    =        -3.141411	    -179.989616
	 D(11,8,1,15)     =        -3.141221	    -179.978731
	 D(12,6,3,17)     =         3.139352	     179.871634
	 D(12,7,4,18)     =         3.141549	     179.997508
	 D(13,10,2,16)    =        -0.001324	      -0.075833
	 D(13,10,5,19)    =         0.000444	       0.025437
	 D(14,11,5,19)    =        -0.000307	      -0.017564
	 D(15,1,2,16)     =         0.000753	       0.043120
	 D(17,3,6,20)     =        -0.000066	      -0.003779
	 D(18,4,7,21)     =         0.000955	       0.054693
	 R(4,14)          =         5.689185	       3.010587

	Current energy   :      -652.8700591463

	Generating empirical Hessian (Schlegel '84) for each fragment.
	Adding user-defined constraint: Fragment 1; Coordinate 69:
		Value =     0.261927; Fixed value    =     0.261799
		Force =    -0.000064; Force constant =     0.500000
	Removing off-diagonal coupling between coordinate 69 and others.
	Taking RFO optimization step.
	Going to follow RFO solution 1.
	Using RFO vector 1.

	Determining step-restricting scale parameter for RS-RFO.
	Maximum step size allowed    0.10000

	 Iter      |step|        alpha        rfo_root  
	------------------------------------------------
	    0     0.23493       1.00000           1
	    1     0.17518       4.10978           1
	    2     0.13750      12.34134           1
	    3     0.11289      26.63630           1
	    4     0.10218      37.49873           1
	    5     0.10008      40.14547           1
	    6     0.10000      40.24959           1
	------------------------------------------------
	Norm of target step-size    0.10000
	Projected energy change by RFO approximation:        -0.0049506189

	Back-transformation to cartesian coordinates...
	The INTCO_EXCEPTion handler:
	TORS::compute_val: unable to compute torsion value
	Dynamic level is 0.
	exc.g_really_quit() is 0.

  **** Optimization has failed! (in 1 steps) ****
			--------------------------
			 OPTKING Finished Execution 
			--------------------------
	Cleaning optimization helper files.

*** Psi4 exiting successfully. Buy a developer a beer!
