
    -----------------------------------------------------------------------
          Psi4: An Open-Source Ab Initio Electronic Structure Package
                               Psi4 1.1 release

                         Git: Rev {HEAD} add49b9 


    R. M. Parrish, L. A. Burns, D. G. A. Smith, A. C. Simmonett,
    A. E. DePrince III, E. G. Hohenstein, U. Bozkaya, A. Yu. Sokolov,
    R. Di Remigio, R. M. Richard, J. F. Gonthier, A. M. James,
    H. R. McAlexander, A. Kumar, M. Saitow, X. Wang, B. P. Pritchard,
    P. Verma, H. F. Schaefer III, K. Patkowski, R. A. King, E. F. Valeev,
    F. A. Evangelista, J. M. Turney, T. D. Crawford, and C. D. Sherrill,
    J. Chem. Theory Comput. in press (2017).
    (doi: 10.1021/acs.jctc.7b00174)

    -----------------------------------------------------------------------


    Psi4 started on: Sunday, 12 November 2017 11:21AM

    Process ID:  27143
    PSIDATADIR: /cbio/jclab/home/chayas/anaconda/envs/py35/share/psi4
    Memory:     500.0 MiB
    Threads:    8
    
  ==> Input File <==

--------------------------------------------------------------------------

memory 5 Gb

molecule phepyrOH_neutral {
  symmetry C1
  0 1 
  C      1.885   -1.036   -0.112
  C      2.878   -1.652   2.002
  C      0.807   -0.463   0.561
  C      1.800   -1.079   2.676
  C      5.298   -2.251   0.501
  C      3.861   -2.774   -1.355
  C      6.336   -2.833   -0.208
  C      4.963   -3.332   -1.982
  C      2.921   -1.631   0.608
  C      4.040   -2.225   -0.090
  C      0.764   -0.484   1.955
  N      6.201   -3.377   -1.439
  O      -0.288   0.076   2.612
  H      1.904   -1.012   -1.199
  H      3.678   -2.112   2.578
  H      0.003   -0.001   -0.006
  H      1.772   -1.098   3.762
  H      5.476   -1.834   1.487
  H      2.894   -2.771   -1.848
  H      7.336   -2.881   0.210
  H      4.876   -3.773   -2.969
  H      -0.175   -0.018   3.571
  units Angstrom
}

dih_string = "1 9 10 5 150"
set optking fixed_dihedral = $dih_string

optimize('MP2/aug-cc-PVTZ')
--------------------------------------------------------------------------

  Memory set to   4.657 GiB by Python driver.
gradient() will perform analytic gradient computation.

*** tstart() called on gpu-2-7.local
*** at Sun Nov 12 11:21:34 2017

    SCF Algorithm Type (re)set to DF.

*** tstart() called on gpu-2-7.local
*** at Sun Nov 12 11:21:34 2017

   => Loading Basis Set <=

    Name: AUG-CC-PVTZ
    Role: ORBITAL
    Keyword: BASIS
    atoms 1-11  entry C          line   221 file /cbio/jclab/home/chayas/anaconda/envs/py35/share/psi4/basis/aug-cc-pvtz.gbs 
    atoms 12    entry N          line   267 file /cbio/jclab/home/chayas/anaconda/envs/py35/share/psi4/basis/aug-cc-pvtz.gbs 
    atoms 13    entry O          line   313 file /cbio/jclab/home/chayas/anaconda/envs/py35/share/psi4/basis/aug-cc-pvtz.gbs 
    atoms 14-22 entry H          line    34 file /cbio/jclab/home/chayas/anaconda/envs/py35/share/psi4/basis/aug-cc-pvtz.gbs 


         ---------------------------------------------------------
                                   SCF
            by Justin Turney, Rob Parrish, and Andy Simmonett
                              RHF Reference
                        8 Threads,   4768 MiB Core
         ---------------------------------------------------------

  ==> Geometry <==

    Molecular point group: c1
    Full point group: C1

    Geometry (in Angstrom), charge = 0, multiplicity = 1:

       Center              X                  Y                   Z               Mass       
    ------------   -----------------  -----------------  -----------------  -----------------
           C         -1.253181785895     0.710751773546    -0.590931219671    12.000000000000
           C         -0.260181785895     0.094751773546     1.523068780329    12.000000000000
           C         -2.331181785895     1.283751773546     0.082068780329    12.000000000000
           C         -1.338181785895     0.667751773546     2.197068780329    12.000000000000
           C          2.159818214105    -0.504248226454     0.022068780329    12.000000000000
           C          0.722818214105    -1.027248226454    -1.833931219671    12.000000000000
           C          3.197818214105    -1.086248226454    -0.686931219671    12.000000000000
           C          1.824818214105    -1.585248226454    -2.460931219671    12.000000000000
           C         -0.217181785895     0.115751773546     0.129068780329    12.000000000000
           C          0.901818214105    -0.478248226454    -0.568931219671    12.000000000000
           C         -2.374181785895     1.262751773546     1.476068780329    12.000000000000
           N          3.062818214105    -1.630248226454    -1.917931219671    14.003074004780
           O         -3.426181785895     1.822751773546     2.133068780329    15.994914619560
           H         -1.234181785895     0.734751773546    -1.677931219671     1.007825032070
           H          0.539818214105    -0.365248226454     2.099068780329     1.007825032070
           H         -3.135181785895     1.745751773546    -0.484931219671     1.007825032070
           H         -1.366181785895     0.648751773546     3.283068780329     1.007825032070
           H          2.337818214105    -0.087248226454     1.008068780329     1.007825032070
           H         -0.244181785895    -1.024248226454    -2.326931219671     1.007825032070
           H          4.197818214105    -1.134248226454    -0.268931219671     1.007825032070
           H          1.737818214105    -2.026248226454    -3.447931219671     1.007825032070
           H         -3.313181785895     1.728751773546     3.092068780329     1.007825032070

  Running in c1 symmetry.

  Rotational constants: A =      0.09693  B =      0.01355  C =      0.01208 [cm^-1]
  Rotational constants: A =   2905.98537  B =    406.13092  C =    362.28704 [MHz]
  Nuclear repulsion =  698.574846786081366

  Charge       = 0
  Multiplicity = 1
  Electrons    = 90
  Nalpha       = 45
  Nbeta        = 45

  ==> Algorithm <==

  SCF Algorithm Type is DF.
  DIIS enabled.
  MOM disabled.
  Fractional occupation disabled.
  Guess Type is SAD.
  Energy threshold   = 1.00e-10
  Density threshold  = 1.00e-10
  Integral threshold = 0.00e+00

  ==> Primary Basis <==

  Basis Set: AUG-CC-PVTZ
    Blend: AUG-CC-PVTZ
    Number of shells: 263
    Number of basis function: 805
    Number of Cartesian functions: 940
    Spherical Harmonics?: true
    Max angular momentum: 3

   => Loading Basis Set <=

    Name: (AUG-CC-PVTZ AUX)
    Role: JKFIT
    Keyword: DF_BASIS_SCF
    atoms 1-11  entry C          line   161 file /cbio/jclab/home/chayas/anaconda/envs/py35/share/psi4/basis/aug-cc-pvtz-jkfit.gbs 
    atoms 12    entry N          line   223 file /cbio/jclab/home/chayas/anaconda/envs/py35/share/psi4/basis/aug-cc-pvtz-jkfit.gbs 
    atoms 13    entry O          line   285 file /cbio/jclab/home/chayas/anaconda/envs/py35/share/psi4/basis/aug-cc-pvtz-jkfit.gbs 
    atoms 14-22 entry H          line    69 file /cbio/jclab/home/chayas/anaconda/envs/py35/share/psi4/basis/aug-cc-pvtz-jkfit.gbs 

  ==> Pre-Iterations <==

   -------------------------------------------------------
    Irrep   Nso     Nmo     Nalpha   Nbeta   Ndocc  Nsocc
   -------------------------------------------------------
     A        805     805       0       0       0       0
   -------------------------------------------------------
    Total     805     805      45      45      45       0
   -------------------------------------------------------

  ==> Integral Setup <==

  ==> DFJK: Density-Fitted J/K Matrices <==

    J tasked:                  Yes
    K tasked:                  Yes
    wK tasked:                  No
    OpenMP threads:              8
    Integrals threads:           8
    Memory (MB):              3576
    Algorithm:                Disk
    Integral Cache:           NONE
    Schwarz Cutoff:          1E-12
    Fitting Condition:       1E-12

   => Auxiliary Basis Set <=

  Basis Set: (AUG-CC-PVTZ AUX)
    Blend: AUG-CC-PVTZ-JKFIT
    Number of shells: 516
    Number of basis function: 1766
    Number of Cartesian functions: 2198
    Spherical Harmonics?: true
    Max angular momentum: 4

  Minimum eigenvalue in the overlap matrix is 5.5082127166E-07.
  Using Symmetric Orthogonalization.

  SCF Guess: Superposition of Atomic Densities via on-the-fly atomic UHF.

  ==> Iterations <==

                           Total Energy        Delta E     RMS |[F,P]|

   @DF-RHF iter   0:  -556.89252687939677   -5.56893e+02   1.94437e-02 
   @DF-RHF iter   1:  -550.90652221526943    5.98600e+00   1.91512e-03 
   @DF-RHF iter   2:  -551.22127253523695   -3.14750e-01   7.93554e-04 DIIS
   @DF-RHF iter   3:  -551.26913673387594   -4.78642e-02   4.32461e-04 DIIS
   @DF-RHF iter   4:  -551.28341941350459   -1.42827e-02   1.30541e-04 DIIS
   @DF-RHF iter   5:  -551.28503606203253   -1.61665e-03   5.03825e-05 DIIS
   @DF-RHF iter   6:  -551.28534147130085   -3.05409e-04   1.74037e-05 DIIS
   @DF-RHF iter   7:  -551.28538108918713   -3.96179e-05   4.85677e-06 DIIS
   @DF-RHF iter   8:  -551.28538433370238   -3.24452e-06   1.47224e-06 DIIS
   @DF-RHF iter   9:  -551.28538459959771   -2.65895e-07   6.02327e-07 DIIS
   @DF-RHF iter  10:  -551.28538465377551   -5.41778e-08   2.94846e-07 DIIS
   @DF-RHF iter  11:  -551.28538467117914   -1.74036e-08   1.03881e-07 DIIS
   @DF-RHF iter  12:  -551.28538467510089   -3.92174e-09   4.89798e-08 DIIS
   @DF-RHF iter  13:  -551.28538467559724   -4.96357e-10   1.47474e-08 DIIS
   @DF-RHF iter  14:  -551.28538467567341   -7.61702e-11   6.92381e-09 DIIS
   @DF-RHF iter  15:  -551.28538467567500   -1.59162e-12   3.08426e-09 DIIS
   @DF-RHF iter  16:  -551.28538467568603   -1.10276e-11   1.36279e-09 DIIS
   @DF-RHF iter  17:  -551.28538467567898    7.04858e-12   7.48466e-10 DIIS
   @DF-RHF iter  18:  -551.28538467567819    7.95808e-13   2.36628e-10 DIIS
   @DF-RHF iter  19:  -551.28538467566591    1.22782e-11   1.06573e-10 DIIS
   @DF-RHF iter  20:  -551.28538467567728   -1.13687e-11   5.30971e-11 DIIS

  ==> Post-Iterations <==

    Orbital Energies (a.u.)
    -----------------------

    Doubly Occupied:                                                      

       1A    -20.601588     2A    -15.561184     3A    -11.316643  
       4A    -11.273734     5A    -11.273605     6A    -11.262835  
       7A    -11.255390     8A    -11.254103     9A    -11.246179  
      10A    -11.244193    11A    -11.242696    12A    -11.235561  
      13A    -11.235448    14A     -1.416746    15A     -1.247664  
      16A     -1.174245    17A     -1.103971    18A     -1.039550  
      19A     -1.028510    20A     -1.009603    21A     -0.882078  
      22A     -0.873440    23A     -0.838971    24A     -0.810602  
      25A     -0.749156    26A     -0.725069    27A     -0.684468  
      28A     -0.665098    29A     -0.650189    30A     -0.632493  
      31A     -0.614070    32A     -0.608717    33A     -0.602638  
      34A     -0.592146    35A     -0.575515    36A     -0.543155  
      37A     -0.530581    38A     -0.522839    39A     -0.501825  
      40A     -0.494794    41A     -0.417130    42A     -0.395548  
      43A     -0.355998    44A     -0.348719    45A     -0.305845  

    Virtual:                                                              

      46A      0.021336    47A      0.029595    48A      0.032096  
      49A      0.039635    50A      0.042753    51A      0.045213  
      52A      0.054993    53A      0.057099    54A      0.063529  
      55A      0.077410    56A      0.078608    57A      0.083996  
      58A      0.087925    59A      0.093497    60A      0.096925  
      61A      0.102295    62A      0.103783    63A      0.108405  
      64A      0.109729    65A      0.111623    66A      0.114886  
      67A      0.119323    68A      0.121735    69A      0.127184  
      70A      0.129885    71A      0.132715    72A      0.134630  
      73A      0.137182    74A      0.143638    75A      0.146173  
      76A      0.149167    77A      0.150181    78A      0.154100  
      79A      0.160207    80A      0.164639    81A      0.168176  
      82A      0.173813    83A      0.176717    84A      0.182660  
      85A      0.184592    86A      0.187035    87A      0.201055  
      88A      0.204198    89A      0.214589    90A      0.216231  
      91A      0.222194    92A      0.222952    93A      0.226093  
      94A      0.236742    95A      0.240331    96A      0.242232  
      97A      0.246385    98A      0.250308    99A      0.252774  
     100A      0.256060   101A      0.257220   102A      0.263545  
     103A      0.266084   104A      0.272874   105A      0.274400  
     106A      0.277412   107A      0.285515   108A      0.289155  
     109A      0.291007   110A      0.298400   111A      0.300186  
     112A      0.301409   113A      0.307073   114A      0.312184  
     115A      0.316309   116A      0.318277   117A      0.325646  
     118A      0.328218   119A      0.329071   120A      0.333936  
     121A      0.339759   122A      0.344715   123A      0.356035  
     124A      0.357756   125A      0.361897   126A      0.366023  
     127A      0.371712   128A      0.373841   129A      0.386194  
     130A      0.391663   131A      0.396532   132A      0.398370  
     133A      0.403923   134A      0.408636   135A      0.414255  
     136A      0.419021   137A      0.424991   138A      0.428012  
     139A      0.432731   140A      0.434214   141A      0.438426  
     142A      0.439582   143A      0.445919   144A      0.447452  
     145A      0.449029   146A      0.451404   147A      0.457974  
     148A      0.462226   149A      0.464699   150A      0.468010  
     151A      0.471868   152A      0.475956   153A      0.484297  
     154A      0.485988   155A      0.489222   156A      0.491810  
     157A      0.500891   158A      0.501538   159A      0.504190  
     160A      0.508304   161A      0.509488   162A      0.511729  
     163A      0.515039   164A      0.517128   165A      0.521071  
     166A      0.526160   167A      0.529245   168A      0.531544  
     169A      0.534106   170A      0.541303   171A      0.545882  
     172A      0.548608   173A      0.550428   174A      0.555244  
     175A      0.557020   176A      0.565012   177A      0.568247  
     178A      0.579251   179A      0.580462   180A      0.588172  
     181A      0.593965   182A      0.599772   183A      0.605699  
     184A      0.612218   185A      0.614509   186A      0.621367  
     187A      0.627567   188A      0.637597   189A      0.641190  
     190A      0.646549   191A      0.654518   192A      0.659753  
     193A      0.666026   194A      0.679412   195A      0.688018  
     196A      0.691501   197A      0.697033   198A      0.701877  
     199A      0.707076   200A      0.708748   201A      0.716717  
     202A      0.719788   203A      0.730219   204A      0.731560  
     205A      0.733812   206A      0.739517   207A      0.739959  
     208A      0.749486   209A      0.755314   210A      0.764028  
     211A      0.767444   212A      0.772895   213A      0.777536  
     214A      0.798637   215A      0.802710   216A      0.803872  
     217A      0.807720   218A      0.812028   219A      0.816871  
     220A      0.823437   221A      0.829415   222A      0.833672  
     223A      0.837487   224A      0.840041   225A      0.847846  
     226A      0.855510   227A      0.856746   228A      0.866010  
     229A      0.870007   230A      0.876079   231A      0.879516  
     232A      0.883037   233A      0.883648   234A      0.888616  
     235A      0.892534   236A      0.896075   237A      0.907092  
     238A      0.910125   239A      0.911623   240A      0.918440  
     241A      0.927021   242A      0.930201   243A      0.934485  
     244A      0.944025   245A      0.947624   246A      0.952544  
     247A      0.957027   248A      0.963268   249A      0.965146  
     250A      0.970726   251A      0.975070   252A      0.978233  
     253A      0.981824   254A      0.987140   255A      0.990347  
     256A      0.995951   257A      0.998739   258A      1.002800  
     259A      1.014208   260A      1.016931   261A      1.018153  
     262A      1.020314   263A      1.026018   264A      1.031450  
     265A      1.039722   266A      1.041065   267A      1.041541  
     268A      1.047704   269A      1.050008   270A      1.057393  
     271A      1.059321   272A      1.060144   273A      1.070025  
     274A      1.076584   275A      1.078084   276A      1.085911  
     277A      1.089213   278A      1.092099   279A      1.099231  
     280A      1.100545   281A      1.103942   282A      1.106979  
     283A      1.114970   284A      1.116151   285A      1.122800  
     286A      1.123481   287A      1.126337   288A      1.136900  
     289A      1.149775   290A      1.153679   291A      1.159690  
     292A      1.162447   293A      1.166264   294A      1.169478  
     295A      1.173766   296A      1.177899   297A      1.185046  
     298A      1.188855   299A      1.194494   300A      1.202520  
     301A      1.207081   302A      1.208712   303A      1.214123  
     304A      1.219446   305A      1.222061   306A      1.225050  
     307A      1.231546   308A      1.233991   309A      1.245623  
     310A      1.251582   311A      1.257010   312A      1.266334  
     313A      1.274829   314A      1.277971   315A      1.285400  
     316A      1.288634   317A      1.297707   318A      1.299841  
     319A      1.304603   320A      1.312102   321A      1.317516  
     322A      1.326637   323A      1.334501   324A      1.340964  
     325A      1.347290   326A      1.353500   327A      1.358911  
     328A      1.371486   329A      1.378250   330A      1.389066  
     331A      1.393336   332A      1.398161   333A      1.411881  
     334A      1.425419   335A      1.432104   336A      1.442996  
     337A      1.450083   338A      1.453023   339A      1.455187  
     340A      1.463023   341A      1.464548   342A      1.476122  
     343A      1.495083   344A      1.498931   345A      1.504562  
     346A      1.509033   347A      1.515169   348A      1.521684  
     349A      1.528724   350A      1.533704   351A      1.539798  
     352A      1.552291   353A      1.560512   354A      1.575256  
     355A      1.586529   356A      1.591571   357A      1.598798  
     358A      1.607626   359A      1.608564   360A      1.616266  
     361A      1.623381   362A      1.647164   363A      1.654523  
     364A      1.655071   365A      1.660625   366A      1.673296  
     367A      1.678070   368A      1.692244   369A      1.695680  
     370A      1.699216   371A      1.703429   372A      1.711859  
     373A      1.722902   374A      1.727403   375A      1.734003  
     376A      1.740975   377A      1.745460   378A      1.751155  
     379A      1.755497   380A      1.771093   381A      1.776689  
     382A      1.781735   383A      1.795178   384A      1.805125  
     385A      1.815512   386A      1.819221   387A      1.827227  
     388A      1.833858   389A      1.839458   390A      1.842946  
     391A      1.852529   392A      1.862992   393A      1.865558  
     394A      1.868633   395A      1.876101   396A      1.884062  
     397A      1.906426   398A      1.910390   399A      1.919214  
     400A      1.927234   401A      1.942416   402A      1.946584  
     403A      1.953420   404A      1.961046   405A      1.966563  
     406A      1.968906   407A      1.974913   408A      1.982161  
     409A      1.991252   410A      1.998849   411A      2.010005  
     412A      2.019684   413A      2.022259   414A      2.034738  
     415A      2.040146   416A      2.047794   417A      2.054307  
     418A      2.056332   419A      2.065695   420A      2.073358  
     421A      2.079665   422A      2.089758   423A      2.096502  
     424A      2.108444   425A      2.109762   426A      2.119874  
     427A      2.125733   428A      2.131817   429A      2.134856  
     430A      2.139824   431A      2.146926   432A      2.151498  
     433A      2.175649   434A      2.181507   435A      2.187329  
     436A      2.193564   437A      2.195400   438A      2.213192  
     439A      2.222867   440A      2.234267   441A      2.237087  
     442A      2.243372   443A      2.257710   444A      2.266943  
     445A      2.273866   446A      2.294159   447A      2.306222  
     448A      2.312336   449A      2.320197   450A      2.329734  
     451A      2.340057   452A      2.354138   453A      2.362175  
     454A      2.366393   455A      2.377119   456A      2.380678  
     457A      2.400149   458A      2.402206   459A      2.407598  
     460A      2.414688   461A      2.418801   462A      2.433244  
     463A      2.452933   464A      2.457843   465A      2.477173  
     466A      2.485097   467A      2.509001   468A      2.509387  
     469A      2.525632   470A      2.533386   471A      2.549588  
     472A      2.560064   473A      2.567229   474A      2.572233  
     475A      2.582064   476A      2.585874   477A      2.604492  
     478A      2.608554   479A      2.616351   480A      2.645406  
     481A      2.648422   482A      2.657561   483A      2.685149  
     484A      2.715439   485A      2.724875   486A      2.751446  
     487A      2.762807   488A      2.776304   489A      2.806408  
     490A      2.814570   491A      2.820496   492A      2.836201  
     493A      2.856271   494A      2.865716   495A      2.867731  
     496A      2.885264   497A      2.896170   498A      2.899974  
     499A      2.940808   500A      2.952823   501A      2.993137  
     502A      3.002627   503A      3.015165   504A      3.062363  
     505A      3.068046   506A      3.085045   507A      3.104624  
     508A      3.120708   509A      3.151540   510A      3.165292  
     511A      3.194537   512A      3.212567   513A      3.229055  
     514A      3.236612   515A      3.240152   516A      3.249236  
     517A      3.278469   518A      3.292343   519A      3.300883  
     520A      3.307070   521A      3.318301   522A      3.336208  
     523A      3.345457   524A      3.358162   525A      3.369389  
     526A      3.375415   527A      3.387379   528A      3.401138  
     529A      3.409393   530A      3.418753   531A      3.426765  
     532A      3.433177   533A      3.441577   534A      3.446596  
     535A      3.460994   536A      3.474831   537A      3.479262  
     538A      3.490904   539A      3.497948   540A      3.516029  
     541A      3.520682   542A      3.528089   543A      3.537666  
     544A      3.543440   545A      3.553343   546A      3.558698  
     547A      3.563767   548A      3.577065   549A      3.581860  
     550A      3.586463   551A      3.589863   552A      3.597093  
     553A      3.604969   554A      3.630315   555A      3.640690  
     556A      3.648313   557A      3.654266   558A      3.666764  
     559A      3.673928   560A      3.690244   561A      3.696093  
     562A      3.708668   563A      3.717478   564A      3.731814  
     565A      3.744398   566A      3.757282   567A      3.767876  
     568A      3.779645   569A      3.780531   570A      3.787006  
     571A      3.792747   572A      3.816040   573A      3.819653  
     574A      3.833564   575A      3.837339   576A      3.846307  
     577A      3.856706   578A      3.859908   579A      3.874645  
     580A      3.882465   581A      3.889897   582A      3.895933  
     583A      3.899225   584A      3.913907   585A      3.922118  
     586A      3.935735   587A      3.941476   588A      3.943647  
     589A      3.949138   590A      3.963232   591A      3.969691  
     592A      3.973695   593A      3.987000   594A      3.998593  
     595A      4.005367   596A      4.013059   597A      4.025560  
     598A      4.030544   599A      4.034337   600A      4.037810  
     601A      4.040386   602A      4.058491   603A      4.084156  
     604A      4.095129   605A      4.099604   606A      4.111961  
     607A      4.122333   608A      4.127515   609A      4.140829  
     610A      4.146742   611A      4.150140   612A      4.155788  
     613A      4.170427   614A      4.175647   615A      4.186134  
     616A      4.201610   617A      4.202510   618A      4.213947  
     619A      4.224792   620A      4.233873   621A      4.253673  
     622A      4.255300   623A      4.263062   624A      4.275382  
     625A      4.283492   626A      4.293976   627A      4.305426  
     628A      4.316722   629A      4.326256   630A      4.331556  
     631A      4.339881   632A      4.345194   633A      4.355622  
     634A      4.364454   635A      4.370927   636A      4.388255  
     637A      4.390719   638A      4.401631   639A      4.408242  
     640A      4.414444   641A      4.425893   642A      4.432859  
     643A      4.440126   644A      4.444199   645A      4.452586  
     646A      4.458798   647A      4.466232   648A      4.473437  
     649A      4.495463   650A      4.499599   651A      4.506751  
     652A      4.515447   653A      4.524528   654A      4.528323  
     655A      4.535792   656A      4.557584   657A      4.574292  
     658A      4.589458   659A      4.601404   660A      4.619556  
     661A      4.636730   662A      4.644000   663A      4.668848  
     664A      4.680794   665A      4.686398   666A      4.695041  
     667A      4.704527   668A      4.723330   669A      4.734317  
     670A      4.748026   671A      4.771101   672A      4.784671  
     673A      4.800095   674A      4.808838   675A      4.824654  
     676A      4.844389   677A      4.868828   678A      4.873270  
     679A      4.885679   680A      4.898225   681A      4.914624  
     682A      4.932719   683A      4.944037   684A      4.948487  
     685A      4.954157   686A      4.964706   687A      4.984793  
     688A      4.994437   689A      5.011268   690A      5.026700  
     691A      5.033338   692A      5.046418   693A      5.050107  
     694A      5.057004   695A      5.078817   696A      5.096949  
     697A      5.098686   698A      5.112944   699A      5.122858  
     700A      5.136552   701A      5.145880   702A      5.147149  
     703A      5.163086   704A      5.166444   705A      5.172673  
     706A      5.181015   707A      5.211599   708A      5.222721  
     709A      5.233622   710A      5.244225   711A      5.267789  
     712A      5.281938   713A      5.297596   714A      5.304350  
     715A      5.313112   716A      5.325581   717A      5.345656  
     718A      5.360639   719A      5.378563   720A      5.398734  
     721A      5.414159   722A      5.422244   723A      5.429723  
     724A      5.443263   725A      5.447608   726A      5.485710  
     727A      5.489851   728A      5.527740   729A      5.545308  
     730A      5.555377   731A      5.561424   732A      5.572158  
     733A      5.625201   734A      5.632073   735A      5.672795  
     736A      5.703649   737A      5.711179   738A      5.715571  
     739A      5.757806   740A      5.764584   741A      5.800496  
     742A      5.826558   743A      5.828060   744A      5.851884  
     745A      5.874484   746A      5.880565   747A      5.915107  
     748A      5.927304   749A      5.986995   750A      6.067421  
     751A      6.086878   752A      6.122525   753A      6.158286  
     754A      6.188126   755A      6.217645   756A      6.267140  
     757A      6.282937   758A      6.333795   759A      6.374266  
     760A      6.407028   761A      6.438470   762A      6.471068  
     763A      6.484131   764A      6.507274   765A      6.527654  
     766A      6.600427   767A      6.627955   768A      6.711283  
     769A      6.715200   770A      6.740312   771A      6.746833  
     772A      6.888415   773A      6.892607   774A      6.901276  
     775A      6.912586   776A      6.944332   777A      6.976285  
     778A      7.002330   779A      7.050300   780A      7.099364  
     781A      7.107662   782A      7.225574   783A      7.259107  
     784A      7.421448   785A      7.424383   786A      7.445183  
     787A      7.685743   788A      7.712586   789A      7.756867  
     790A      8.011524   791A      8.388951   792A      8.638685  
     793A     15.632960   794A     16.395951   795A     16.679414  
     796A     16.763912   797A     16.828580   798A     18.428954  
     799A     18.825236   800A     19.206708   801A     19.585424  
     802A     20.061663   803A     20.086266   804A     20.600634  
     805A     21.826809  

    Final Occupation by Irrep:
              A 
    DOCC [    45 ]

  Energy converged.

  @DF-RHF Final Energy:  -551.28538467567728

   => Energetics <=

    Nuclear Repulsion Energy =            698.5748467860813662
    One-Electron Energy =               -2133.8314007170902187
    Two-Electron Energy =                 883.9711692553316880
    DFT Exchange-Correlation Energy =       0.0000000000000000
    Empirical Dispersion Energy =           0.0000000000000000
    PCM Polarization Energy =               0.0000000000000000
    EFP Energy =                            0.0000000000000000
    Total Energy =                       -551.2853846756772782



Properties will be evaluated at   0.000000,   0.000000,   0.000000 Bohr

Properties computed using the SCF density matrix

  Nuclear Dipole Moment: (a.u.)
     X:    -0.4750      Y:     0.2205      Z:     1.2117

  Electronic Dipole Moment: (a.u.)
     X:    -0.1927      Y:     0.1136      Z:    -0.2040

  Dipole Moment: (a.u.)
     X:    -0.6677      Y:     0.3341      Z:     1.0077     Total:     1.2541

  Dipole Moment: (Debye)
     X:    -1.6972      Y:     0.8492      Z:     2.5612     Total:     3.1877


*** tstop() called on gpu-2-7.local at Sun Nov 12 11:29:12 2017
Module time:
	user time   =    1122.50 seconds =      18.71 minutes
	system time =      49.05 seconds =       0.82 minutes
	total time  =        458 seconds =       7.63 minutes
Total time:
	user time   =    1122.50 seconds =      18.71 minutes
	system time =      49.05 seconds =       0.82 minutes
	total time  =        458 seconds =       7.63 minutes

  //>>>>>>>>>>>>>>>>>>>>>>>>>>>>>>>>>>>//
  //               DFMP2               //
  //<<<<<<<<<<<<<<<<<<<<<<<<<<<<<<<<<<<//

   => Loading Basis Set <=

    Name: (AUG-CC-PVTZ AUX)
    Role: RIFIT
    Keyword: DF_BASIS_MP2
    atoms 1-11  entry C          line   147 file /cbio/jclab/home/chayas/anaconda/envs/py35/share/psi4/basis/aug-cc-pvtz-ri.gbs 
    atoms 12    entry N          line   205 file /cbio/jclab/home/chayas/anaconda/envs/py35/share/psi4/basis/aug-cc-pvtz-ri.gbs 
    atoms 13    entry O          line   263 file /cbio/jclab/home/chayas/anaconda/envs/py35/share/psi4/basis/aug-cc-pvtz-ri.gbs 
    atoms 14-22 entry H          line    29 file /cbio/jclab/home/chayas/anaconda/envs/py35/share/psi4/basis/aug-cc-pvtz-ri.gbs 

	 --------------------------------------------------------
	                          DF-MP2                         
	      2nd-Order Density-Fitted Moller-Plesset Theory     
	              RMP2 Wavefunction,   8 Threads             
	                                                         
	        Rob Parrish, Justin Turney, Andy Simmonett,      
	           Ed Hohenstein, and C. David Sherrill          
	 --------------------------------------------------------

   => Auxiliary Basis Set <=

  Basis Set: (AUG-CC-PVTZ AUX)
    Blend: AUG-CC-PVTZ-RI
    Number of shells: 490
    Number of basis function: 1792
    Number of Cartesian functions: 2263
    Spherical Harmonics?: true
    Max angular momentum: 4

	 --------------------------------------------------------
	                 NBF =   805, NAUX =  1792
	 --------------------------------------------------------
	   CLASS    FOCC     OCC    AOCC    AVIR     VIR    FVIR
	   PAIRS       0      45      45     760     760       0
	 --------------------------------------------------------


         ------------------------------------------------------------
                                     CPHF                           
                                  Rob Parrish                       
         ------------------------------------------------------------

  ==> Geometry <==

    Molecular point group: c1
    Full point group: C1

    Geometry (in Angstrom), charge = 0, multiplicity = 1:

       Center              X                  Y                   Z               Mass       
    ------------   -----------------  -----------------  -----------------  -----------------
           C         -1.253181785895     0.710751773546    -0.590931219671    12.000000000000
           C         -0.260181785895     0.094751773546     1.523068780329    12.000000000000
           C         -2.331181785895     1.283751773546     0.082068780329    12.000000000000
           C         -1.338181785895     0.667751773546     2.197068780329    12.000000000000
           C          2.159818214105    -0.504248226454     0.022068780329    12.000000000000
           C          0.722818214105    -1.027248226454    -1.833931219671    12.000000000000
           C          3.197818214105    -1.086248226454    -0.686931219671    12.000000000000
           C          1.824818214105    -1.585248226454    -2.460931219671    12.000000000000
           C         -0.217181785895     0.115751773546     0.129068780329    12.000000000000
           C          0.901818214105    -0.478248226454    -0.568931219671    12.000000000000
           C         -2.374181785895     1.262751773546     1.476068780329    12.000000000000
           N          3.062818214105    -1.630248226454    -1.917931219671    14.003074004780
           O         -3.426181785895     1.822751773546     2.133068780329    15.994914619560
           H         -1.234181785895     0.734751773546    -1.677931219671     1.007825032070
           H          0.539818214105    -0.365248226454     2.099068780329     1.007825032070
           H         -3.135181785895     1.745751773546    -0.484931219671     1.007825032070
           H         -1.366181785895     0.648751773546     3.283068780329     1.007825032070
           H          2.337818214105    -0.087248226454     1.008068780329     1.007825032070
           H         -0.244181785895    -1.024248226454    -2.326931219671     1.007825032070
           H          4.197818214105    -1.134248226454    -0.268931219671     1.007825032070
           H          1.737818214105    -2.026248226454    -3.447931219671     1.007825032070
           H         -3.313181785895     1.728751773546     3.092068780329     1.007825032070

  Nuclear repulsion =  698.574846786081366
  Reference energy  = -551.285384675677278

  ==> Basis Set <==

  Basis Set: AUG-CC-PVTZ
    Blend: AUG-CC-PVTZ
    Number of shells: 263
    Number of basis function: 805
    Number of Cartesian functions: 940
    Spherical Harmonics?: true
    Max angular momentum: 3

  ==> CGRSolver (by Rob Parrish) <==

   Number of roots    =         1
   Preconditioning    =    JACOBI
   Convergence cutoff =     1E-06
   Maximum iterations =       100

  ==> CPHFRHamiltonian (by Rob Parrish) <== 

  ==> DFJK: Density-Fitted J/K Matrices <==

    J tasked:                  Yes
    K tasked:                  Yes
    wK tasked:                  No
    OpenMP threads:              8
    Integrals threads:           8
    Memory (MB):              3576
    Algorithm:                Disk
    Integral Cache:           NONE
    Schwarz Cutoff:          1E-12
    Fitting Condition:       1E-12

   => Auxiliary Basis Set <=

  Basis Set: (AUG-CC-PVTZ AUX)
    Blend: AUG-CC-PVTZ-JKFIT
    Number of shells: 516
    Number of basis function: 1766
    Number of Cartesian functions: 2198
    Spherical Harmonics?: true
    Max angular momentum: 4

  ==> CPHF Iterations <==

  => Iterations <=

             Iter  Converged  Remaining    Residual
  CGR           1          0          1   9.193E-02
  CGR           2          0          1   3.827E-02
  CGR           3          0          1   2.666E-02
  CGR           4          0          1   1.059E-02
  CGR           5          0          1   4.222E-03
  CGR           6          0          1   1.783E-03
  CGR           7          0          1   5.015E-04
  CGR           8          0          1   1.579E-04
  CGR           9          0          1   7.758E-05
  CGR          10          0          1   3.647E-05
  CGR          11          0          1   1.417E-05
  CGR          12          0          1   5.048E-06
  CGR          13          0          1   1.500E-06
  CGR          14          1          0   4.887E-07

    CGRSolver converged.

  ==> DFCorrGrad: Density-Fitted Correlated Gradients <==

    OpenMP threads:              8
    Integrals threads:           8
    Memory (MB):              3576
    Schwarz Cutoff:          0E+00
    Fitting Condition:       1E-12

   => Auxiliary Basis Set <=

  Basis Set: (AUG-CC-PVTZ AUX)
    Blend: AUG-CC-PVTZ-JKFIT
    Number of shells: 516
    Number of basis function: 1766
    Number of Cartesian functions: 2198
    Spherical Harmonics?: true
    Max angular momentum: 4

	-----------------------------------------------------------
	 ==================> DF-MP2 Energies <==================== 
	-----------------------------------------------------------
	 Reference Energy          =    -551.2853846756772782 [Eh]
	 Singles Energy            =      -0.0000000000000001 [Eh]
	 Same-Spin Energy          =      -0.6052665472002431 [Eh]
	 Opposite-Spin Energy      =      -1.8311526158873543 [Eh]
	 Correlation Energy        =      -2.4364191630875975 [Eh]
	 Total Energy              =    -553.7218038387649131 [Eh]
	-----------------------------------------------------------
	 ================> DF-SCS-MP2 Energies <================== 
	-----------------------------------------------------------
	 SCS Same-Spin Scale       =       0.3333333333333333 [-]
	 SCS Opposite-Spin Scale   =       1.2000000000000000 [-]
	 SCS Same-Spin Energy      =      -0.2017555157334144 [Eh]
	 SCS Opposite-Spin Energy  =      -2.1973831390648253 [Eh]
	 SCS Correlation Energy    =      -2.3991386547982398 [Eh]
	 SCS Total Energy          =    -553.6845233304754856 [Eh]
	-----------------------------------------------------------


  -Total Gradient:
     Atom            X                  Y                   Z
    ------   -----------------  -----------------  -----------------
       1        0.009438938605    -0.002691574252    -0.009678847502
       2        0.008480759876    -0.006916033012    -0.005285451455
       3        0.001807556793    -0.000552807329     0.002665850950
       4       -0.006994659797     0.003344252135     0.007031857700
       5       -0.005043463731     0.006424677352     0.007096899011
       6       -0.010241221872     0.001536614781     0.002339476710
       7       -0.003400488352     0.007067567570     0.011162377930
       8       -0.013316550807     0.002081971319    -0.001020922113
       9        0.002326963918    -0.001295475900    -0.001917157739
      10        0.004378711926    -0.002044735270    -0.002614440669
      11       -0.006961646774     0.003992260377    -0.008210417681
      12        0.013223867546    -0.007175905551    -0.008237617557
      13        0.005626957806    -0.003057003530     0.000668544338
      14       -0.001037211688    -0.001263613475    -0.006638520102
      15        0.005280081935    -0.000983528183     0.004314583860
      16       -0.002884097587     0.001372581744    -0.005226819087
      17        0.001022221045    -0.000352423365     0.003720242662
      18        0.001152536078     0.000271563277     0.005615064331
      19       -0.004293010888     0.001342611120    -0.003736846688
      20        0.002566560591    -0.000793525304     0.000578145419
      21        0.000519496210    -0.000891124842    -0.002259653615
      22       -0.001652300835     0.000583650346     0.009633651298


*** tstop() called on gpu-2-7.local at Sun Nov 12 12:00:12 2017
Module time:
	user time   =    5185.49 seconds =      86.42 minutes
	system time =     106.00 seconds =       1.77 minutes
	total time  =       2318 seconds =      38.63 minutes
Total time:
	user time   =    5185.49 seconds =      86.42 minutes
	system time =     106.00 seconds =       1.77 minutes
	total time  =       2318 seconds =      38.63 minutes

			-----------------------------------------
			 OPTKING 2.0: for geometry optimizations 
			  - R.A. King,  Bethel University        
			-----------------------------------------

	Internal coordinates to be generated automatically.
	Detected frag 1 with atoms:  1 2 3 4 5 6 7 8 9 10 11 12 13 14 15 16 17 18 19 20
	 21 22
	---Fragment 1 Bond Connectivity---
	 1 : 3 9 14
	 2 : 4 9 15
	 3 : 1 11 16
	 4 : 2 11 17
	 5 : 7 10 18
	 6 : 8 10 19
	 7 : 5 12 20
	 8 : 6 12 21
	 9 : 1 2 10
	 10 : 5 6 9
	 11 : 3 4 13
	 12 : 7 8
	 13 : 11 22
	 14 : 1
	 15 : 2
	 16 : 3
	 17 : 4
	 18 : 5
	 19 : 6
	 20 : 7
	 21 : 8
	 22 : 13

	Assuming in current code that numbering for constraints corresponds to unified fragment.
	Fixed dihedral atom list: 
	     1     9    10     5
	---Fragment 1 Geometry and Gradient---
	 C          -2.3681703701        1.3431262005       -1.1166981686
	 C          -0.4916723201        0.1790549026        2.8781828764
	 C          -4.4052951413        2.4259392746        0.1550875189
	 C          -2.5287970914        1.2618679768        4.1518582899
	 C           4.0814649215       -0.9528910510        0.0417039509
	 C           1.3659284685       -1.9412178185       -3.4656277517
	 C           6.0430006474       -2.0527116603       -1.2981118773
	 C           3.4484066670       -2.9956850006       -4.6504860370
	 C          -0.4104140964        0.2187391514        0.2439046471
	 C           1.7041894463       -0.9037581715       -1.0751241936
	 C          -4.4865533650        2.3862550258        2.7893657481
	 N           5.7878876195       -3.0807226766       -3.6243647469
	 O          -6.4745452568        3.4445016602        4.0309158174
	 H          -2.3322655735        1.3884796277       -3.1708304750
	 H           1.0201085862       -0.6902191185        3.9666651289
	 H          -5.9246349522        3.2989927480       -0.9163871985
	 H          -2.5817094231        1.2259631802        6.2041008702
	 H           4.4178361731       -0.1648752536        1.9049739179
	 H          -0.4614367020       -1.9355486401       -4.3972627352
	 H           7.9327267803       -2.1434185147       -0.5082063538
	 H           3.2840004934       -3.8290542252       -6.5156457302
	 H          -6.2610062038        3.2668674037        5.8431631789
	             0.0094389386       -0.0026915743       -0.0096788475
	             0.0084807599       -0.0069160330       -0.0052854515
	             0.0018075568       -0.0005528073        0.0026658510
	            -0.0069946598        0.0033442521        0.0070318577
	            -0.0050434637        0.0064246774        0.0070968990
	            -0.0102412219        0.0015366148        0.0023394767
	            -0.0034004884        0.0070675676        0.0111623779
	            -0.0133165508        0.0020819713       -0.0010209221
	             0.0023269639       -0.0012954759       -0.0019171577
	             0.0043787119       -0.0020447353       -0.0026144407
	            -0.0069616468        0.0039922604       -0.0082104177
	             0.0132238675       -0.0071759056       -0.0082376176
	             0.0056269578       -0.0030570035        0.0006685443
	            -0.0010372117       -0.0012636135       -0.0066385201
	             0.0052800819       -0.0009835282        0.0043145839
	            -0.0028840976        0.0013725817       -0.0052268191
	             0.0010222210       -0.0003524234        0.0037202427
	             0.0011525361        0.0002715633        0.0056150643
	            -0.0042930109        0.0013426111       -0.0037368467
	             0.0025665606       -0.0007935253        0.0005781454
	             0.0005194962       -0.0008911248       -0.0022596536
	            -0.0016523008        0.0005836503        0.0096336513

	Previous optimization step data not found.  Starting new optimization.

	---Fragment 1 Intrafragment Coordinates---
	 - Coordinate -           - BOHR/RAD -       - ANG/DEG -
	 R(1,3)           =         2.634350	       1.394038
	 R(1,9)           =         2.635962	       1.394891
	 R(1,14)          =         2.054947	       1.087431
	 R(2,4)           =         2.635263	       1.394521
	 R(2,9)           =         2.635830	       1.394821
	 R(2,15)          =         2.055702	       1.087831
	 R(3,11)          =         2.635830	       1.394821
	 R(3,16)          =         2.053941	       1.086899
	 R(4,11)          =         2.636938	       1.395407
	 R(4,17)          =         2.053239	       1.086527
	 R(5,7)           =         2.617696	       1.385225
	 R(5,10)          =         2.627005	       1.390151
	 R(5,18)          =         2.050827	       1.085251
	 R(6,8)           =         2.617729	       1.385243
	 R(6,10)          =         2.627784	       1.390564
	 R(6,19)          =         2.051156	       1.085425
	 R(7,12)          =         2.556040	       1.352598
	 R(7,20)          =         2.050181	       1.084909
	 R(8,12)          =         2.556037	       1.352597
	 R(8,21)          =         2.049477	       1.084536
	 R(9,10)          =         2.733384	       1.446444
	 R(11,13)         =         2.571662	       1.360865
	 R(13,22)         =         1.833410	       0.970199
	 B(1,3,11)        =         2.094553	     120.009056
	 B(1,3,16)        =         2.088505	     119.662516
	 B(1,9,2)         =         2.093692	     119.959722
	 B(1,9,10)        =         2.095161	     120.043881
	 B(2,4,11)        =         2.093699	     119.960108
	 B(2,4,17)        =         2.089577	     119.723926
	 B(2,9,10)        =         2.094332	     119.996376
	 B(3,1,9)         =         2.094940	     120.031219
	 B(3,1,14)        =         2.079469	     119.144799
	 B(3,11,4)        =         2.094306	     119.994870
	 B(3,11,13)       =         2.094549	     120.008801
	 B(4,2,9)         =         2.095181	     120.045019
	 B(4,2,15)        =         2.078675	     119.099297
	 B(4,11,13)       =         2.094331	     119.996326
	 B(5,7,12)        =         2.165189	     124.056211
	 B(5,7,20)        =         2.108399	     120.802381
	 B(5,10,6)        =         2.089609	     119.725761
	 B(5,10,9)        =         2.097407	     120.172550
	 B(6,8,12)        =         2.164968	     124.043515
	 B(6,8,21)        =         2.108193	     120.790566
	 B(6,10,9)        =         2.096169	     120.101647
	 B(7,5,10)        =         2.058235	     117.928191
	 B(7,5,18)        =         2.098506	     120.235539
	 B(7,12,8)        =         2.030108	     116.316608
	 B(8,6,10)        =         2.058261	     117.929650
	 B(8,6,19)        =         2.099324	     120.282394
	 B(9,1,14)        =         2.108776	     120.823969
	 B(9,2,15)        =         2.109330	     120.855683
	 B(10,5,18)       =         2.126442	     121.836176
	 B(10,6,19)       =         2.125600	     121.787902
	 B(11,3,16)       =         2.100127	     120.328425
	 B(11,4,17)       =         2.099910	     120.315955
	 B(11,13,22)      =         1.925489	     110.322421
	 B(12,7,20)       =         2.009594	     115.141231
	 B(12,8,21)       =         2.010024	     115.165869
	 D(1,3,11,4)      =        -0.000325	      -0.018609
	 D(1,3,11,13)     =         3.140978	     179.964785
	 D(1,9,2,4)       =         0.000325	       0.018608
	 D(1,9,2,15)      =        -3.141497	    -179.994534
	 D(1,9,10,5)      =         2.617430	     149.967717
	 D(1,9,10,6)      =        -0.525480	     -30.107763
	 D(2,4,11,3)      =         0.000301	       0.017261
	 D(2,4,11,13)     =        -3.141002	    -179.966135
	 D(2,9,1,3)       =        -0.000348	      -0.019945
	 D(2,9,1,14)      =        -3.141221	    -179.978731
	 D(2,9,10,5)      =        -0.523246	     -29.979780
	 D(2,9,10,6)      =         2.617029	     149.944740
	 D(3,1,9,10)      =        -3.141025	    -179.967461
	 D(3,11,4,17)     =         3.141223	     179.978848
	 D(3,11,13,22)    =         3.140828	     179.956172
	 D(4,2,9,10)      =         3.141002	     179.966149
	 D(4,11,3,16)     =         3.141593	     180.000000
	 D(4,11,13,22)    =        -0.001055	      -0.060434
	 D(5,7,12,8)      =         0.000863	       0.049442
	 D(5,10,6,8)      =        -0.000387	      -0.022170
	 D(5,10,6,19)     =        -3.140507	    -179.937807
	 D(6,8,12,7)      =        -0.001683	      -0.096421
	 D(6,10,5,7)      =        -0.000348	      -0.019940
	 D(6,10,5,18)     =        -3.139999	    -179.908695
	 D(7,5,10,9)      =         3.139932	     179.904864
	 D(7,12,8,21)     =         3.141315	     179.984067
	 D(8,6,10,9)      =        -3.140668	    -179.947028
	 D(8,12,7,20)     =         3.139795	     179.896979
	 D(9,1,3,11)      =         0.000348	       0.019955
	 D(9,1,3,16)      =        -3.141571	    -179.998735
	 D(9,2,4,11)      =        -0.000301	      -0.017270
	 D(9,2,4,17)      =        -3.141228	    -179.979086
	 D(9,10,5,18)     =         0.000281	       0.016109
	 D(9,10,6,19)     =         0.002397	       0.137335
	 D(10,5,7,12)     =         0.000111	       0.006360
	 D(10,5,7,20)     =        -3.138677	    -179.832954
	 D(10,6,8,12)     =         0.001475	       0.084487
	 D(10,6,8,21)     =         3.141593	     180.000000
	 D(10,9,1,14)     =         0.001287	       0.073752
	 D(10,9,2,15)     =        -0.000820	      -0.046992
	 D(11,3,1,14)     =         3.141234	     179.979432
	 D(11,4,2,15)     =         3.141517	     179.995641
	 D(12,7,5,18)     =         3.139794	     179.896969
	 D(12,8,6,19)     =        -3.141567	    -179.998552
	 D(13,11,3,16)    =        -0.000286	      -0.016400
	 D(13,11,4,17)    =        -0.000079	      -0.004548
	 D(14,1,3,16)     =        -0.000685	      -0.039257
	 D(15,2,4,17)     =         0.000590	       0.033826
	 D(18,5,7,20)     =         0.001006	       0.057655
	 D(19,6,8,21)     =        -0.001455	      -0.083354

	Current energy   :      -553.7218038388

	Generating empirical Hessian (Schlegel '84) for each fragment.
	Adding user-defined constraint: Fragment 1; Coordinate 63:
		Value =     2.617430; Fixed value    =     2.617994
		Force =     0.000282; Force constant =     0.500000
	Removing off-diagonal coupling between coordinate 63 and others.
	Taking RFO optimization step.
	Going to follow RFO solution 1.
	Using RFO vector 1.

	Determining step-restricting scale parameter for RS-RFO.
	Maximum step size allowed    0.10000

	 Iter      |step|        alpha        rfo_root  
	------------------------------------------------
	    0     0.22351       1.00000           1
	    1     0.16781       4.42855           1
	    2     0.13293      13.08135           1
	    3     0.11068      27.08031           1
	    4     0.10158      36.59867           1
	    5     0.10004      38.53253           1
	    6     0.10000      38.58803           1
	------------------------------------------------
	Norm of target step-size    0.10000
	Projected energy change by RFO approximation:        -0.0049105193

	Back-transformation to cartesian coordinates...
	Could not converge backtransformation.
	Using first guess instead.

	--- Internal Coordinate Step in ANG or DEG, aJ/ANG or AJ/DEG ---
	 ---------------------------------------------------------------------------
	   Coordinate                Previous        Force       Change         New 
	   ----------                --------       ------       ------       ------
	    1 R(1,3)          =      1.394038    -0.060247    -0.005948     1.388090
	    2 R(1,9)          =      1.394891     0.000301     0.000300     1.395191
	    3 R(1,14)         =      1.087431    -0.054292    -0.006431     1.081000
	    4 R(2,4)          =      1.394521    -0.062635    -0.006119     1.388402
	    5 R(2,9)          =      1.394821    -0.011375    -0.000909     1.393912
	    6 R(2,15)         =      1.087831    -0.054239    -0.006449     1.081382
	    7 R(3,11)         =      1.394821    -0.085588    -0.008564     1.386257
	    8 R(3,16)         =      1.086899    -0.044848    -0.005300     1.081599
	    9 R(4,11)         =      1.395407    -0.039495    -0.003988     1.391419
	   10 R(4,17)         =      1.086527    -0.030469    -0.003612     1.082915
	   11 R(5,7)          =      1.385225     0.001255     0.000108     1.385333
	   12 R(5,10)         =      1.390151     0.009174     0.001538     1.391690
	   13 R(5,18)         =      1.085251    -0.044447    -0.005211     1.080040
	   14 R(6,8)          =      1.385243     0.001194     0.000103     1.385345
	   15 R(6,10)         =      1.390564     0.007040     0.001216     1.391779
	   16 R(6,19)         =      1.085425    -0.045524    -0.005368     1.080057
	   17 R(7,12)         =      1.352598    -0.129064    -0.011636     1.340962
	   18 R(7,20)         =      1.084909    -0.021615    -0.002551     1.082359
	   19 R(8,12)         =      1.352597    -0.128578    -0.011590     1.341007
	   20 R(8,21)         =      1.084536    -0.019585    -0.002296     1.082240
	   21 R(9,10)         =      1.446444     0.154052     0.017206     1.463650
	   22 R(11,13)        =      1.360865    -0.007278    -0.000254     1.360611
	   23 R(13,22)        =      0.970199    -0.076402    -0.006770     0.963429
	   24 B(1,3,11)       =    120.009056    -0.000012    -0.075778   119.933278
	   25 B(1,3,16)       =    119.662516     0.000224     0.511220   120.173736
	   26 B(1,9,2)        =    119.959722    -0.000808    -1.364483   118.595239
	   27 B(1,9,10)       =    120.043881     0.000415     0.702105   120.745986
	   28 B(2,4,11)       =    119.960108     0.000133     0.212206   120.172314
	   29 B(2,4,17)       =    119.723926     0.000021     0.083269   119.807195
	   30 B(2,9,10)       =    119.996376     0.000394     0.662353   120.658729
	   31 B(3,1,9)        =    120.031219     0.000506     0.928508   120.959727
	   32 B(3,1,14)       =    119.144799    -0.000228    -0.411250   118.733549
	   33 B(3,11,4)       =    119.994870    -0.000120    -0.268209   119.726661
	   34 B(3,11,13)      =    120.008801    -0.000825    -1.386757   118.622044
	   35 B(4,2,9)        =    120.045019     0.000301     0.567713   120.612732
	   36 B(4,2,15)       =    119.099297    -0.000079    -0.130071   118.969226
	   37 B(4,11,13)      =    119.996326     0.000944     1.654968   121.651294
	   38 B(5,7,12)       =    124.056211     0.000038    -0.009341   124.046869
	   39 B(5,7,20)       =    120.802381    -0.000075    -0.117316   120.685065
	   40 B(5,10,6)       =    119.725761    -0.001224    -1.990096   117.735665
	   41 B(5,10,9)       =    120.172550     0.000611     0.994322   121.166871
	   42 B(6,8,12)       =    124.043515     0.000043     0.002545   124.046060
	   43 B(6,8,21)       =    120.790566    -0.000074    -0.115042   120.675524
	   44 B(6,10,9)       =    120.101647     0.000613     0.995539   121.097186
	   45 B(7,5,10)       =    117.928191     0.000532     1.033124   118.961316
	   46 B(7,5,18)       =    120.235539    -0.000212    -0.404651   119.830887
	   47 B(7,12,8)       =    116.316608     0.000082    -0.064700   116.251908
	   48 B(8,6,10)       =    117.929650     0.000529     1.028475   118.958125
	   49 B(8,6,19)       =    120.282394    -0.000218    -0.414535   119.867859
	   50 B(9,1,14)       =    120.823969    -0.000279    -0.517667   120.306302
	   51 B(9,2,15)       =    120.855683    -0.000222    -0.438302   120.417380
	   52 B(10,5,18)      =    121.836176    -0.000319    -0.628585   121.207591
	   53 B(10,6,19)      =    121.787902    -0.000312    -0.614098   121.173804
	   54 B(11,3,16)      =    120.328425    -0.000212    -0.435489   119.892936
	   55 B(11,4,17)      =    120.315955    -0.000154    -0.295471   120.020484
	   56 B(11,13,22)     =    110.322421    -0.000439    -0.945767   109.376654
	   57 B(12,7,20)      =    115.141231     0.000037     0.126832   115.268064
	   58 B(12,8,21)      =    115.165869     0.000031     0.112252   115.278121
	   59 D(1,3,11,4)     =     -0.018609     0.000001     0.015398    -0.003211
	   60 D(1,3,11,13)    =    179.964785     0.000002     0.038929   180.003714
	   61 D(1,9,2,4)      =      0.018608     0.000000    -0.018608     0.000000
	   62 D(1,9,2,15)     =   -179.994534    -0.000018    -0.303764  -180.298298
	   63 D(1,9,10,5)     =    149.967717    -0.000015    -0.122618   149.845100
	   64 D(1,9,10,6)     =    -30.107763    -0.000019    -0.243388   -30.351152
	   65 D(2,4,11,3)     =      0.017261     0.000002     0.041682     0.058944
	   66 D(2,4,11,13)    =   -179.966135     0.000001     0.017937  -179.948197
	   67 D(2,9,1,3)      =     -0.019945     0.000004     0.075682     0.055737
	   68 D(2,9,1,14)     =   -179.978731    -0.000014    -0.204910  -180.183641
	   69 D(2,9,10,5)     =    -29.979780    -0.000020    -0.254183   -30.233962
	   70 D(2,9,10,6)     =    149.944740    -0.000025    -0.374953   149.569786
	   71 D(3,1,9,10)     =   -179.967461    -0.000002    -0.054261  -180.021722
	   72 D(3,11,4,17)    =    179.978848     0.000007     0.111210   180.090059
	   73 D(3,11,13,22)   =    179.956172    -0.000000    -0.007567   179.948605
	   74 D(4,2,9,10)     =    179.966149     0.000005     0.111774   180.077924
	   75 D(4,11,3,16)    =    180.000000     0.000005     0.077024   180.077024
	   76 D(4,11,13,22)   =     -0.060434     0.000001     0.016104    -0.044331
	   77 D(5,7,12,8)     =      0.049442    -0.000001    -0.015720     0.033722
	   78 D(5,10,6,8)     =     -0.022170    -0.000002    -0.050515    -0.072685
	   79 D(5,10,6,19)    =   -179.937807    -0.000018    -0.302730  -180.240537
	   80 D(6,8,12,7)     =     -0.096421     0.000002     0.029253    -0.067168
	   81 D(6,10,5,7)     =     -0.019940     0.000003     0.062349     0.042409
	   82 D(6,10,5,18)    =   -179.908695    -0.000015    -0.214162  -180.122857
	   83 D(7,5,10,9)     =    179.904864    -0.000002    -0.052318   179.852546
	   84 D(7,12,8,21)    =    179.984067     0.000009     0.145565   180.129632
	   85 D(8,6,10,9)     =   -179.947028     0.000003     0.064066  -179.882962
	   86 D(8,12,7,20)    =    179.896979     0.000008     0.120391   180.017370
	   87 D(9,1,3,11)     =      0.019955    -0.000004    -0.074676    -0.054722
	   88 D(9,1,3,16)     =   -179.998735    -0.000008    -0.136450  -180.135184
	   89 D(9,2,4,11)     =     -0.017270    -0.000003    -0.040426    -0.057696
	   90 D(9,2,4,17)     =   -179.979086    -0.000007    -0.109659  -180.088745
	   91 D(9,10,5,18)    =      0.016109    -0.000019    -0.328829    -0.312720
	   92 D(9,10,6,19)    =      0.137335    -0.000014    -0.188149    -0.050813
	   93 D(10,5,7,12)    =      0.006360    -0.000001    -0.029997    -0.023637
	   94 D(10,5,7,20)    =   -179.832954    -0.000011    -0.173488  -180.006443
	   95 D(10,6,8,12)    =      0.084487    -0.000000     0.004737     0.089224
	   96 D(10,6,8,21)    =    180.000000    -0.000008    -0.117685   179.882315
	   97 D(10,9,1,14)    =      0.073752    -0.000019    -0.334853    -0.261100
	   98 D(10,9,2,15)    =     -0.046992    -0.000013    -0.173917    -0.220910
	   99 D(11,3,1,14)    =    179.979432     0.000013     0.201532   180.180965
	  100 D(11,4,2,15)    =    179.995641     0.000015     0.241220   180.236861
	  101 D(12,7,5,18)    =    179.896969     0.000016     0.242335   180.139305
	  102 D(12,8,6,19)    =   -179.998552     0.000016     0.253388  -179.745165
	  103 D(13,11,3,16)   =     -0.016400     0.000006     0.100349     0.083949
	  104 D(13,11,4,17)   =     -0.004548     0.000006     0.087466     0.082918
	  105 D(14,1,3,16)    =     -0.039257     0.000009     0.139759     0.100502
	  106 D(15,2,4,17)    =      0.033826     0.000011     0.171986     0.205812
	  107 D(18,5,7,20)    =      0.057655     0.000006     0.098844     0.156499
	  108 D(19,6,8,21)    =     -0.083354     0.000008     0.131281     0.047926
	 ---------------------------------------------------------------------------
	Successfully symmetrized geometry.
	 Forces used to impose fixed constraints are not included.
	  Forces zeroed: 63 

  ==> Convergence Check <==

  Measures of convergence in internal coordinates in au.
  Criteria marked as inactive (o), active & met (*), and active & unmet ( ).
  --------------------------------------------------------------------------------------------- ~
   Step     Total Energy     Delta E     MAX Force     RMS Force      MAX Disp      RMS Disp    ~
  --------------------------------------------------------------------------------------------- ~
    Convergence Criteria    1.00e-06 *    3.00e-04 *             o    1.20e-03 *             o  ~
  --------------------------------------------------------------------------------------------- ~
      1    -553.72180384   -5.54e+02      1.87e-02      4.83e-03 o    3.47e-02      9.62e-03 o  ~
  ---------------------------------------------------------------------------------------------

	Writing optimization data to binary file.
	Structure for next step:
	Cartesian Geometry (in Angstrom)
	    C    -1.2672611038   0.7217642886  -0.5630090883
	    C    -0.2776808075   0.1028099686   1.5319337417
	    C    -2.3417740428   1.2921269353   0.1054993681
	    C    -1.3513332311   0.6712339868   2.2041134004
	    C     2.1782209118  -0.5162443846  -0.0020239383
	    C     0.7487834398  -1.0369466534  -1.8356791559
	    C     3.2148651528  -1.0984672050  -0.7130326899
	    C     1.8485833778  -1.5956540284  -2.4661291554
	    C    -0.2220939849   0.1209168430   0.1392478914
	    C     0.9084366542  -0.4795099755  -0.5704419147
	    C    -2.3862058910   1.2681621752   1.4908371200
	    N     3.0780402607  -1.6393138371  -1.9324354594
	    O    -3.4519348186   1.8350069255   2.1186673445
	    H    -1.2509713206   0.7540226926  -1.6434044797
	    H     0.5140387906  -0.3593385059   2.1055061059
	    H    -3.1441542371   1.7565340547  -0.4516075663
	    H    -1.3818961479   0.6485352725   3.2863586114
	    H     2.3657861220  -0.0984344833   0.9761069824
	    H    -0.2130265938  -1.0421305113  -2.3270218588
	    H     4.2133946015  -1.1420945900  -0.2976584184
	    H     1.7555792298  -2.0383711955  -3.4492853868
	    H    -3.3473956515   1.7429312450   3.0719717133
			--------------------------
			 OPTKING Finished Execution 
			--------------------------

    Structure for next step:
    Molecular point group: c1
    Full point group: C1

    Geometry (in Angstrom), charge = 0, multiplicity = 1:

    C           -1.267416829178     0.721641308822    -0.562801946225
    C           -0.277836532852     0.102686988837     1.532140883751
    C           -2.341929768219     1.292003955460     0.105706510209
    C           -1.351488956480     0.671111007015     2.204320542482
    C            2.178065186405    -0.516367364360    -0.001816796263
    C            0.748627714439    -1.037069633146    -1.835472013860
    C            3.214709427372    -1.098590184803    -0.712825547824
    C            1.848427652398    -1.595777008193    -2.465922013350
    C           -0.222249710290     0.120793863225     0.139455033500
    C            0.908280928788    -0.479632955344    -0.570234772603
    C           -2.386361616419     1.268039195389     1.491044262053
    N            3.077884535294    -1.639436816866    -1.932228317325
    O           -3.452090544018     1.834883945716     2.118874486568
    H           -1.251127045950     0.753899712793    -1.643197337672
    H            0.513883065167    -0.359461485656     2.105713247996
    H           -3.144309962446     1.756411074924    -0.451400424203
    H           -1.382051873261     0.648412292693     3.286565753432
    H            2.365630396592    -0.098557463084     0.976314124432
    H           -0.213182319195    -1.042253491079    -2.326814716741
    H            4.213238876099    -1.142217569762    -0.297451276300
    H            1.755423504410    -2.038494175280    -3.449078244783
    H           -3.347551376899     1.742808265225     3.072178855409

gradient() will perform analytic gradient computation.

*** tstart() called on gpu-2-7.local
*** at Sun Nov 12 12:00:13 2017

    SCF Algorithm Type (re)set to DF.

*** tstart() called on gpu-2-7.local
*** at Sun Nov 12 12:00:13 2017

   => Loading Basis Set <=

    Name: AUG-CC-PVTZ
    Role: ORBITAL
    Keyword: BASIS
    atoms 1-11  entry C          line   221 file /cbio/jclab/home/chayas/anaconda/envs/py35/share/psi4/basis/aug-cc-pvtz.gbs 
    atoms 12    entry N          line   267 file /cbio/jclab/home/chayas/anaconda/envs/py35/share/psi4/basis/aug-cc-pvtz.gbs 
    atoms 13    entry O          line   313 file /cbio/jclab/home/chayas/anaconda/envs/py35/share/psi4/basis/aug-cc-pvtz.gbs 
    atoms 14-22 entry H          line    34 file /cbio/jclab/home/chayas/anaconda/envs/py35/share/psi4/basis/aug-cc-pvtz.gbs 


         ---------------------------------------------------------
                                   SCF
            by Justin Turney, Rob Parrish, and Andy Simmonett
                              RHF Reference
                        8 Threads,   4768 MiB Core
         ---------------------------------------------------------

  ==> Geometry <==

    Molecular point group: c1
    Full point group: C1

    Geometry (in Angstrom), charge = 0, multiplicity = 1:

       Center              X                  Y                   Z               Mass       
    ------------   -----------------  -----------------  -----------------  -----------------
           C         -1.267416829178     0.721641308822    -0.562801946225    12.000000000000
           C         -0.277836532852     0.102686988837     1.532140883751    12.000000000000
           C         -2.341929768219     1.292003955460     0.105706510209    12.000000000000
           C         -1.351488956480     0.671111007015     2.204320542482    12.000000000000
           C          2.178065186405    -0.516367364360    -0.001816796263    12.000000000000
           C          0.748627714439    -1.037069633146    -1.835472013860    12.000000000000
           C          3.214709427372    -1.098590184803    -0.712825547824    12.000000000000
           C          1.848427652398    -1.595777008193    -2.465922013350    12.000000000000
           C         -0.222249710290     0.120793863225     0.139455033500    12.000000000000
           C          0.908280928788    -0.479632955344    -0.570234772603    12.000000000000
           C         -2.386361616419     1.268039195389     1.491044262053    12.000000000000
           N          3.077884535294    -1.639436816866    -1.932228317325    14.003074004780
           O         -3.452090544018     1.834883945716     2.118874486568    15.994914619560
           H         -1.251127045950     0.753899712793    -1.643197337672     1.007825032070
           H          0.513883065167    -0.359461485656     2.105713247996     1.007825032070
           H         -3.144309962446     1.756411074924    -0.451400424203     1.007825032070
           H         -1.382051873261     0.648412292693     3.286565753432     1.007825032070
           H          2.365630396592    -0.098557463084     0.976314124432     1.007825032070
           H         -0.213182319195    -1.042253491079    -2.326814716741     1.007825032070
           H          4.213238876099    -1.142217569762    -0.297451276300     1.007825032070
           H          1.755423504410    -2.038494175280    -3.449078244783     1.007825032070
           H         -3.347551376899     1.742808265225     3.072178855409     1.007825032070

  Running in c1 symmetry.

  Rotational constants: A =      0.09839  B =      0.01335  C =      0.01195 [cm^-1]
  Rotational constants: A =   2949.58484  B =    400.31248  C =    358.32856 [MHz]
  Nuclear repulsion =  697.801585941194048

  Charge       = 0
  Multiplicity = 1
  Electrons    = 90
  Nalpha       = 45
  Nbeta        = 45

  ==> Algorithm <==

  SCF Algorithm Type is DF.
  DIIS enabled.
  MOM disabled.
  Fractional occupation disabled.
  Guess Type is READ.
  Energy threshold   = 1.00e-10
  Density threshold  = 1.00e-10
  Integral threshold = 0.00e+00

  ==> Primary Basis <==

  Basis Set: AUG-CC-PVTZ
    Blend: AUG-CC-PVTZ
    Number of shells: 263
    Number of basis function: 805
    Number of Cartesian functions: 940
    Spherical Harmonics?: true
    Max angular momentum: 3

   => Loading Basis Set <=

    Name: (AUG-CC-PVTZ AUX)
    Role: JKFIT
    Keyword: DF_BASIS_SCF
    atoms 1-11  entry C          line   161 file /cbio/jclab/home/chayas/anaconda/envs/py35/share/psi4/basis/aug-cc-pvtz-jkfit.gbs 
    atoms 12    entry N          line   223 file /cbio/jclab/home/chayas/anaconda/envs/py35/share/psi4/basis/aug-cc-pvtz-jkfit.gbs 
    atoms 13    entry O          line   285 file /cbio/jclab/home/chayas/anaconda/envs/py35/share/psi4/basis/aug-cc-pvtz-jkfit.gbs 
    atoms 14-22 entry H          line    69 file /cbio/jclab/home/chayas/anaconda/envs/py35/share/psi4/basis/aug-cc-pvtz-jkfit.gbs 

  Reading orbitals from file 180, no projection.

  ==> Pre-Iterations <==

   -------------------------------------------------------
    Irrep   Nso     Nmo     Nalpha   Nbeta   Ndocc  Nsocc
   -------------------------------------------------------
     A        805     805       0       0       0       0
   -------------------------------------------------------
    Total     805     805      45      45      45       0
   -------------------------------------------------------

  ==> Integral Setup <==

  ==> DFJK: Density-Fitted J/K Matrices <==

    J tasked:                  Yes
    K tasked:                  Yes
    wK tasked:                  No
    OpenMP threads:              8
    Integrals threads:           8
    Memory (MB):              3576
    Algorithm:                Disk
    Integral Cache:           NONE
    Schwarz Cutoff:          1E-12
    Fitting Condition:       1E-12

   => Auxiliary Basis Set <=

  Basis Set: (AUG-CC-PVTZ AUX)
    Blend: AUG-CC-PVTZ-JKFIT
    Number of shells: 516
    Number of basis function: 1766
    Number of Cartesian functions: 2198
    Spherical Harmonics?: true
    Max angular momentum: 4

  Minimum eigenvalue in the overlap matrix is 5.4073749736E-07.
  Using Symmetric Orthogonalization.

  SCF Guess: Orbitals guess was supplied from a previous computation.

  ==> Iterations <==

                           Total Energy        Delta E     RMS |[F,P]|

   @DF-RHF iter   0:  -551.43772751630740   -5.51438e+02   5.10712e-04 
   @DF-RHF iter   1:  -551.28967280183349    1.48055e-01   1.44916e-04 
   @DF-RHF iter   2:  -551.29061142912951   -9.38627e-04   1.17187e-04 DIIS
   @DF-RHF iter   3:  -551.29148617455087   -8.74745e-04   1.74243e-05 DIIS
   @DF-RHF iter   4:  -551.29150041840376   -1.42439e-05   4.51594e-06 DIIS
   @DF-RHF iter   5:  -551.29150260133918   -2.18294e-06   1.54390e-06 DIIS
   @DF-RHF iter   6:  -551.29150290139091   -3.00052e-07   8.80742e-07 DIIS
   @DF-RHF iter   7:  -551.29150301391303   -1.12522e-07   3.14897e-07 DIIS
   @DF-RHF iter   8:  -551.29150305093344   -3.70204e-08   1.58340e-07 DIIS
   @DF-RHF iter   9:  -551.29150305672408   -5.79064e-09   5.98170e-08 DIIS
   @DF-RHF iter  10:  -551.29150305726455   -5.40467e-10   1.97171e-08 DIIS
   @DF-RHF iter  11:  -551.29150305733720   -7.26459e-11   6.61525e-09 DIIS
   @DF-RHF iter  12:  -551.29150305733401    3.18323e-12   2.92494e-09 DIIS
   @DF-RHF iter  13:  -551.29150305735334   -1.93268e-11   1.65876e-09 DIIS
   @DF-RHF iter  14:  -551.29150305734129    1.20508e-11   7.22763e-10 DIIS
   @DF-RHF iter  15:  -551.29150305736584   -2.45564e-11   2.89758e-10 DIIS
   @DF-RHF iter  16:  -551.29150305734095    2.48974e-11   9.67285e-11 DIIS

  ==> Post-Iterations <==

    Orbital Energies (a.u.)
    -----------------------

    Doubly Occupied:                                                      

       1A    -20.602033     2A    -15.559841     3A    -11.314523  
       4A    -11.271814     5A    -11.271697     6A    -11.265322  
       7A    -11.254194     8A    -11.252333     9A    -11.246551  
      10A    -11.244775    11A    -11.239122    12A    -11.235278  
      13A    -11.235079    14A     -1.419371    15A     -1.253968  
      16A     -1.174898    17A     -1.104814    18A     -1.039566  
      19A     -1.029595    20A     -1.012340    21A     -0.882132  
      22A     -0.873145    23A     -0.842257    24A     -0.812375  
      25A     -0.750396    26A     -0.725742    27A     -0.685398  
      28A     -0.664079    29A     -0.653029    30A     -0.634757  
      31A     -0.614572    32A     -0.607779    33A     -0.603984  
      34A     -0.592212    35A     -0.578982    36A     -0.544995  
      37A     -0.531922    38A     -0.523930    39A     -0.502681  
      40A     -0.495541    41A     -0.417302    42A     -0.397102  
      43A     -0.356563    44A     -0.347898    45A     -0.308302  

    Virtual:                                                              

      46A      0.021422    47A      0.029803    48A      0.032122  
      49A      0.039691    50A      0.042702    51A      0.045465  
      52A      0.055193    53A      0.057113    54A      0.063417  
      55A      0.078124    56A      0.078898    57A      0.084205  
      58A      0.088550    59A      0.093458    60A      0.097011  
      61A      0.102319    62A      0.103905    63A      0.108530  
      64A      0.109753    65A      0.111764    66A      0.114950  
      67A      0.119277    68A      0.122017    69A      0.127207  
      70A      0.129981    71A      0.132616    72A      0.134603  
      73A      0.137093    74A      0.143742    75A      0.146287  
      76A      0.149047    77A      0.149828    78A      0.153953  
      79A      0.160158    80A      0.164247    81A      0.168043  
      82A      0.173881    83A      0.176504    84A      0.182263  
      85A      0.184556    86A      0.186980    87A      0.201201  
      88A      0.204306    89A      0.214593    90A      0.216427  
      91A      0.221931    92A      0.222599    93A      0.226209  
      94A      0.236653    95A      0.240118    96A      0.242684  
      97A      0.246227    98A      0.250577    99A      0.252761  
     100A      0.256092   101A      0.257469   102A      0.263489  
     103A      0.265937   104A      0.272934   105A      0.275152  
     106A      0.277384   107A      0.285055   108A      0.289099  
     109A      0.292520   110A      0.298919   111A      0.300857  
     112A      0.302698   113A      0.306916   114A      0.312543  
     115A      0.316361   116A      0.318607   117A      0.326030  
     118A      0.327571   119A      0.328418   120A      0.333472  
     121A      0.339808   122A      0.344303   123A      0.356000  
     124A      0.357475   125A      0.361830   126A      0.365806  
     127A      0.371576   128A      0.374726   129A      0.386511  
     130A      0.391222   131A      0.396673   132A      0.398381  
     133A      0.403292   134A      0.407733   135A      0.413652  
     136A      0.419305   137A      0.426048   138A      0.427449  
     139A      0.432823   140A      0.434903   141A      0.438785  
     142A      0.439692   143A      0.444890   144A      0.447844  
     145A      0.448638   146A      0.452660   147A      0.457146  
     148A      0.462265   149A      0.466435   150A      0.467592  
     151A      0.471291   152A      0.476074   153A      0.484552  
     154A      0.486941   155A      0.490747   156A      0.491846  
     157A      0.500953   158A      0.501976   159A      0.504415  
     160A      0.509017   161A      0.510121   162A      0.511917  
     163A      0.515682   164A      0.517180   165A      0.520955  
     166A      0.526366   167A      0.529453   168A      0.531956  
     169A      0.534797   170A      0.541615   171A      0.545187  
     172A      0.548964   173A      0.549879   174A      0.553309  
     175A      0.555800   176A      0.564126   177A      0.566536  
     178A      0.578353   179A      0.580664   180A      0.585782  
     181A      0.593020   182A      0.598521   183A      0.605525  
     184A      0.612240   185A      0.613415   186A      0.622131  
     187A      0.628085   188A      0.637064   189A      0.639046  
     190A      0.645821   191A      0.656322   192A      0.659234  
     193A      0.667606   194A      0.680708   195A      0.689410  
     196A      0.691369   197A      0.696388   198A      0.703229  
     199A      0.707216   200A      0.708591   201A      0.717210  
     202A      0.720162   203A      0.729645   204A      0.731412  
     205A      0.732641   206A      0.738798   207A      0.740657  
     208A      0.748914   209A      0.755254   210A      0.763223  
     211A      0.767062   212A      0.772692   213A      0.778077  
     214A      0.797830   215A      0.802061   216A      0.803401  
     217A      0.809134   218A      0.812048   219A      0.815461  
     220A      0.824117   221A      0.830154   222A      0.834458  
     223A      0.838338   224A      0.838804   225A      0.849134  
     226A      0.855099   227A      0.857176   228A      0.866385  
     229A      0.870908   230A      0.877023   231A      0.879059  
     232A      0.882535   233A      0.885001   234A      0.888458  
     235A      0.893168   236A      0.897487   237A      0.906596  
     238A      0.910014   239A      0.912250   240A      0.918233  
     241A      0.925896   242A      0.930637   243A      0.936857  
     244A      0.940933   245A      0.947067   246A      0.952074  
     247A      0.957082   248A      0.963010   249A      0.964381  
     250A      0.970350   251A      0.972437   252A      0.979229  
     253A      0.981614   254A      0.983799   255A      0.988871  
     256A      0.996852   257A      0.998436   258A      1.004841  
     259A      1.012579   260A      1.015171   261A      1.018517  
     262A      1.020884   263A      1.025966   264A      1.030571  
     265A      1.038665   266A      1.039693   267A      1.041177  
     268A      1.047431   269A      1.048552   270A      1.055410  
     271A      1.056998   272A      1.060801   273A      1.067021  
     274A      1.076875   275A      1.077538   276A      1.084152  
     277A      1.087988   278A      1.090871   279A      1.098599  
     280A      1.099810   281A      1.103856   282A      1.106561  
     283A      1.113583   284A      1.115206   285A      1.121369  
     286A      1.122685   287A      1.125312   288A      1.135254  
     289A      1.148752   290A      1.154330   291A      1.161419  
     292A      1.161855   293A      1.165179   294A      1.170101  
     295A      1.175498   296A      1.178731   297A      1.185193  
     298A      1.188446   299A      1.193613   300A      1.201279  
     301A      1.206355   302A      1.208979   303A      1.214872  
     304A      1.217769   305A      1.218110   306A      1.224515  
     307A      1.232826   308A      1.233880   309A      1.246415  
     310A      1.252791   311A      1.256658   312A      1.268600  
     313A      1.274641   314A      1.276928   315A      1.285753  
     316A      1.291178   317A      1.297003   318A      1.299273  
     319A      1.304011   320A      1.311499   321A      1.318036  
     322A      1.325752   323A      1.335216   324A      1.338242  
     325A      1.345670   326A      1.353014   327A      1.357764  
     328A      1.369177   329A      1.377863   330A      1.390505  
     331A      1.391041   332A      1.396261   333A      1.413901  
     334A      1.424282   335A      1.432678   336A      1.439767  
     337A      1.447886   338A      1.451343   339A      1.453227  
     340A      1.460605   341A      1.464358   342A      1.476257  
     343A      1.492740   344A      1.497444   345A      1.501291  
[...]
	 R(8,12)          =         2.522812	       1.335015
	 R(8,21)          =         2.043095	       1.081159
	 R(9,10)          =         2.762164	       1.461674
	 R(11,13)         =         2.572962	       1.361553
	 R(13,22)         =         1.817846	       0.961963
	 B(1,3,11)        =         2.092516	     119.892323
	 B(1,3,16)        =         2.113893	     121.117161
	 B(1,9,2)         =         2.058536	     117.945438
	 B(1,9,10)        =         2.113277	     121.081833
	 B(2,4,11)        =         2.095280	     120.050726
	 B(2,4,17)        =         2.093781	     119.964818
	 B(2,9,10)        =         2.111252	     120.965850
	 B(3,1,9)         =         2.117970	     121.350758
	 B(3,1,14)        =         2.076529	     118.976342
	 B(3,11,4)        =         2.088080	     119.638162
	 B(3,11,13)       =         2.047779	     117.329122
	 B(4,2,9)         =         2.113975	     121.121863
	 B(4,2,15)        =         2.078272	     119.076204
	 B(4,11,13)       =         2.147324	     123.032618
	 B(5,7,12)        =         2.159817	     123.748416
	 B(5,7,20)        =         2.094362	     119.998122
	 B(5,10,6)        =         2.032017	     116.426015
	 B(5,10,9)        =         2.126113	     121.817313
	 B(6,8,12)        =         2.160024	     123.760233
	 B(6,8,21)        =         2.094222	     119.990069
	 B(6,10,9)        =         2.124957	     121.751063
	 B(7,5,10)        =         2.090764	     119.791960
	 B(7,5,18)        =         2.087296	     119.593235
	 B(7,12,8)        =         2.033267	     116.497618
	 B(8,6,10)        =         2.090468	     119.774995
	 B(8,6,19)        =         2.087533	     119.606854
	 B(9,1,14)        =         2.088202	     119.645163
	 B(9,2,15)        =         2.090395	     119.770791
	 B(10,5,18)       =         2.104706	     120.590774
	 B(10,6,19)       =         2.104825	     120.597563
	 B(11,3,16)       =         2.076732	     118.987970
	 B(11,4,17)       =         2.094079	     119.981888
	 B(11,13,22)      =         1.902382	     108.998455
	 B(12,7,20)       =         2.028989	     116.252479
	 B(12,8,21)       =         2.028912	     116.248075
	 D(1,3,11,4)      =        -0.000972	      -0.055694
	 D(1,3,11,13)     =        -3.140642	    -179.945519
	 D(1,9,2,4)       =        -0.002689	      -0.154069
	 D(1,9,2,15)      =         3.103148	     177.797271
	 D(1,9,10,5)      =         2.616126	     149.892987
	 D(1,9,10,6)      =        -0.541045	     -30.999572
	 D(2,4,11,3)      =         0.003397	       0.194615
	 D(2,4,11,13)     =        -3.140234	    -179.922134
	 D(2,9,1,3)       =         0.005162	       0.295748
	 D(2,9,1,14)      =         3.112974	     178.360251
	 D(2,9,10,5)      =        -0.542461	     -31.080728
	 D(2,9,10,6)      =         2.583554	     148.026712
	 D(3,1,9,10)      =         3.130259	     179.350606
	 D(3,11,4,17)     =        -3.128019	    -179.222306
	 D(3,11,13,22)    =        -3.136860	    -179.728819
	 D(4,2,9,10)      =        -3.127806	    -179.210077
	 D(4,11,3,16)     =        -3.132548	    -179.481776
	 D(4,11,13,22)    =         0.006727	       0.385405
	 D(5,7,12,8)      =        -0.001482	      -0.084898
	 D(5,10,6,8)      =        -0.005752	      -0.329552
	 D(5,10,6,19)     =         3.106922	     178.013524
	 D(6,8,12,7)      =        -0.000812	      -0.046517
	 D(6,10,5,7)      =         0.003645	       0.208858
	 D(6,10,5,18)     =         3.113992	     178.418578
	 D(7,5,10,9)      =         3.130446	     179.361320
	 D(7,12,8,21)     =        -3.134290	    -179.581616
	 D(8,6,10,9)      =        -3.132563	    -179.482621
	 D(8,12,7,20)     =        -3.136761	    -179.723163
	 D(9,1,3,11)      =        -0.003386	      -0.193995
	 D(9,1,3,16)      =         3.127972	     179.219612
	 D(9,2,4,11)      =        -0.001534	      -0.087900
	 D(9,2,4,17)      =         3.129884	     179.329121
	 D(9,10,5,18)     =        -0.042393	      -2.428960
	 D(9,10,6,19)     =        -0.019889	      -1.139545
	 D(10,5,7,12)     =        -0.000024	      -0.001400
	 D(10,5,7,20)     =         3.135030	     179.623996
	 D(10,6,8,12)     =         0.004576	       0.262175
	 D(10,6,8,21)     =         3.137766	     179.780754
	 D(10,9,1,14)     =        -0.045115	      -2.584891
	 D(10,9,2,15)     =        -0.021969	      -1.258737
	 D(11,3,1,14)     =        -3.111418	    -178.271146
	 D(11,4,2,15)     =        -3.107615	    -178.053206
	 D(12,7,5,18)     =        -3.110685	    -178.229097
	 D(12,8,6,19)     =        -3.108387	    -178.097434
	 D(13,11,3,16)    =         0.010968	       0.628399
	 D(13,11,4,17)    =         0.011536	       0.660945
	 D(14,1,3,16)     =         0.019940	       1.142461
	 D(15,2,4,17)     =         0.023803	       1.363815
	 D(18,5,7,20)     =         0.024370	       1.396298
	 D(19,6,8,21)     =         0.024804	       1.421146

	Current energy   :      -553.7256824004

	Energy change for the previous step:
		Projected    :        -0.0000015564
		Actual       :         0.0000003734

	Performing BFGS update.
	Previous computed or guess Hessian on step 1.
	Steps to be used in Hessian update: 5 4
	Adding user-defined constraint: Fragment 1; Coordinate 63:
		Value =     2.616126; Fixed value    =     2.617990
		Force =     0.001165; Force constant =     0.625000
	Removing off-diagonal coupling between coordinate 63 and others.
	Taking RFO optimization step.
	Going to follow RFO solution 1.
	Using RFO vector 1.
	Norm of target step-size    0.00250
	Projected energy change by RFO approximation:        -0.0000001654

	Back-transformation to cartesian coordinates...
	Successfully converged to displaced geometry.

	--- Internal Coordinate Step in ANG or DEG, aJ/ANG or AJ/DEG ---
	 ---------------------------------------------------------------------------
	   Coordinate                Previous        Force       Change         New 
	   ----------                --------       ------       ------       ------
	    1 R(1,3)          =      1.383032    -0.000080     0.000014     1.383046
	    2 R(1,9)          =      1.395357     0.000301     0.000029     1.395386
	    3 R(1,14)         =      1.079650     0.000066     0.000019     1.079669
	    4 R(2,4)          =      1.385313     0.000254     0.000035     1.385348
	    5 R(2,9)          =      1.393354     0.000058     0.000016     1.393370
	    6 R(2,15)         =      1.079583     0.000086     0.000021     1.079604
	    7 R(3,11)         =      1.387863     0.000370     0.000042     1.387905
	    8 R(3,16)         =      1.078815     0.000136     0.000028     1.078844
	    9 R(4,11)         =      1.388280    -0.000085     0.000001     1.388281
	   10 R(4,17)         =      1.081269     0.000065     0.000018     1.081286
	   11 R(5,7)          =      1.385336     0.000029     0.000009     1.385345
	   12 R(5,10)         =      1.392500     0.000033    -0.000001     1.392499
	   13 R(5,18)         =      1.079420     0.000093     0.000021     1.079441
	   14 R(6,8)          =      1.385445     0.000028     0.000008     1.385453
	   15 R(6,10)         =      1.392528     0.000094     0.000008     1.392536
	   16 R(6,19)         =      1.079341     0.000088     0.000020     1.079361
	   17 R(7,12)         =      1.335038     0.000166     0.000028     1.335066
	   18 R(7,20)         =      1.081155     0.000030     0.000006     1.081160
	   19 R(8,12)         =      1.335015     0.000145     0.000026     1.335041
	   20 R(8,21)         =      1.081159     0.000024     0.000004     1.081163
	   21 R(9,10)         =      1.461674     0.000088     0.000029     1.461704
	   22 R(11,13)        =      1.361553     0.000155     0.000018     1.361571
	   23 R(13,22)        =      0.961963     0.000181     0.000027     0.961990
	   24 B(1,3,11)       =    119.892323     0.000001     0.002131   119.894454
	   25 B(1,3,16)       =    121.117161     0.000001     0.001439   121.118600
	   26 B(1,9,2)        =    117.945438     0.000001     0.002991   117.948429
	   27 B(1,9,10)       =    121.081833    -0.000001    -0.002827   121.079006
	   28 B(2,4,11)       =    120.050726    -0.000001    -0.002508   120.048218
	   29 B(2,4,17)       =    119.964818     0.000000    -0.000354   119.964464
	   30 B(2,9,10)       =    120.965850    -0.000000    -0.000289   120.965561
	   31 B(3,1,9)        =    121.350758    -0.000002    -0.004457   121.346300
	   32 B(3,1,14)       =    118.976342     0.000001     0.001764   118.978106
	   33 B(3,11,4)       =    119.638162     0.000001     0.001320   119.639482
	   34 B(3,11,13)      =    117.329122     0.000001     0.005134   117.334256
	   35 B(4,2,9)        =    121.121863     0.000000     0.000509   121.122372
	   36 B(4,2,15)       =    119.076204    -0.000001    -0.004123   119.072081
	   37 B(4,11,13)      =    123.032618    -0.000001    -0.006454   123.026164
	   38 B(5,7,12)       =    123.748416     0.000001     0.002993   123.751409
	   39 B(5,7,20)       =    119.998122     0.000000     0.003331   120.001453
	   40 B(5,10,6)       =    116.426015     0.000000     0.002447   116.428462
	   41 B(5,10,9)       =    121.817313    -0.000000    -0.001690   121.815623
	   42 B(6,8,12)       =    123.760233     0.000001     0.002443   123.762676
	   43 B(6,8,21)       =    119.990069     0.000000     0.003526   119.993595
	   44 B(6,10,9)       =    121.751063    -0.000000    -0.000947   121.750116
	   45 B(7,5,10)       =    119.791960    -0.000000    -0.002244   119.789716
	   46 B(7,5,18)       =    119.593235    -0.000000    -0.001293   119.591942
	   47 B(7,12,8)       =    116.497618    -0.000001    -0.003902   116.493716
	   48 B(8,6,10)       =    119.774995    -0.000000    -0.001858   119.773137
	   49 B(8,6,19)       =    119.606854    -0.000000    -0.001473   119.605381
	   50 B(9,1,14)       =    119.645163     0.000000     0.002293   119.647456
	   51 B(9,2,15)       =    119.770791     0.000000     0.003117   119.773908
	   52 B(10,5,18)      =    120.590774     0.000001     0.003222   120.593996
	   53 B(10,6,19)      =    120.597563     0.000001     0.003137   120.600700
	   54 B(11,3,16)      =    118.987970    -0.000002    -0.003711   118.984259
	   55 B(11,4,17)      =    119.981888     0.000001     0.002765   119.984654
	   56 B(11,13,22)     =    108.998455     0.000002     0.007524   109.005980
	   57 B(12,7,20)      =    116.252479    -0.000001    -0.006702   116.245777
	   58 B(12,8,21)      =    116.248075    -0.000001    -0.006401   116.241673
	   59 D(1,3,11,4)     =     -0.055694     0.000000    -0.002403    -0.058097
	   60 D(1,3,11,13)    =   -179.945519    -0.000000    -0.002224  -179.947743
	   61 D(1,9,2,4)      =     -0.154069     0.000000    -0.006604    -0.160674
	   62 D(1,9,2,15)     =    177.797271    -0.000000    -0.022977   177.774294
	   63 D(1,9,10,5)     =    149.892987    -0.000001     0.003575   149.896563
	   64 D(1,9,10,6)     =    -30.999572    -0.000000    -0.011413   -31.010986
	   65 D(2,4,11,3)     =      0.194615    -0.000000     0.000389     0.195003
	   66 D(2,4,11,13)    =   -179.922134    -0.000000     0.000212  -179.921922
	   67 D(2,9,1,3)      =      0.295748    -0.000000     0.004555     0.300304
	   68 D(2,9,1,14)     =    178.360251    -0.000000    -0.009328   178.350924
	   69 D(2,9,10,5)     =    -31.080728    -0.000000    -0.005224   -31.085952
	   70 D(2,9,10,6)     =    148.026712    -0.000000    -0.020213   148.006499
	   71 D(3,1,9,10)     =    179.350606     0.000000    -0.004015   179.346591
	   72 D(3,11,4,17)    =   -179.222306     0.000000     0.011320  -179.210986
	   73 D(3,11,13,22)   =   -179.728819     0.000000     0.000011  -179.728808
	   74 D(4,2,9,10)     =   -179.210077    -0.000000     0.001981  -179.208096
	   75 D(4,11,3,16)    =   -179.481776     0.000000     0.013273  -179.468503
	   76 D(4,11,13,22)   =      0.385405     0.000000     0.000188     0.385592
	   77 D(5,7,12,8)     =     -0.084898    -0.000000    -0.017870    -0.102768
	   78 D(5,10,6,8)     =     -0.329552    -0.000000    -0.022152    -0.351704
	   79 D(5,10,6,19)    =    178.013524    -0.000000    -0.029960   177.983564
	   80 D(6,8,12,7)     =     -0.046517    -0.000000    -0.003341    -0.049858
	   81 D(6,10,5,7)     =      0.208858    -0.000000     0.002674     0.211532
	   82 D(6,10,5,18)    =    178.418578    -0.000000    -0.009026   178.409552
	   83 D(7,5,10,9)     =    179.361320     0.000000    -0.011586   179.349734
	   84 D(7,12,8,21)    =   -179.581616     0.000000     0.054844  -179.526772
	   85 D(8,6,10,9)     =   -179.482621    -0.000000    -0.007895  -179.490517
	   86 D(8,12,7,20)    =   -179.723163     0.000000     0.045995  -179.677168
	   87 D(9,1,3,11)     =     -0.193995     0.000000    -0.000121    -0.194116
	   88 D(9,1,3,16)     =    179.219612    -0.000000    -0.016169   179.203443
	   89 D(9,2,4,11)     =     -0.087900    -0.000000     0.004218    -0.083682
	   90 D(9,2,4,17)     =    179.329121    -0.000000    -0.006693   179.322428
	   91 D(9,10,5,18)    =     -2.428960    -0.000000    -0.023286    -2.452246
	   92 D(9,10,6,19)    =     -1.139545    -0.000000    -0.015703    -1.155248
	   93 D(10,5,7,12)    =     -0.001400     0.000000     0.018331     0.016931
	   94 D(10,5,7,20)    =    179.623996    -0.000000    -0.047847   179.576149
	   95 D(10,6,8,12)    =      0.262175     0.000000     0.023753     0.285928
	   96 D(10,6,8,21)    =    179.780754    -0.000000    -0.036548   179.744206
	   97 D(10,9,1,14)    =     -2.584891     0.000000    -0.017898    -2.602789
	   98 D(10,9,2,15)    =     -1.258737    -0.000000    -0.014391    -1.273128
	   99 D(11,3,1,14)    =   -178.271146     0.000000     0.013660  -178.257486
	  100 D(11,4,2,15)    =   -178.053206     0.000000     0.020333  -178.032873
	  101 D(12,7,5,18)    =   -178.229097     0.000000     0.029831  -178.199266
	  102 D(12,8,6,19)    =   -178.097434     0.000000     0.031406  -178.066028
	  103 D(13,11,3,16)   =      0.628399     0.000000     0.013453     0.641851
	  104 D(13,11,4,17)   =      0.660945     0.000000     0.011144     0.672088
	  105 D(14,1,3,16)    =      1.142461    -0.000000    -0.002388     1.140073
	  106 D(15,2,4,17)    =      1.363815     0.000000     0.009422     1.373237
	  107 D(18,5,7,20)    =      1.396298    -0.000000    -0.036346     1.359952
	  108 D(19,6,8,21)    =      1.421146    -0.000000    -0.028896     1.392250
	 ---------------------------------------------------------------------------
	Successfully symmetrized geometry.
	 Forces used to impose fixed constraints are not included.
	  Forces zeroed: 63 

  ==> Convergence Check <==

  Measures of convergence in internal coordinates in au.
  Criteria marked as inactive (o), active & met (*), and active & unmet ( ).
  ---------------------------------------------------------------------------------------------
   Step     Total Energy     Delta E     MAX Force     RMS Force      MAX Disp      RMS Disp   
  ---------------------------------------------------------------------------------------------
    Convergence Criteria    1.00e-06 *    3.00e-04 *             o    1.20e-03 *             o
  ---------------------------------------------------------------------------------------------
      6    -553.72568240    3.73e-07 *    4.49e-05 *    1.28e-05 o    9.57e-04 *    2.40e-04 o  ~
  ---------------------------------------------------------------------------------------------


  **** Optimization is complete! (in 6 steps) ****

  ==> Optimization Summary <==

  Measures of convergence in internal coordinates in au.
  --------------------------------------------------------------------------------------------------------------- ~
   Step         Total Energy             Delta E       MAX Force       RMS Force        MAX Disp        RMS Disp  ~
  --------------------------------------------------------------------------------------------------------------- ~
      1    -553.721803838765   -553.721803838765      0.01869850      0.00483402      0.03473373      0.00961640  ~
      2    -553.725000147395     -0.003196308630      0.00552706      0.00157622      0.02491558      0.00960664  ~
      3    -553.725645648089     -0.000645500694      0.00099431      0.00027475      0.01651021      0.00477900  ~
      4    -553.725681195789     -0.000035547700      0.00036443      0.00007720      0.00562639      0.00130281  ~
      5    -553.725682773895     -0.000001578107      0.00007961      0.00002679      0.00229722      0.00063659  ~
      6    -553.725682400449      0.000000373446      0.00004485      0.00001318      0.00095721      0.00024021  ~
  --------------------------------------------------------------------------------------------------------------- ~

	Writing optimization data to binary file.
	Final energy is   -553.7256824004492
	Final (previous) structure:
	Cartesian Geometry (in Angstrom)
	    C    -1.2675885066   0.7364545492  -0.5519692993
	    C    -0.2812364558   0.1096134012   1.5324695483
	    C    -2.3422107560   1.2958740553   0.1151245538
	    C    -1.3548702293   0.6647517272   2.2093923552
	    C     2.1883698883  -0.5091547459  -0.0193808957
	    C     0.7581011244  -1.0432789905  -1.8285775238
	    C     3.2226633807  -1.1017941529  -0.7251937991
	    C     1.8515203371  -1.6118775691  -2.4614978300
	    C    -0.2157664136   0.1359384798   0.1409034396
	    C     0.9103190929  -0.4659511768  -0.5705404928
	    C    -2.3891090166   1.2622179738   1.5017865209
	    N     3.0768959530  -1.6512949735  -1.9331369206
	    O    -3.4713586286   1.8272512761   2.1045297854
	    H    -1.2324004371   0.7957947795  -1.6294127522
	    H     0.4988113524  -0.3789679446   2.0966619678
	    H    -3.1473832797   1.7702436334  -0.4238683911
	    H    -1.3917911248   0.6242518264   3.2892713213
	    H     2.3877562847  -0.0593526858   0.9413847251
	    H    -0.2100434815  -1.0758373498  -2.3046167849
	    H     4.2175521201  -1.1317872996  -0.3030658858
	    H     1.7365382236  -2.0642161122  -3.4367284418
	    H    -3.3791956233   1.7410950204   3.0581832956
	Saving final (previous) structure.
			--------------------------
			 OPTKING Finished Execution 
			--------------------------

    Final optimized geometry and variables:
    Molecular point group: c1
    Full point group: C1

    Geometry (in Angstrom), charge = 0, multiplicity = 1:

    C           -1.267588506557     0.736454549219    -0.551969299273
    C           -0.281236455831     0.109613401223     1.532469548338
    C           -2.342210755952     1.295874055254     0.115124553760
    C           -1.354870229346     0.664751727208     2.209392355214
    C            2.188369888252    -0.509154745903    -0.019380895656
    C            0.758101124433    -1.043278990451    -1.828577523779
    C            3.222663380750    -1.101794152938    -0.725193799052
    C            1.851520337073    -1.611877569054    -2.461497829977
    C           -0.215766413599     0.135938479803     0.140903439576
    C            0.910319092910    -0.465951176815    -0.570540492788
    C           -2.389109016587     1.262217973820     1.501786520931
    N            3.076895952960    -1.651294973462    -1.933136920639
    O           -3.471358628580     1.827251276072     2.104529785438
    H           -1.232400437117     0.795794779518    -1.629412752168
    H            0.498811352374    -0.378967944556     2.096661967839
    H           -3.147383279671     1.770243633381    -0.423868391126
    H           -1.391791124821     0.624251826400     3.289271321273
    H            2.387756284687    -0.059352685815     0.941384725081
    H           -0.210043481492    -1.075837349839    -2.304616784937
    H            4.217552120079    -1.131787299627    -0.303065885794
    H            1.736538223594    -2.064216112232    -3.436728441755
    H           -3.379195623333     1.741095020384     3.058183295601

	Cleaning optimization helper files.

*** Psi4 exiting successfully. Buy a developer a beer!
