
    -----------------------------------------------------------------------
          Psi4: An Open-Source Ab Initio Electronic Structure Package
                               Psi4 1.1 release

                         Git: Rev {HEAD} add49b9 


    R. M. Parrish, L. A. Burns, D. G. A. Smith, A. C. Simmonett,
    A. E. DePrince III, E. G. Hohenstein, U. Bozkaya, A. Yu. Sokolov,
    R. Di Remigio, R. M. Richard, J. F. Gonthier, A. M. James,
    H. R. McAlexander, A. Kumar, M. Saitow, X. Wang, B. P. Pritchard,
    P. Verma, H. F. Schaefer III, K. Patkowski, R. A. King, E. F. Valeev,
    F. A. Evangelista, J. M. Turney, T. D. Crawford, and C. D. Sherrill,
    J. Chem. Theory Comput. in press (2017).
    (doi: 10.1021/acs.jctc.7b00174)

    -----------------------------------------------------------------------


    Psi4 started on: Sunday, 12 November 2017 07:27AM

    Process ID:   9269
    PSIDATADIR: /cbio/jclab/home/chayas/anaconda/envs/py35/share/psi4
    Memory:     500.0 MiB
    Threads:    8
    
  ==> Input File <==

--------------------------------------------------------------------------

memory 5 Gb

molecule phepyrOH_cation {
  symmetry C1
  1 1 
  C      1.885   -1.036   -0.112
  C      2.878   -1.652   2.002
  C      0.807   -0.463   0.561
  C      1.800   -1.079   2.676
  C      4.906   -3.081   0.583
  C      4.251   -1.942   -1.436
  C      5.971   -3.637   -0.112
  C      5.333   -2.526   -2.080
  C      2.921   -1.631   0.608
  C      4.040   -2.225   -0.090
  C      0.764   -0.484   1.955
  N      6.152   -3.347   -1.407
  O      -0.288   0.076   2.612
  H      1.904   -1.012   -1.199
  H      3.678   -2.112   2.578
  H      0.003   -0.001   -0.006
  H      1.772   -1.098   3.762
  H      4.765   -3.320   1.633
  H      3.592   -1.278   -1.986
  H      6.692   -4.311   0.329
  H      5.574   -2.364   -3.121
  H      6.941   -3.765   -1.899
  H      -0.175   -0.018   3.571
  units Angstrom
}

dih_string = "1 9 10 5 195"
set optking fixed_dihedral = $dih_string

optimize('MP2/aug-cc-PVTZ')
--------------------------------------------------------------------------

  Memory set to   4.657 GiB by Python driver.
gradient() will perform analytic gradient computation.

*** tstart() called on gpu-1-8.local
*** at Sun Nov 12 07:27:23 2017

    SCF Algorithm Type (re)set to DF.

*** tstart() called on gpu-1-8.local
*** at Sun Nov 12 07:27:23 2017

   => Loading Basis Set <=

    Name: AUG-CC-PVTZ
    Role: ORBITAL
    Keyword: BASIS
    atoms 1-11  entry C          line   221 file /cbio/jclab/home/chayas/anaconda/envs/py35/share/psi4/basis/aug-cc-pvtz.gbs 
    atoms 12    entry N          line   267 file /cbio/jclab/home/chayas/anaconda/envs/py35/share/psi4/basis/aug-cc-pvtz.gbs 
    atoms 13    entry O          line   313 file /cbio/jclab/home/chayas/anaconda/envs/py35/share/psi4/basis/aug-cc-pvtz.gbs 
    atoms 14-23 entry H          line    34 file /cbio/jclab/home/chayas/anaconda/envs/py35/share/psi4/basis/aug-cc-pvtz.gbs 


         ---------------------------------------------------------
                                   SCF
            by Justin Turney, Rob Parrish, and Andy Simmonett
                              RHF Reference
                        8 Threads,   4768 MiB Core
         ---------------------------------------------------------

  ==> Geometry <==

    Molecular point group: c1
    Full point group: C1

    Geometry (in Angstrom), charge = 1, multiplicity = 1:

       Center              X                  Y                   Z               Mass       
    ------------   -----------------  -----------------  -----------------  -----------------
           C         -1.271916188788     0.719934089614    -0.579391939887    12.000000000000
           C         -0.278916188788     0.103934089614     1.534608060113    12.000000000000
           C         -2.349916188788     1.292934089614     0.093608060113    12.000000000000
           C         -1.356916188788     0.676934089614     2.208608060113    12.000000000000
           C          1.749083811212    -1.325065910386     0.115608060113    12.000000000000
           C          1.094083811212    -0.186065910386    -1.903391939887    12.000000000000
           C          2.814083811212    -1.881065910386    -0.579391939887    12.000000000000
           C          2.176083811212    -0.770065910386    -2.547391939887    12.000000000000
           C         -0.235916188788     0.124934089614     0.140608060113    12.000000000000
           C          0.883083811212    -0.469065910386    -0.557391939887    12.000000000000
           C         -2.392916188788     1.271934089614     1.487608060113    12.000000000000
           N          2.995083811212    -1.591065910386    -1.874391939887    14.003074004780
           O         -3.444916188788     1.831934089614     2.144608060113    15.994914619560
           H         -1.252916188788     0.743934089614    -1.666391939887     1.007825032070
           H          0.521083811212    -0.356065910386     2.110608060113     1.007825032070
           H         -3.153916188788     1.754934089614    -0.473391939887     1.007825032070
           H         -1.384916188788     0.657934089614     3.294608060113     1.007825032070
           H          1.608083811212    -1.564065910386     1.165608060113     1.007825032070
           H          0.435083811212     0.477934089614    -2.453391939887     1.007825032070
           H          3.535083811212    -2.555065910386    -0.138391939887     1.007825032070
           H          2.417083811212    -0.608065910386    -3.588391939887     1.007825032070
           H          3.784083811212    -2.009065910386    -2.366391939887     1.007825032070
           H         -3.331916188788     1.737934089614     3.103608060113     1.007825032070

  Running in c1 symmetry.

  Rotational constants: A =      0.09611  B =      0.01345  C =      0.01185 [cm^-1]
  Rotational constants: A =   2881.15874  B =    403.20140  C =    355.19126 [MHz]
  Nuclear repulsion =  713.645003083330153

  Charge       = 1
  Multiplicity = 1
  Electrons    = 90
  Nalpha       = 45
  Nbeta        = 45

  ==> Algorithm <==

  SCF Algorithm Type is DF.
  DIIS enabled.
  MOM disabled.
  Fractional occupation disabled.
  Guess Type is SAD.
  Energy threshold   = 1.00e-10
  Density threshold  = 1.00e-10
  Integral threshold = 0.00e+00

  ==> Primary Basis <==

  Basis Set: AUG-CC-PVTZ
    Blend: AUG-CC-PVTZ
    Number of shells: 272
    Number of basis function: 828
    Number of Cartesian functions: 965
    Spherical Harmonics?: true
    Max angular momentum: 3

   => Loading Basis Set <=

    Name: (AUG-CC-PVTZ AUX)
    Role: JKFIT
    Keyword: DF_BASIS_SCF
    atoms 1-11  entry C          line   161 file /cbio/jclab/home/chayas/anaconda/envs/py35/share/psi4/basis/aug-cc-pvtz-jkfit.gbs 
    atoms 12    entry N          line   223 file /cbio/jclab/home/chayas/anaconda/envs/py35/share/psi4/basis/aug-cc-pvtz-jkfit.gbs 
    atoms 13    entry O          line   285 file /cbio/jclab/home/chayas/anaconda/envs/py35/share/psi4/basis/aug-cc-pvtz-jkfit.gbs 
    atoms 14-23 entry H          line    69 file /cbio/jclab/home/chayas/anaconda/envs/py35/share/psi4/basis/aug-cc-pvtz-jkfit.gbs 

  ==> Pre-Iterations <==

   -------------------------------------------------------
    Irrep   Nso     Nmo     Nalpha   Nbeta   Ndocc  Nsocc
   -------------------------------------------------------
     A        828     828       0       0       0       0
   -------------------------------------------------------
    Total     828     828      45      45      45       0
   -------------------------------------------------------

  ==> Integral Setup <==

  ==> DFJK: Density-Fitted J/K Matrices <==

    J tasked:                  Yes
    K tasked:                  Yes
    wK tasked:                  No
    OpenMP threads:              8
    Integrals threads:           8
    Memory (MB):              3576
    Algorithm:                Disk
    Integral Cache:           NONE
    Schwarz Cutoff:          1E-12
    Fitting Condition:       1E-12

   => Auxiliary Basis Set <=

  Basis Set: (AUG-CC-PVTZ AUX)
    Blend: AUG-CC-PVTZ-JKFIT
    Number of shells: 530
    Number of basis function: 1812
    Number of Cartesian functions: 2253
    Spherical Harmonics?: true
    Max angular momentum: 4

  Minimum eigenvalue in the overlap matrix is 5.0155023201E-07.
  Using Symmetric Orthogonalization.

  SCF Guess: Superposition of Atomic Densities via on-the-fly atomic UHF.

  ==> Iterations <==

                           Total Energy        Delta E     RMS |[F,P]|

   @DF-RHF iter   0:  -556.50202208791575   -5.56502e+02   2.45922e-02 
   @DF-RHF iter   1:  -551.36049356022590    5.14153e+00   1.57782e-03 
   @DF-RHF iter   2:  -551.61732235626789   -2.56829e-01   8.77438e-04 DIIS
   @DF-RHF iter   3:  -551.65911771126207   -4.17954e-02   4.09281e-04 DIIS
   @DF-RHF iter   4:  -551.67147746357773   -1.23598e-02   1.19226e-04 DIIS
   @DF-RHF iter   5:  -551.67317627281693   -1.69881e-03   5.74721e-05 DIIS
   @DF-RHF iter   6:  -551.67353551436190   -3.59242e-04   1.64195e-05 DIIS
   @DF-RHF iter   7:  -551.67356463617693   -2.91218e-05   4.92064e-06 DIIS
   @DF-RHF iter   8:  -551.67356801520225   -3.37903e-06   1.70198e-06 DIIS
   @DF-RHF iter   9:  -551.67356853089132   -5.15689e-07   8.37424e-07 DIIS
   @DF-RHF iter  10:  -551.67356870643562   -1.75544e-07   3.41941e-07 DIIS
   @DF-RHF iter  11:  -551.67356875378562   -4.73500e-08   1.62280e-07 DIIS
   @DF-RHF iter  12:  -551.67356876117492   -7.38930e-09   5.64776e-08 DIIS
   @DF-RHF iter  13:  -551.67356876220879   -1.03387e-09   2.60833e-08 DIIS
   @DF-RHF iter  14:  -551.67356876235829   -1.49498e-10   1.08349e-08 DIIS
   @DF-RHF iter  15:  -551.67356876238409   -2.58069e-11   3.68636e-09 DIIS
   @DF-RHF iter  16:  -551.67356876240660   -2.25100e-11   1.99105e-09 DIIS
   @DF-RHF iter  17:  -551.67356876239239    1.42109e-11   4.91319e-10 DIIS
   @DF-RHF iter  18:  -551.67356876240524   -1.28466e-11   3.01233e-10 DIIS
   @DF-RHF iter  19:  -551.67356876239478    1.04592e-11   1.41263e-10 DIIS
   @DF-RHF iter  20:  -551.67356876239069    4.09273e-12   4.86616e-11 DIIS

  ==> Post-Iterations <==

    Orbital Energies (a.u.)
    -----------------------

    Doubly Occupied:                                                      

       1A    -20.706381     2A    -15.829265     3A    -11.481877  
       4A    -11.481826     5A    -11.445112     6A    -11.438040  
       7A    -11.412020     8A    -11.411879     9A    -11.383025  
      10A    -11.381200    11A    -11.372564    12A    -11.359879  
      13A    -11.356205    14A     -1.521064    15A     -1.508030  
      16A     -1.321282    17A     -1.264747    18A     -1.234875  
      19A     -1.155715    20A     -1.154272    21A     -1.067645  
      22A     -1.053839    23A     -0.978115    24A     -0.960039  
      25A     -0.951828    26A     -0.871695    27A     -0.860144  
      28A     -0.854639    29A     -0.822921    30A     -0.798106  
      31A     -0.777658    32A     -0.772718    33A     -0.759980  
      34A     -0.736718    35A     -0.718277    36A     -0.707229  
      37A     -0.703869    38A     -0.683734    39A     -0.656035  
      40A     -0.644967    41A     -0.621580    42A     -0.569594  
      43A     -0.536200    44A     -0.472087    45A     -0.437823  

    Virtual:                                                              

      46A     -0.106056    47A     -0.083502    48A     -0.064645  
      49A     -0.062740    50A     -0.059518    51A     -0.046403  
      52A     -0.044266    53A     -0.039606    54A     -0.031895  
      55A     -0.026200    56A     -0.025279    57A     -0.022286  
      58A     -0.017972    59A     -0.008116    60A     -0.006830  
      61A     -0.001077    62A      0.005046    63A      0.006131  
      64A      0.008951    65A      0.017415    66A      0.019250  
      67A      0.021439    68A      0.024805    69A      0.025905  
      70A      0.030385    71A      0.032462    72A      0.034672  
      73A      0.036550    74A      0.040155    75A      0.048678  
      76A      0.049890    77A      0.056376    78A      0.059625  
      79A      0.063678    80A      0.065812    81A      0.070423  
      82A      0.073854    83A      0.076681    84A      0.078772  
      85A      0.084941    86A      0.086378    87A      0.087240  
      88A      0.096445    89A      0.101280    90A      0.105847  
      91A      0.108064    92A      0.114393    93A      0.120240  
      94A      0.126462    95A      0.129824    96A      0.133489  
      97A      0.135046    98A      0.137075    99A      0.142498  
     100A      0.146063   101A      0.150349   102A      0.155273  
     103A      0.159717   104A      0.163498   105A      0.165185  
     106A      0.169761   107A      0.171413   108A      0.174694  
     109A      0.179776   110A      0.183965   111A      0.188468  
     112A      0.190363   113A      0.196563   114A      0.198519  
     115A      0.206781   116A      0.209974   117A      0.211225  
     118A      0.217746   119A      0.220938   120A      0.224724  
     121A      0.226088   122A      0.228604   123A      0.230945  
     124A      0.234936   125A      0.236421   126A      0.241894  
     127A      0.244268   128A      0.250183   129A      0.253450  
     130A      0.256047   131A      0.266162   132A      0.271675  
     133A      0.274667   134A      0.280959   135A      0.283884  
     136A      0.285205   137A      0.290374   138A      0.297167  
     139A      0.303827   140A      0.304963   141A      0.306444  
     142A      0.311828   143A      0.315170   144A      0.318856  
     145A      0.325241   146A      0.328332   147A      0.330557  
     148A      0.336041   149A      0.336624   150A      0.337878  
     151A      0.341052   152A      0.345465   153A      0.349371  
     154A      0.353508   155A      0.355552   156A      0.359075  
     157A      0.365183   158A      0.367235   159A      0.369777  
     160A      0.375113   161A      0.378771   162A      0.382977  
     163A      0.386805   164A      0.389790   165A      0.391554  
     166A      0.393450   167A      0.394545   168A      0.398345  
     169A      0.405104   170A      0.408970   171A      0.411033  
     172A      0.414949   173A      0.418341   174A      0.420092  
     175A      0.430553   176A      0.432821   177A      0.437458  
     178A      0.439878   179A      0.446396   180A      0.449417  
     181A      0.452709   182A      0.457696   183A      0.462967  
     184A      0.465353   185A      0.471014   186A      0.482718  
     187A      0.493284   188A      0.496027   189A      0.503274  
     190A      0.508402   191A      0.510644   192A      0.513621  
     193A      0.525407   194A      0.534485   195A      0.538233  
     196A      0.539543   197A      0.546093   198A      0.550455  
     199A      0.562499   200A      0.565657   201A      0.569746  
     202A      0.576225   203A      0.577207   204A      0.584457  
     205A      0.587441   206A      0.589383   207A      0.594730  
     208A      0.596152   209A      0.607603   210A      0.614015  
     211A      0.619159   212A      0.626285   213A      0.632153  
     214A      0.638608   215A      0.641651   216A      0.643714  
     217A      0.647685   218A      0.656343   219A      0.660178  
     220A      0.669581   221A      0.676143   222A      0.681712  
     223A      0.687859   224A      0.700512   225A      0.703259  
     226A      0.706207   227A      0.712918   228A      0.717143  
     229A      0.722683   230A      0.723746   231A      0.733339  
     232A      0.734842   233A      0.737885   234A      0.743076  
     235A      0.746722   236A      0.750048   237A      0.759495  
     238A      0.762020   239A      0.767754   240A      0.773414  
     241A      0.776311   242A      0.778818   243A      0.784688  
     244A      0.787575   245A      0.789128   246A      0.796956  
     247A      0.801349   248A      0.805015   249A      0.807284  
     250A      0.810423   251A      0.813337   252A      0.815847  
     253A      0.819631   254A      0.832133   255A      0.837663  
     256A      0.844651   257A      0.848872   258A      0.854756  
     259A      0.856534   260A      0.857804   261A      0.865350  
     262A      0.866928   263A      0.869055   264A      0.875695  
     265A      0.877040   266A      0.880608   267A      0.885583  
     268A      0.896102   269A      0.900093   270A      0.903271  
     271A      0.906507   272A      0.910592   273A      0.917986  
     274A      0.920467   275A      0.930045   276A      0.937780  
     277A      0.938866   278A      0.944197   279A      0.947357  
     280A      0.950212   281A      0.952640   282A      0.957018  
     283A      0.961639   284A      0.972206   285A      0.977065  
     286A      0.979421   287A      0.981531   288A      0.985267  
     289A      0.993518   290A      0.999817   291A      1.003094  
     292A      1.010433   293A      1.014918   294A      1.015121  
     295A      1.020799   296A      1.023034   297A      1.025753  
     298A      1.034208   299A      1.038497   300A      1.047969  
     301A      1.052854   302A      1.056226   303A      1.058697  
     304A      1.060632   305A      1.065153   306A      1.067457  
     307A      1.068595   308A      1.075977   309A      1.081854  
     310A      1.087172   311A      1.095823   312A      1.100836  
     313A      1.106328   314A      1.110210   315A      1.112561  
     316A      1.121741   317A      1.125806   318A      1.126590  
     319A      1.131866   320A      1.138184   321A      1.147665  
     322A      1.150691   323A      1.155573   324A      1.161777  
     325A      1.164626   326A      1.172324   327A      1.173418  
     328A      1.180917   329A      1.192545   330A      1.197281  
     331A      1.207747   332A      1.218714   333A      1.222651  
     334A      1.226943   335A      1.242349   336A      1.243852  
     337A      1.244522   338A      1.251411   339A      1.261726  
     340A      1.263177   341A      1.274321   342A      1.278602  
     343A      1.286624   344A      1.289327   345A      1.296794  
     346A      1.311953   347A      1.318662   348A      1.324070  
     349A      1.334196   350A      1.336270   351A      1.340801  
     352A      1.352408   353A      1.359514   354A      1.365010  
     355A      1.371024   356A      1.373724   357A      1.374678  
     358A      1.382597   359A      1.394279   360A      1.401064  
     361A      1.405538   362A      1.411745   363A      1.420147  
     364A      1.429413   365A      1.440725   366A      1.442936  
     367A      1.455782   368A      1.466021   369A      1.476117  
     370A      1.480516   371A      1.484776   372A      1.493826  
     373A      1.504261   374A      1.511136   375A      1.520051  
     376A      1.531039   377A      1.534161   378A      1.541701  
     379A      1.546940   380A      1.554874   381A      1.562888  
     382A      1.566330   383A      1.572242   384A      1.579343  
     385A      1.588264   386A      1.603059   387A      1.619348  
     388A      1.627207   389A      1.638502   390A      1.643765  
     391A      1.651634   392A      1.656594   393A      1.665052  
     394A      1.672703   395A      1.681784   396A      1.685808  
     397A      1.690565   398A      1.693057   399A      1.705881  
     400A      1.712489   401A      1.728198   402A      1.735438  
     403A      1.737380   404A      1.739502   405A      1.743996  
     406A      1.752587   407A      1.762658   408A      1.765709  
     409A      1.775735   410A      1.791008   411A      1.797404  
     412A      1.809302   413A      1.813633   414A      1.818644  
     415A      1.833405   416A      1.837749   417A      1.847173  
     418A      1.850184   419A      1.858228   420A      1.858656  
     421A      1.868709   422A      1.875063   423A      1.887054  
     424A      1.903239   425A      1.905790   426A      1.909397  
     427A      1.912180   428A      1.916508   429A      1.922315  
     430A      1.931263   431A      1.935015   432A      1.936393  
     433A      1.941277   434A      1.950119   435A      1.959431  
     436A      1.973801   437A      1.982039   438A      1.992579  
     439A      1.997514   440A      2.002382   441A      2.005144  
     442A      2.027595   443A      2.029722   444A      2.035201  
     445A      2.038696   446A      2.045696   447A      2.060416  
     448A      2.067113   449A      2.069123   450A      2.087649  
     451A      2.092483   452A      2.102282   453A      2.106295  
     454A      2.116839   455A      2.135779   456A      2.139424  
     457A      2.161759   458A      2.165596   459A      2.177349  
     460A      2.183159   461A      2.193218   462A      2.201544  
     463A      2.215279   464A      2.219824   465A      2.232335  
     466A      2.239564   467A      2.249551   468A      2.262862  
     469A      2.272669   470A      2.282503   471A      2.288106  
     472A      2.293031   473A      2.299492   474A      2.309764  
     475A      2.315757   476A      2.336322   477A      2.356880  
     478A      2.360417   479A      2.376780   480A      2.379489  
     481A      2.387452   482A      2.409606   483A      2.415730  
     484A      2.418877   485A      2.427779   486A      2.431336  
     487A      2.444924   488A      2.453275   489A      2.460359  
     490A      2.478356   491A      2.488049   492A      2.511255  
     493A      2.517933   494A      2.533899   495A      2.558655  
     496A      2.561714   497A      2.571489   498A      2.588928  
     499A      2.607943   500A      2.614791   501A      2.634067  
     502A      2.656142   503A      2.662349   504A      2.681169  
     505A      2.715804   506A      2.727255   507A      2.732460  
     508A      2.750806   509A      2.753828   510A      2.777482  
     511A      2.783519   512A      2.799073   513A      2.833157  
     514A      2.854041   515A      2.861473   516A      2.890752  
     517A      2.910445   518A      2.951942   519A      2.965088  
     520A      2.970328   521A      2.978722   522A      2.995873  
     523A      3.019753   524A      3.036432   525A      3.053783  
     526A      3.066498   527A      3.089531   528A      3.101888  
     529A      3.105764   530A      3.129496   531A      3.146027  
     532A      3.152409   533A      3.170099   534A      3.180941  
     535A      3.181782   536A      3.198442   537A      3.201837  
     538A      3.222779   539A      3.228686   540A      3.236554  
     541A      3.245569   542A      3.251438   543A      3.258488  
     544A      3.261751   545A      3.277420   546A      3.290169  
     547A      3.298713   548A      3.310674   549A      3.328396  
     550A      3.344103   551A      3.352578   552A      3.357829  
     553A      3.365759   554A      3.385932   555A      3.389510  
     556A      3.395814   557A      3.401711   558A      3.409409  
     559A      3.418114   560A      3.421291   561A      3.425394  
     562A      3.431585   563A      3.452669   564A      3.458304  
     565A      3.473554   566A      3.477583   567A      3.488358  
     568A      3.502212   569A      3.511908   570A      3.517244  
     571A      3.525265   572A      3.541946   573A      3.544032  
     574A      3.550182   575A      3.563401   576A      3.579150  
     577A      3.581966   578A      3.594777   579A      3.607560  
     580A      3.610574   581A      3.633833   582A      3.637545  
     583A      3.643020   584A      3.650835   585A      3.655979  
     586A      3.675267   587A      3.681350   588A      3.687769  
     589A      3.704753   590A      3.715497   591A      3.718522  
     592A      3.731306   593A      3.738784   594A      3.750034  
     595A      3.761291   596A      3.771913   597A      3.777579  
     598A      3.784885   599A      3.787955   600A      3.793901  
     601A      3.796460   602A      3.801910   603A      3.818253  
     604A      3.831267   605A      3.832246   606A      3.849867  
     607A      3.858908   608A      3.859503   609A      3.868156  
     610A      3.874149   611A      3.880390   612A      3.884756  
     613A      3.902168   614A      3.907878   615A      3.910906  
     616A      3.925774   617A      3.936645   618A      3.956053  
     619A      3.962282   620A      3.976362   621A      3.980386  
     622A      3.991339   623A      4.002421   624A      4.009721  
     625A      4.024575   626A      4.029878   627A      4.046077  
     628A      4.048025   629A      4.051181   630A      4.063334  
     631A      4.077834   632A      4.082542   633A      4.084663  
     634A      4.088865   635A      4.103888   636A      4.111633  
     637A      4.114763   638A      4.118093   639A      4.128036  
     640A      4.146023   641A      4.153433   642A      4.171348  
     643A      4.178151   644A      4.185837   645A      4.188015  
     646A      4.194720   647A      4.203421   648A      4.204915  
     649A      4.212191   650A      4.227241   651A      4.237499  
     652A      4.247853   653A      4.260206   654A      4.270378  
     655A      4.277685   656A      4.283025   657A      4.285283  
     658A      4.292435   659A      4.305299   660A      4.317152  
     661A      4.321230   662A      4.332096   663A      4.345643  
     664A      4.349345   665A      4.356213   666A      4.358462  
     667A      4.368419   668A      4.382910   669A      4.396336  
     670A      4.400629   671A      4.411320   672A      4.423148  
     673A      4.426357   674A      4.436600   675A      4.453413  
     676A      4.459960   677A      4.465799   678A      4.491529  
     679A      4.502545   680A      4.514339   681A      4.533862  
     682A      4.541674   683A      4.566338   684A      4.569797  
     685A      4.581983   686A      4.592398   687A      4.599843  
     688A      4.626615   689A      4.638451   690A      4.644690  
     691A      4.654427   692A      4.659458   693A      4.673465  
     694A      4.675329   695A      4.698445   696A      4.723171  
     697A      4.727800   698A      4.757013   699A      4.759512  
     700A      4.779353   701A      4.786395   702A      4.793516  
     703A      4.808957   704A      4.813997   705A      4.815334  
     706A      4.831028   707A      4.841741   708A      4.846290  
     709A      4.888284   710A      4.897613   711A      4.904861  
     712A      4.908205   713A      4.939207   714A      4.946081  
     715A      4.960559   716A      4.961928   717A      4.972923  
     718A      4.985688   719A      4.991013   720A      5.002891  
     721A      5.012632   722A      5.018051   723A      5.021870  
     724A      5.035289   725A      5.050001   726A      5.061920  
     727A      5.082599   728A      5.090309   729A      5.099950  
     730A      5.122527   731A      5.148036   732A      5.170488  
     733A      5.181989   734A      5.196730   735A      5.205032  
     736A      5.207290   737A      5.216336   738A      5.247786  
     739A      5.269115   740A      5.278605   741A      5.291484  
     742A      5.314533   743A      5.327468   744A      5.337233  
     745A      5.350481   746A      5.387118   747A      5.390305  
     748A      5.397202   749A      5.420620   750A      5.427255  
     751A      5.456683   752A      5.484673   753A      5.506178  
     754A      5.558280   755A      5.591090   756A      5.598351  
     757A      5.607383   758A      5.612777   759A      5.618991  
     760A      5.631110   761A      5.659779   762A      5.691618  
     763A      5.699035   764A      5.705929   765A      5.739129  
     766A      5.764233   767A      5.791544   768A      5.843664  
     769A      5.846858   770A      5.862144   771A      5.952828  
     772A      5.971614   773A      5.994856   774A      5.998232  
     775A      6.049174   776A      6.084697   777A      6.103145  
     778A      6.143785   779A      6.197780   780A      6.230289  
     781A      6.283601   782A      6.323250   783A      6.332287  
     784A      6.362907   785A      6.372164   786A      6.424365  
     787A      6.453588   788A      6.498967   789A      6.507764  
     790A      6.561664   791A      6.601001   792A      6.637850  
     793A      6.702989   794A      6.757855   795A      6.791682  
     796A      6.805901   797A      6.806892   798A      6.817597  
     799A      6.847556   800A      6.898899   801A      6.955236  
     802A      6.987697   803A      6.997672   804A      7.120188  
     805A      7.157347   806A      7.318854   807A      7.331863  
     808A      7.478587   809A      7.553718   810A      7.578211  
     811A      7.615004   812A      7.653155   813A      7.912372  
     814A      8.290055   815A      8.539033   816A     15.983759  
     817A     16.292335   818A     16.634853   819A     17.130322  
     820A     17.177389   821A     18.784265   822A     19.429041  
     823A     19.552260   824A     19.823393   825A     20.286342  
     826A     20.347157   827A     20.738399   828A     21.512614  

    Final Occupation by Irrep:
              A 
    DOCC [    45 ]

  Energy converged.

  @DF-RHF Final Energy:  -551.67356876239069

   => Energetics <=

    Nuclear Repulsion Energy =            713.6450030833301525
    One-Electron Energy =               -2150.1637475429847655
    Two-Electron Energy =                 884.8451756972638123
    DFT Exchange-Correlation Energy =       0.0000000000000000
    Empirical Dispersion Energy =           0.0000000000000000
    PCM Polarization Energy =               0.0000000000000000
    EFP Energy =                            0.0000000000000000
    Total Energy =                       -551.6735687623906870



Properties will be evaluated at   0.000000,   0.000000,   0.000000 Bohr

Properties computed using the SCF density matrix

  Nuclear Dipole Moment: (a.u.)
     X:     2.9529      Y:    -1.5987      Z:    -0.9329

  Electronic Dipole Moment: (a.u.)
     X:     0.1895      Y:    -0.0892      Z:    -0.4257

  Dipole Moment: (a.u.)
     X:     3.1425      Y:    -1.6879      Z:    -1.3585     Total:     3.8170

  Dipole Moment: (Debye)
     X:     7.9873      Y:    -4.2902      Z:    -3.4531     Total:     9.7019


*** tstop() called on gpu-1-8.local at Sun Nov 12 07:35:38 2017
Module time:
	user time   =    1163.32 seconds =      19.39 minutes
	system time =      55.32 seconds =       0.92 minutes
	total time  =        495 seconds =       8.25 minutes
Total time:
	user time   =    1163.33 seconds =      19.39 minutes
	system time =      55.32 seconds =       0.92 minutes
	total time  =        495 seconds =       8.25 minutes

  //>>>>>>>>>>>>>>>>>>>>>>>>>>>>>>>>>>>//
  //               DFMP2               //
  //<<<<<<<<<<<<<<<<<<<<<<<<<<<<<<<<<<<//

   => Loading Basis Set <=

    Name: (AUG-CC-PVTZ AUX)
    Role: RIFIT
    Keyword: DF_BASIS_MP2
    atoms 1-11  entry C          line   147 file /cbio/jclab/home/chayas/anaconda/envs/py35/share/psi4/basis/aug-cc-pvtz-ri.gbs 
    atoms 12    entry N          line   205 file /cbio/jclab/home/chayas/anaconda/envs/py35/share/psi4/basis/aug-cc-pvtz-ri.gbs 
    atoms 13    entry O          line   263 file /cbio/jclab/home/chayas/anaconda/envs/py35/share/psi4/basis/aug-cc-pvtz-ri.gbs 
    atoms 14-23 entry H          line    29 file /cbio/jclab/home/chayas/anaconda/envs/py35/share/psi4/basis/aug-cc-pvtz-ri.gbs 

	 --------------------------------------------------------
	                          DF-MP2                         
	      2nd-Order Density-Fitted Moller-Plesset Theory     
	              RMP2 Wavefunction,   8 Threads             
	                                                         
	        Rob Parrish, Justin Turney, Andy Simmonett,      
	           Ed Hohenstein, and C. David Sherrill          
	 --------------------------------------------------------

   => Auxiliary Basis Set <=

  Basis Set: (AUG-CC-PVTZ AUX)
    Blend: AUG-CC-PVTZ-RI
    Number of shells: 504
    Number of basis function: 1838
    Number of Cartesian functions: 2318
    Spherical Harmonics?: true
    Max angular momentum: 4

	 --------------------------------------------------------
	                 NBF =   828, NAUX =  1838
	 --------------------------------------------------------
	   CLASS    FOCC     OCC    AOCC    AVIR     VIR    FVIR
	   PAIRS       0      45      45     783     783       0
	 --------------------------------------------------------


         ------------------------------------------------------------
                                     CPHF                           
                                  Rob Parrish                       
         ------------------------------------------------------------

  ==> Geometry <==

    Molecular point group: c1
    Full point group: C1

    Geometry (in Angstrom), charge = 1, multiplicity = 1:

       Center              X                  Y                   Z               Mass       
    ------------   -----------------  -----------------  -----------------  -----------------
           C         -1.271916188788     0.719934089614    -0.579391939887    12.000000000000
           C         -0.278916188788     0.103934089614     1.534608060113    12.000000000000
           C         -2.349916188788     1.292934089614     0.093608060113    12.000000000000
           C         -1.356916188788     0.676934089614     2.208608060113    12.000000000000
           C          1.749083811212    -1.325065910386     0.115608060113    12.000000000000
           C          1.094083811212    -0.186065910386    -1.903391939887    12.000000000000
           C          2.814083811212    -1.881065910386    -0.579391939887    12.000000000000
           C          2.176083811212    -0.770065910386    -2.547391939887    12.000000000000
           C         -0.235916188788     0.124934089614     0.140608060113    12.000000000000
           C          0.883083811212    -0.469065910386    -0.557391939887    12.000000000000
           C         -2.392916188788     1.271934089614     1.487608060113    12.000000000000
           N          2.995083811212    -1.591065910386    -1.874391939887    14.003074004780
           O         -3.444916188788     1.831934089614     2.144608060113    15.994914619560
           H         -1.252916188788     0.743934089614    -1.666391939887     1.007825032070
           H          0.521083811212    -0.356065910386     2.110608060113     1.007825032070
           H         -3.153916188788     1.754934089614    -0.473391939887     1.007825032070
           H         -1.384916188788     0.657934089614     3.294608060113     1.007825032070
           H          1.608083811212    -1.564065910386     1.165608060113     1.007825032070
           H          0.435083811212     0.477934089614    -2.453391939887     1.007825032070
           H          3.535083811212    -2.555065910386    -0.138391939887     1.007825032070
           H          2.417083811212    -0.608065910386    -3.588391939887     1.007825032070
           H          3.784083811212    -2.009065910386    -2.366391939887     1.007825032070
           H         -3.331916188788     1.737934089614     3.103608060113     1.007825032070

  Nuclear repulsion =  713.645003083329925
  Reference energy  = -551.673568762390687

  ==> Basis Set <==

  Basis Set: AUG-CC-PVTZ
    Blend: AUG-CC-PVTZ
    Number of shells: 272
    Number of basis function: 828
    Number of Cartesian functions: 965
    Spherical Harmonics?: true
    Max angular momentum: 3

  ==> CGRSolver (by Rob Parrish) <==

   Number of roots    =         1
   Preconditioning    =    JACOBI
   Convergence cutoff =     1E-06
   Maximum iterations =       100

  ==> CPHFRHamiltonian (by Rob Parrish) <== 

  ==> DFJK: Density-Fitted J/K Matrices <==

    J tasked:                  Yes
    K tasked:                  Yes
    wK tasked:                  No
    OpenMP threads:              8
    Integrals threads:           8
    Memory (MB):              3576
    Algorithm:                Disk
    Integral Cache:           NONE
    Schwarz Cutoff:          1E-12
    Fitting Condition:       1E-12

   => Auxiliary Basis Set <=

  Basis Set: (AUG-CC-PVTZ AUX)
    Blend: AUG-CC-PVTZ-JKFIT
    Number of shells: 530
    Number of basis function: 1812
    Number of Cartesian functions: 2253
    Spherical Harmonics?: true
    Max angular momentum: 4

  ==> CPHF Iterations <==

  => Iterations <=

             Iter  Converged  Remaining    Residual
  CGR           1          0          1   1.152E-01
  CGR           2          0          1   5.293E-02
  CGR           3          0          1   3.080E-02
  CGR           4          0          1   1.001E-02
  CGR           5          0          1   4.843E-03
  CGR           6          0          1   2.408E-03
  CGR           7          0          1   7.305E-04
  CGR           8          0          1   2.931E-04
  CGR           9          0          1   1.387E-04
  CGR          10          0          1   4.603E-05
  CGR          11          0          1   1.451E-05
  CGR          12          0          1   5.430E-06
  CGR          13          0          1   1.687E-06
  CGR          14          1          0   5.272E-07

    CGRSolver converged.

  ==> DFCorrGrad: Density-Fitted Correlated Gradients <==

    OpenMP threads:              8
    Integrals threads:           8
    Memory (MB):              3576
    Schwarz Cutoff:          0E+00
    Fitting Condition:       1E-12

   => Auxiliary Basis Set <=

  Basis Set: (AUG-CC-PVTZ AUX)
    Blend: AUG-CC-PVTZ-JKFIT
    Number of shells: 530
    Number of basis function: 1812
    Number of Cartesian functions: 2253
    Spherical Harmonics?: true
    Max angular momentum: 4

	-----------------------------------------------------------
	 ==================> DF-MP2 Energies <==================== 
	-----------------------------------------------------------
	 Reference Energy          =    -551.6735687623906870 [Eh]
	 Singles Energy            =      -0.0000000000000001 [Eh]
	 Same-Spin Energy          =      -0.5969486552419584 [Eh]
	 Opposite-Spin Energy      =      -1.8265190454094771 [Eh]
	 Correlation Energy        =      -2.4234677006514356 [Eh]
	 Total Energy              =    -554.0970364630421727 [Eh]
	-----------------------------------------------------------
	 ================> DF-SCS-MP2 Energies <================== 
	-----------------------------------------------------------
	 SCS Same-Spin Scale       =       0.3333333333333333 [-]
	 SCS Opposite-Spin Scale   =       1.2000000000000000 [-]
	 SCS Same-Spin Energy      =      -0.1989828850806528 [Eh]
	 SCS Opposite-Spin Energy  =      -2.1918228544913725 [Eh]
	 SCS Correlation Energy    =      -2.3908057395720252 [Eh]
	 SCS Total Energy          =    -554.0643745019626749 [Eh]
	-----------------------------------------------------------


  -Total Gradient:
     Atom            X                  Y                   Z
    ------   -----------------  -----------------  -----------------
       1        0.011361928154    -0.008517593175    -0.007773368331
       2        0.011550875981    -0.003258616393    -0.010045952883
       3       -0.000803429735     0.000128636771     0.008971614320
       4       -0.013192746282     0.006882192288     0.005915834533
       5       -0.020124709658     0.009921016216     0.009854149844
       6       -0.018111905058     0.010434926982     0.013354321394
       7        0.004844318202     0.000676232396    -0.015117243671
       8        0.011266869366    -0.008843423236     0.003926196967
       9       -0.004355713163     0.002210605394     0.002297038819
      10        0.015737871767    -0.008242759552    -0.009909839717
      11        0.004247826044    -0.001828819648    -0.015571376694
      12       -0.002259348559     0.000839144836     0.002505845256
      13       -0.006221083270     0.003151171269     0.009807209608
      14        0.003816832669     0.000078947411    -0.007979414618
      15        0.006316464022    -0.005595347997     0.001932422730
      16       -0.002878708553     0.002144873563    -0.005118319142
      17        0.000255561518    -0.000561074824     0.004393745821
      18       -0.002712614100     0.001173095511     0.008828117016
      19       -0.007448269715     0.004132546261    -0.001935751484
      20        0.002379272115    -0.001408169896    -0.000294930574
      21        0.001522622436    -0.000752706620    -0.002023363170
      22        0.005232250836    -0.002725236569    -0.003250966112
      23       -0.000424165011    -0.000039640983     0.007234030099


*** tstop() called on gpu-1-8.local at Sun Nov 12 08:09:19 2017
Module time:
	user time   =    5518.27 seconds =      91.97 minutes
	system time =     126.29 seconds =       2.10 minutes
	total time  =       2516 seconds =      41.93 minutes
Total time:
	user time   =    5518.28 seconds =      91.97 minutes
	system time =     126.29 seconds =       2.10 minutes
	total time  =       2516 seconds =      41.93 minutes

			-----------------------------------------
			 OPTKING 2.0: for geometry optimizations 
			  - R.A. King,  Bethel University        
			-----------------------------------------

	Internal coordinates to be generated automatically.
	Detected frag 1 with atoms:  1 2 3 4 5 6 7 8 9 10 11 12 13 14 15 16 17 18 19 20
	 21 22 23
	---Fragment 1 Bond Connectivity---
	 1 : 3 9 14
	 2 : 4 9 15
	 3 : 1 11 16
	 4 : 2 11 17
	 5 : 7 10 18
	 6 : 8 10 19
	 7 : 5 12 20
	 8 : 6 12 21
	 9 : 1 2 10
	 10 : 5 6 9
	 11 : 3 4 13
	 12 : 7 8 22
	 13 : 11 23
	 14 : 1
	 15 : 2
	 16 : 3
	 17 : 4
	 18 : 5
	 19 : 6
	 20 : 7
	 21 : 8
	 22 : 12
	 23 : 13

	Assuming in current code that numbering for constraints corresponds to unified fragment.
	Fixed dihedral atom list: 
	     1     9    10     5
	---Fragment 1 Geometry and Gradient---
	 C          -2.4035732608        1.3604782631       -1.0948920900
	 C          -0.5270752108        0.1964069652        2.8999889549
	 C          -4.4406980320        2.4432913372        0.1768935974
	 C          -2.5641999821        1.2792200394        4.1736643685
	 C           3.3052893867       -2.5040116787        0.2184675724
	 C           2.0675187696       -0.3516136133       -3.5968894899
	 C           5.3178477182       -3.5546994085       -1.0948920900
	 C           4.1122024454       -1.4552136749       -4.8138731195
	 C          -0.4458169871        0.2360912140        0.2657107257
	 C           1.6687865556       -0.8864061089       -1.0533181151
	 C          -4.5219562558        2.4036070885        2.8111718267
	 N           5.6598881482       -3.0066788300       -3.5420874321
	 O          -6.5099481476        3.4618537229        4.0527218960
	 H          -2.3676684643        1.4058316903       -3.1490243964
	 H           0.9847056955       -0.6728670559        3.9884712075
	 H          -5.9600378429        3.3163448106       -0.8945811199
	 H          -2.6171123138        1.2433152429        6.2259069488
	 H           3.0388380019       -2.9556562244        2.2026800119
	 H           0.8221892480        0.9031645389       -4.6362388630
	 H           6.6803402600       -4.8283748221       -0.2615228654
	 H           4.5676264434       -1.1490780414       -6.7810780238
	 H           7.1508820671       -3.7965843535       -4.4718326895
	 H          -6.2964090945        3.2842194664        5.8649692574
	             0.0113619282       -0.0085175932       -0.0077733683
	             0.0115508760       -0.0032586164       -0.0100459529
	            -0.0008034297        0.0001286368        0.0089716143
	            -0.0131927463        0.0068821923        0.0059158345
	            -0.0201247097        0.0099210162        0.0098541498
	            -0.0181119051        0.0104349270        0.0133543214
	             0.0048443182        0.0006762324       -0.0151172437
	             0.0112668694       -0.0088434232        0.0039261970
	            -0.0043557132        0.0022106054        0.0022970388
	             0.0157378718       -0.0082427596       -0.0099098397
	             0.0042478260       -0.0018288196       -0.0155713767
	            -0.0022593486        0.0008391448        0.0025058453
	            -0.0062210833        0.0031511713        0.0098072096
	             0.0038168327        0.0000789474       -0.0079794146
	             0.0063164640       -0.0055953480        0.0019324227
	            -0.0028787086        0.0021448736       -0.0051183191
	             0.0002555615       -0.0005610748        0.0043937458
	            -0.0027126141        0.0011730955        0.0088281170
	            -0.0074482697        0.0041325463       -0.0019357515
	             0.0023792721       -0.0014081699       -0.0002949306
	             0.0015226224       -0.0007527066       -0.0020233632
	             0.0052322508       -0.0027252366       -0.0032509661
	            -0.0004241650       -0.0000396410        0.0072340301

	Previous optimization step data not found.  Starting new optimization.

	---Fragment 1 Intrafragment Coordinates---
	 - Coordinate -           - BOHR/RAD -       - ANG/DEG -
	 R(1,3)           =         2.634350	       1.394038
	 R(1,9)           =         2.635962	       1.394891
	 R(1,14)          =         2.054947	       1.087431
	 R(2,4)           =         2.635263	       1.394521
	 R(2,9)           =         2.635830	       1.394821
	 R(2,15)          =         2.055702	       1.087831
	 R(3,11)          =         2.635830	       1.394821
	 R(3,16)          =         2.053941	       1.086899
	 R(4,11)          =         2.636938	       1.395407
	 R(4,17)          =         2.053239	       1.086527
	 R(5,7)           =         2.622832	       1.387943
	 R(5,10)          =         2.629112	       1.391266
	 R(5,18)          =         2.052335	       1.086049
	 R(6,8)           =         2.622921	       1.387990
	 R(6,10)          =         2.629590	       1.391519
	 R(6,19)          =         2.050746	       1.085208
	 R(7,12)          =         2.531024	       1.339360
	 R(7,20)          =         2.042826	       1.081017
	 R(8,12)          =         2.533735	       1.340795
	 R(8,21)          =         2.042309	       1.080743
	 R(9,10)          =         2.733384	       1.446444
	 R(11,13)         =         2.571662	       1.360865
	 R(12,22)         =         1.926510	       1.019465
	 R(13,23)         =         1.833410	       0.970199
	 B(1,3,11)        =         2.094553	     120.009056
	 B(1,3,16)        =         2.088505	     119.662516
	 B(1,9,2)         =         2.093692	     119.959722
	 B(1,9,10)        =         2.095161	     120.043881
	 B(2,4,11)        =         2.093699	     119.960108
	 B(2,4,17)        =         2.089577	     119.723926
	 B(2,9,10)        =         2.094332	     119.996376
	 B(3,1,9)         =         2.094940	     120.031219
	 B(3,1,14)        =         2.079469	     119.144799
	 B(3,11,4)        =         2.094306	     119.994870
	 B(3,11,13)       =         2.094549	     120.008801
	 B(4,2,9)         =         2.095181	     120.045019
	 B(4,2,15)        =         2.078675	     119.099297
	 B(4,11,13)       =         2.094331	     119.996326
	 B(5,7,12)        =         2.095683	     120.073772
	 B(5,7,20)        =         2.161884	     123.866820
	 B(5,10,6)        =         2.092841	     119.910958
	 B(5,10,9)        =         2.095296	     120.051618
	 B(6,8,12)        =         2.095453	     120.060635
	 B(6,8,21)        =         2.162388	     123.895695
	 B(6,10,9)        =         2.095048	     120.037395
	 B(7,5,10)        =         2.073584	     118.807640
	 B(7,5,18)        =         2.089304	     119.708294
	 B(7,12,8)        =         2.135719	     122.367668
	 B(7,12,22)       =         2.074227	     118.844427
	 B(8,6,10)        =         2.073089	     118.779279
	 B(8,6,19)        =         2.089408	     119.714248
	 B(8,12,22)       =         2.073240	     118.787899
	 B(9,1,14)        =         2.108776	     120.823969
	 B(9,2,15)        =         2.109330	     120.855683
	 B(10,5,18)       =         2.120297	     121.484066
	 B(10,6,19)       =         2.120687	     121.506410
	 B(11,3,16)       =         2.100127	     120.328425
	 B(11,4,17)       =         2.099910	     120.315955
	 B(11,13,23)      =         1.925489	     110.322421
	 B(12,7,20)       =         2.025619	     116.059407
	 B(12,8,21)       =         2.025344	     116.043652
	 D(1,3,11,4)      =        -0.000325	      -0.018609
	 D(1,3,11,13)     =         3.140978	     179.964785
	 D(1,9,2,4)       =         0.000325	       0.018608
	 D(1,9,2,15)      =        -3.141497	    -179.994534
	 D(1,9,10,5)      =        -2.879631	    -164.990677
	 D(1,9,10,6)      =         0.260871	      14.946811
	 D(2,4,11,3)      =         0.000301	       0.017261
	 D(2,4,11,13)     =        -3.141002	    -179.966135
	 D(2,9,1,3)       =        -0.000348	      -0.019945
	 D(2,9,1,14)      =        -3.141221	    -179.978731
	 D(2,9,10,5)      =         0.262878	      15.061826
	 D(2,9,10,6)      =        -2.879805	    -165.000685
	 D(3,1,9,10)      =        -3.141025	    -179.967461
	 D(3,11,4,17)     =         3.141223	     179.978848
	 D(3,11,13,23)    =         3.140828	     179.956172
	 D(4,2,9,10)      =         3.141002	     179.966149
	 D(4,11,3,16)     =         3.141593	     180.000000
	 D(4,11,13,23)    =        -0.001055	      -0.060434
	 D(5,7,12,8)      =        -0.000727	      -0.041669
	 D(5,7,12,22)     =         3.140382	     179.930650
	 D(5,10,6,8)      =        -0.001357	      -0.077733
	 D(5,10,6,19)     =        -3.141355	    -179.986380
	 D(6,8,12,7)      =        -0.000000	      -0.000000
	 D(6,8,12,22)     =        -3.141118	    -179.972819
	 D(6,10,5,7)      =         0.000649	       0.037170
	 D(6,10,5,18)     =        -3.140853	    -179.957638
	 D(7,5,10,9)      =         3.141152	     179.974738
	 D(7,12,8,21)     =        -3.140781	    -179.953480
	 D(8,6,10,9)      =         3.141325	     179.984690
	 D(8,12,7,20)     =         3.141030	     179.967763
	 D(9,1,3,11)      =         0.000348	       0.019955
	 D(9,1,3,16)      =        -3.141571	    -179.998735
	 D(9,2,4,11)      =        -0.000301	      -0.017270
	 D(9,2,4,17)      =        -3.141228	    -179.979086
	 D(9,10,5,18)     =        -0.000350	      -0.020070
	 D(9,10,6,19)     =         0.001327	       0.076044
	 D(10,5,7,12)     =         0.000393	       0.022508
	 D(10,5,7,20)     =        -3.141378	    -179.987696
	 D(10,6,8,12)     =         0.001050	       0.060183
	 D(10,6,8,21)     =        -3.141430	    -179.990697
	 D(10,9,1,14)     =         0.001287	       0.073752
	 D(10,9,2,15)     =        -0.000820	      -0.046992
	 D(11,3,1,14)     =         3.141234	     179.979432
	 D(11,4,2,15)     =         3.141517	     179.995641
	 D(12,7,5,18)     =        -3.141289	    -179.982590
	 D(12,8,6,19)     =         3.141078	     179.970505
	 D(13,11,3,16)    =        -0.000286	      -0.016400
	 D(13,11,4,17)    =        -0.000079	      -0.004548
	 D(14,1,3,16)     =        -0.000685	      -0.039257
	 D(15,2,4,17)     =         0.000590	       0.033826
	 D(18,5,7,20)     =         0.000126	       0.007206
	 D(19,6,8,21)     =        -0.001403	      -0.080375
	 D(20,7,12,22)    =        -0.001046	      -0.059918
	 D(21,8,12,22)    =         0.001295	       0.074186

	Current energy   :      -554.0970364630

	Generating empirical Hessian (Schlegel '84) for each fragment.
	Adding user-defined constraint: Fragment 1; Coordinate 66:
		Value =    -2.879631; Fixed value    =    -2.879793
		Force =    -0.000081; Force constant =     0.500000
	Removing off-diagonal coupling between coordinate 66 and others.
	Taking RFO optimization step.
	Going to follow RFO solution 1.
	Using RFO vector 1.

	Determining step-restricting scale parameter for RS-RFO.
	Maximum step size allowed    0.10000

	 Iter      |step|        alpha        rfo_root  
	------------------------------------------------
	    0     0.22700       1.00000           1
	    1     0.17372       4.67812           1
	    2     0.13520      15.25219           1
	    3     0.11112      31.40940           1
	    4     0.10163      41.97217           1
	    5     0.10004      44.09549           1
	    6     0.10000      44.15607           1
	------------------------------------------------
	Norm of target step-size    0.10000
	Projected energy change by RFO approximation:        -0.0055683967

	Back-transformation to cartesian coordinates...
	Could not converge backtransformation.
	Using first guess instead.

	--- Internal Coordinate Step in ANG or DEG, aJ/ANG or AJ/DEG ---
	 ---------------------------------------------------------------------------
	   Coordinate                Previous        Force       Change         New 
	   ----------                --------       ------       ------       ------
	    1 R(1,3)          =      1.394038    -0.107910    -0.009748     1.384290
	    2 R(1,9)          =      1.394891     0.043413     0.004169     1.399060
	    3 R(1,14)         =      1.087431    -0.066278    -0.006994     1.080437
	    4 R(2,4)          =      1.394521    -0.108858    -0.009770     1.384751
	    5 R(2,9)          =      1.394821     0.033778     0.003280     1.398101
	    6 R(2,15)         =      1.087831    -0.066194    -0.007033     1.080798
	    7 R(3,11)         =      1.394821    -0.063474    -0.005904     1.388917
	    8 R(3,16)         =      1.086899    -0.047053    -0.005019     1.081880
	    9 R(4,11)         =      1.395407    -0.014960    -0.001494     1.393913
	   10 R(4,17)         =      1.086527    -0.036208    -0.003872     1.082655
	   11 R(5,7)          =      1.387943    -0.123047    -0.010901     1.377042
	   12 R(5,10)         =      1.391266     0.089233     0.008343     1.399609
	   13 R(5,18)         =      1.086049    -0.071093    -0.007449     1.078600
	   14 R(6,8)          =      1.387990    -0.123998    -0.010984     1.377006
	   15 R(6,10)         =      1.391519     0.088967     0.008192     1.399712
	   16 R(6,19)         =      1.085208    -0.066179    -0.006998     1.078210
	   17 R(7,12)         =      1.339360     0.018833     0.001381     1.340741
	   18 R(7,20)         =      1.081017    -0.019316    -0.002041     1.078976
	   19 R(8,12)         =      1.340795     0.009012     0.000592     1.341387
	   20 R(8,21)         =      1.080743    -0.017925    -0.001860     1.078883
	   21 R(9,10)         =      1.446444     0.102867     0.010415     1.456860
	   22 R(11,13)        =      1.360865    -0.120653    -0.009551     1.351314
	   23 R(12,22)        =      1.019465    -0.055494    -0.005149     1.014317
	   24 R(13,23)        =      0.970199    -0.058536    -0.004634     0.965564
	   25 B(1,3,11)       =    120.009056    -0.000019    -0.081797   119.927260
	   26 B(1,3,16)       =    119.662516     0.000206     0.406380   120.068896
	   27 B(1,9,2)        =    119.959722    -0.000806    -1.177582   118.782139
	   28 B(1,9,10)       =    120.043881     0.000393     0.573658   120.617540
	   29 B(2,4,11)       =    119.960108     0.000100     0.129413   120.089521
	   30 B(2,4,17)       =    119.723926    -0.000007     0.015815   119.739741
	   31 B(2,9,10)       =    119.996376     0.000413     0.603794   120.600170
	   32 B(3,1,9)        =    120.031219     0.000464     0.750587   120.781806
	   33 B(3,1,14)       =    119.144799    -0.000487    -0.853961   118.290838
	   34 B(3,11,4)       =    119.994870    -0.000008    -0.077442   119.917428
	   35 B(3,11,13)      =    120.008801    -0.001011    -1.508493   118.500309
	   36 B(4,2,9)        =    120.045019     0.000270     0.456715   120.501734
	   37 B(4,2,15)       =    119.099297    -0.000344    -0.620800   118.478497
	   38 B(4,11,13)      =    119.996326     0.001019     1.585929   121.582256
	   39 B(5,7,12)       =    120.073772    -0.000161    -0.296238   119.777534
	   40 B(5,7,20)       =    123.866820    -0.000035    -0.064872   123.801948
	   41 B(5,10,6)       =    119.910958    -0.001177    -1.748954   118.162004
	   42 B(5,10,9)       =    120.051618     0.000611     0.907934   120.959552
	   43 B(6,8,12)       =    120.060635    -0.000154    -0.296222   119.764413
	   44 B(6,8,21)       =    123.895695    -0.000038    -0.063983   123.831712
	   45 B(6,10,9)       =    120.037395     0.000567     0.841043   120.878438
	   46 B(7,5,10)       =    118.807640     0.000669     1.078211   119.885851
	   47 B(7,5,18)       =    119.708294    -0.000577    -0.997032   118.711262
	   48 B(7,12,8)       =    122.367668     0.000137     0.159421   122.527089
	   49 B(7,12,22)      =    118.844427    -0.000069    -0.080355   118.764072
	   50 B(8,6,10)       =    118.779279     0.000687     1.103805   119.883084
	   51 B(8,6,19)       =    119.714248    -0.000583    -1.002273   118.711976
	   52 B(8,12,22)      =    118.787899    -0.000067    -0.079070   118.708829
	   53 B(9,1,14)       =    120.823969     0.000023     0.102818   120.926787
	   54 B(9,2,15)       =    120.855683     0.000075     0.163697   121.019379
	   55 B(10,5,18)      =    121.484066    -0.000092    -0.081431   121.402635
	   56 B(10,6,19)      =    121.506410    -0.000104    -0.101928   121.404482
	   57 B(11,3,16)      =    120.328425    -0.000187    -0.324580   120.003845
	   58 B(11,4,17)      =    120.315955    -0.000094    -0.145245   120.170710
	   59 B(11,13,23)     =    110.322421    -0.000199    -0.372537   109.949884
	   60 B(12,7,20)      =    116.059407     0.000196     0.361095   116.420502
	   61 B(12,8,21)      =    116.043652     0.000192     0.360221   116.403873
	   62 D(1,3,11,4)     =     -0.018609    -0.000003    -0.034902    -0.053511
	   63 D(1,3,11,13)    =    179.964785    -0.000004    -0.048538   179.916247
	   64 D(1,9,2,4)      =      0.018608    -0.000002    -0.009872     0.008736
	   65 D(1,9,2,15)     =   -179.994534     0.000018     0.233710  -179.760824
	   66 D(1,9,10,5)     =   -164.990677     0.000016     0.116842  -164.873834
	   67 D(1,9,10,6)     =     14.946811     0.000021     0.208539    15.155351
	   68 D(2,4,11,3)     =      0.017261    -0.000004    -0.052371    -0.035109
	   69 D(2,4,11,13)    =   -179.966135    -0.000003    -0.037777  -180.003912
	   70 D(2,9,1,3)      =     -0.019945    -0.000005    -0.078215    -0.098160
	   71 D(2,9,1,14)     =   -179.978731     0.000014     0.159854  -179.818877
	   72 D(2,9,10,5)     =     15.061826     0.000021     0.207362    15.269188
	   73 D(2,9,10,6)     =   -165.000685     0.000025     0.299059  -164.701627
	   74 D(3,1,9,10)     =   -179.967461    -0.000001     0.009759  -179.957702
	   75 D(3,11,4,17)    =    179.978848    -0.000006    -0.075005   179.903843
	   76 D(3,11,13,23)   =    179.956172     0.000001     0.011894   179.968065
	   77 D(4,2,9,10)     =    179.966149    -0.000006    -0.097846   179.868303
	   78 D(4,11,3,16)    =    180.000000    -0.000005    -0.056071   179.943929
	   79 D(4,11,13,23)   =     -0.060434     0.000000    -0.002270    -0.062704
	   80 D(5,7,12,8)     =     -0.041669     0.000000     0.009314    -0.032354
	   81 D(5,7,12,22)    =    179.930650     0.000000    -0.000080   179.930570
	   82 D(5,10,6,8)     =     -0.077733     0.000002     0.043215    -0.034518
	   83 D(5,10,6,19)    =   -179.986380     0.000015     0.201389  -179.784991
	   84 D(6,8,12,7)     =      0.000000    -0.000001    -0.012177    -0.012177
	   85 D(6,8,12,22)    =   -179.972819    -0.000000    -0.002301  -179.975120
	   86 D(6,10,5,7)     =      0.037170    -0.000003    -0.046309    -0.009139
	   87 D(6,10,5,18)    =   -179.957638     0.000012     0.133198  -179.824440
	   88 D(7,5,10,9)     =    179.974738     0.000002     0.044535   180.019273
	   89 D(7,12,8,21)    =   -179.953480    -0.000006    -0.074951  -180.028431
	   90 D(8,6,10,9)     =    179.984690    -0.000002    -0.047596   179.937095
	   91 D(8,12,7,20)    =    179.967763    -0.000004    -0.044015   179.923748
	   92 D(9,1,3,11)     =      0.019955     0.000008     0.100996     0.120950
	   93 D(9,1,3,16)     =   -179.998735     0.000009     0.122246  -179.876489
	   94 D(9,2,4,11)     =     -0.017270     0.000006     0.074500     0.057230
	   95 D(9,2,4,17)     =   -179.979086     0.000008     0.097100  -179.881986
	   96 D(9,10,5,18)    =     -0.020070     0.000017     0.224042     0.203972
	   97 D(9,10,6,19)    =      0.076044     0.000011     0.110578     0.186622
	   98 D(10,5,7,12)    =      0.022508     0.000001     0.019917     0.042425
	   99 D(10,5,7,20)    =   -179.987696     0.000006     0.077431  -179.910266
	  100 D(10,6,8,12)    =      0.060183    -0.000001    -0.014424     0.045759
	  101 D(10,6,8,21)    =   -179.990697     0.000005     0.053982  -179.936714
	  102 D(10,9,1,14)    =      0.073752     0.000018     0.247829     0.321581
	  103 D(10,9,2,15)    =     -0.046992     0.000013     0.145736     0.098743
	  104 D(11,3,1,14)    =    179.979432    -0.000011    -0.130556   179.848876
	  105 D(11,4,2,15)    =    179.995641    -0.000013    -0.163083   179.832558
	  106 D(12,7,5,18)    =   -179.982590    -0.000013    -0.154730  -180.137320
	  107 D(12,8,6,19)    =    179.970505    -0.000013    -0.167576   179.802928
	  108 D(13,11,3,16)   =     -0.016400    -0.000005    -0.069913    -0.086313
	  109 D(13,11,4,17)   =     -0.004548    -0.000005    -0.060412    -0.064959
	  110 D(14,1,3,16)    =     -0.039257    -0.000009    -0.109306    -0.148563
	  111 D(15,2,4,17)    =      0.033826    -0.000011    -0.140484    -0.106658
	  112 D(18,5,7,20)    =      0.007206    -0.000008    -0.097216    -0.090010
	  113 D(19,6,8,21)    =     -0.080375    -0.000008    -0.099170    -0.179545
	  114 D(20,7,12,22)   =     -0.059918    -0.000004    -0.053409    -0.113328
	  115 D(21,8,12,22)   =      0.074186    -0.000005    -0.065561     0.008625
	 ---------------------------------------------------------------------------
	Successfully symmetrized geometry.
	 Forces used to impose fixed constraints are not included.
	  Forces zeroed: 66 

  ==> Convergence Check <==

  Measures of convergence in internal coordinates in au.
  Criteria marked as inactive (o), active & met (*), and active & unmet ( ).
  --------------------------------------------------------------------------------------------- ~
   Step     Total Energy     Delta E     MAX Force     RMS Force      MAX Disp      RMS Disp    ~
  --------------------------------------------------------------------------------------------- ~
    Convergence Criteria    1.00e-06 *    3.00e-04 *             o    1.20e-03 *             o  ~
  --------------------------------------------------------------------------------------------- ~
      1    -554.09703646   -5.54e+02      1.55e-02      5.34e-03 o    3.05e-02      9.31e-03 o  ~
  ---------------------------------------------------------------------------------------------

	Writing optimization data to binary file.
	Structure for next step:
	Cartesian Geometry (in Angstrom)
	    C    -1.2872969221   0.7245056358  -0.5570125954
	    C    -0.2917730434   0.1114353962   1.5474378378
	    C    -2.3581091368   1.2939525590   0.1103335947
	    C    -1.3613918597   0.6822939060   2.2164459069
	    C     1.7691331567  -1.3384802391   0.0996225257
	    C     1.1138560048  -0.1961041745  -1.9085851260
	    C     2.8261477128  -1.8905001527  -0.5890274493
	    C     2.1849318576  -0.7710543575  -2.5554044545
	    C    -0.2398964770   0.1245521728   0.1503609395
	    C     0.8857784293  -0.4728731066  -0.5555986727
	    C    -2.3986335197   1.2753602792   1.4985350798
	    N     3.0039886086  -1.5947518934  -1.8845940751
	    O    -3.4566273212   1.8410779785   2.1203571060
	    H    -1.2840146420   0.7516467141  -1.6371031694
	    H     0.4994694601  -0.3388112747   2.1299651024
	    H    -3.1628474090   1.7530807993  -0.4482908833
	    H    -1.3880321005   0.6668638083   3.2986630899
	    H     1.6410149438  -1.5899291558   1.1406494990
	    H     0.4683012486   0.4658331286  -2.4632343515
	    H     3.5432523446  -2.5652212948  -0.1477780705
	    H     2.4205745088  -0.6016782085  -3.5945261168
	    H     3.7882092863  -2.0091368591  -2.3766520774
	    H    -3.3591074727   1.7584224000   3.0774217428
			--------------------------
			 OPTKING Finished Execution 
			--------------------------

    Structure for next step:
    Molecular point group: c1
    Full point group: C1

    Geometry (in Angstrom), charge = 1, multiplicity = 1:

    C           -1.287768637334     0.725021634127    -0.556903561812
    C           -0.292244758620     0.111951394602     1.547546871333
    C           -2.358580852052     1.294468557380     0.110442628254
    C           -1.361863575002     0.682809904404     2.216554940484
    C            1.768661441404    -1.337964240689     0.099731559291
    C            1.113384289529    -0.195588176177    -1.908476092434
    C            2.825675997505    -1.889984154324    -0.588918415770
    C            2.184460142324    -0.770538359123    -2.555295420895
    C           -0.240368192248     0.125068171194     0.150469973035
    C            0.885306714069    -0.472357108219    -0.555489639092
    C           -2.399105234931     1.275876277556     1.498644113397
    N            3.003516893323    -1.594235895062    -1.884485041579
    O           -3.457099036512     1.841593976893     2.120466139546
    H           -1.284486357222     0.752162712506    -1.636994135858
    H            0.498997744813    -0.338295276289     2.130074135970
    H           -3.163319124294     1.753596797632    -0.448181849779
    H           -1.388503815734     0.667379806649     3.298772123500
    H            1.640543228544    -1.589413157406     1.140758532565
    H            0.467829533327     0.466349126989    -2.463125317977
    H            3.542780629326    -2.564705296465    -0.147669036963
    H            2.420102793554    -0.601162210134    -3.594417083273
    H            3.787737571019    -2.008620860708    -2.376543043844
    H           -3.359579188000     1.758938398345     3.077530776378

gradient() will perform analytic gradient computation.

*** tstart() called on gpu-1-8.local
*** at Sun Nov 12 08:09:21 2017

    SCF Algorithm Type (re)set to DF.

*** tstart() called on gpu-1-8.local
*** at Sun Nov 12 08:09:21 2017

   => Loading Basis Set <=

    Name: AUG-CC-PVTZ
    Role: ORBITAL
    Keyword: BASIS
    atoms 1-11  entry C          line   221 file /cbio/jclab/home/chayas/anaconda/envs/py35/share/psi4/basis/aug-cc-pvtz.gbs 
    atoms 12    entry N          line   267 file /cbio/jclab/home/chayas/anaconda/envs/py35/share/psi4/basis/aug-cc-pvtz.gbs 
    atoms 13    entry O          line   313 file /cbio/jclab/home/chayas/anaconda/envs/py35/share/psi4/basis/aug-cc-pvtz.gbs 
    atoms 14-23 entry H          line    34 file /cbio/jclab/home/chayas/anaconda/envs/py35/share/psi4/basis/aug-cc-pvtz.gbs 


         ---------------------------------------------------------
                                   SCF
            by Justin Turney, Rob Parrish, and Andy Simmonett
                              RHF Reference
                        8 Threads,   4768 MiB Core
         ---------------------------------------------------------

  ==> Geometry <==

    Molecular point group: c1
    Full point group: C1

    Geometry (in Angstrom), charge = 1, multiplicity = 1:

       Center              X                  Y                   Z               Mass       
    ------------   -----------------  -----------------  -----------------  -----------------
           C         -1.287768637334     0.725021634127    -0.556903561812    12.000000000000
           C         -0.292244758620     0.111951394602     1.547546871333    12.000000000000
           C         -2.358580852052     1.294468557380     0.110442628254    12.000000000000
           C         -1.361863575002     0.682809904404     2.216554940484    12.000000000000
           C          1.768661441404    -1.337964240689     0.099731559291    12.000000000000
           C          1.113384289529    -0.195588176177    -1.908476092434    12.000000000000
           C          2.825675997505    -1.889984154324    -0.588918415770    12.000000000000
           C          2.184460142324    -0.770538359123    -2.555295420895    12.000000000000
           C         -0.240368192248     0.125068171194     0.150469973035    12.000000000000
           C          0.885306714069    -0.472357108219    -0.555489639092    12.000000000000
           C         -2.399105234931     1.275876277556     1.498644113397    12.000000000000
           N          3.003516893323    -1.594235895062    -1.884485041579    14.003074004780
           O         -3.457099036512     1.841593976893     2.120466139546    15.994914619560
           H         -1.284486357222     0.752162712506    -1.636994135858     1.007825032070
           H          0.498997744813    -0.338295276289     2.130074135970     1.007825032070
           H         -3.163319124294     1.753596797632    -0.448181849779     1.007825032070
           H         -1.388503815734     0.667379806649     3.298772123500     1.007825032070
           H          1.640543228544    -1.589413157406     1.140758532565     1.007825032070
           H          0.467829533327     0.466349126989    -2.463125317977     1.007825032070
           H          3.542780629326    -2.564705296465    -0.147669036963     1.007825032070
           H          2.420102793554    -0.601162210134    -3.594417083273     1.007825032070
           H          3.787737571019    -2.008620860708    -2.376543043844     1.007825032070
           H         -3.359579188000     1.758938398345     3.077530776378     1.007825032070

  Running in c1 symmetry.

  Rotational constants: A =      0.09650  B =      0.01334  C =      0.01177 [cm^-1]
  Rotational constants: A =   2892.97898  B =    399.86778  C =    352.82198 [MHz]
  Nuclear repulsion =  713.061941787298679

  Charge       = 1
  Multiplicity = 1
  Electrons    = 90
  Nalpha       = 45
  Nbeta        = 45

  ==> Algorithm <==

  SCF Algorithm Type is DF.
  DIIS enabled.
  MOM disabled.
  Fractional occupation disabled.
  Guess Type is READ.
  Energy threshold   = 1.00e-10
  Density threshold  = 1.00e-10
  Integral threshold = 0.00e+00

  ==> Primary Basis <==

  Basis Set: AUG-CC-PVTZ
    Blend: AUG-CC-PVTZ
    Number of shells: 272
    Number of basis function: 828
    Number of Cartesian functions: 965
    Spherical Harmonics?: true
    Max angular momentum: 3

   => Loading Basis Set <=

    Name: (AUG-CC-PVTZ AUX)
    Role: JKFIT
    Keyword: DF_BASIS_SCF
    atoms 1-11  entry C          line   161 file /cbio/jclab/home/chayas/anaconda/envs/py35/share/psi4/basis/aug-cc-pvtz-jkfit.gbs 
    atoms 12    entry N          line   223 file /cbio/jclab/home/chayas/anaconda/envs/py35/share/psi4/basis/aug-cc-pvtz-jkfit.gbs 
    atoms 13    entry O          line   285 file /cbio/jclab/home/chayas/anaconda/envs/py35/share/psi4/basis/aug-cc-pvtz-jkfit.gbs 
    atoms 14-23 entry H          line    69 file /cbio/jclab/home/chayas/anaconda/envs/py35/share/psi4/basis/aug-cc-pvtz-jkfit.gbs 

  Reading orbitals from file 180, no projection.

  ==> Pre-Iterations <==

   -------------------------------------------------------
    Irrep   Nso     Nmo     Nalpha   Nbeta   Ndocc  Nsocc
   -------------------------------------------------------
     A        828     828       0       0       0       0
   -------------------------------------------------------
    Total     828     828      45      45      45       0
   -------------------------------------------------------

  ==> Integral Setup <==

  ==> DFJK: Density-Fitted J/K Matrices <==

    J tasked:                  Yes
    K tasked:                  Yes
    wK tasked:                  No
    OpenMP threads:              8
    Integrals threads:           8
    Memory (MB):              3576
    Algorithm:                Disk
    Integral Cache:           NONE
    Schwarz Cutoff:          1E-12
    Fitting Condition:       1E-12

   => Auxiliary Basis Set <=

  Basis Set: (AUG-CC-PVTZ AUX)
    Blend: AUG-CC-PVTZ-JKFIT
    Number of shells: 530
    Number of basis function: 1812
    Number of Cartesian functions: 2253
    Spherical Harmonics?: true
    Max angular momentum: 4

  Minimum eigenvalue in the overlap matrix is 4.9685382845E-07.
  Using Symmetric Orthogonalization.

  SCF Guess: Orbitals guess was supplied from a previous computation.

  ==> Iterations <==

                           Total Energy        Delta E     RMS |[F,P]|

   @DF-RHF iter   0:  -551.82429444436093   -5.51824e+02   5.77027e-04 
   @DF-RHF iter   1:  -551.67903937984931    1.45255e-01   1.34182e-04 
   @DF-RHF iter   2:  -551.67974977474069   -7.10395e-04   1.13971e-04 DIIS
   @DF-RHF iter   3:  -551.68035664470494   -6.06870e-04   1.54136e-05 DIIS
   @DF-RHF iter   4:  -551.68036869691821   -1.20522e-05   4.34627e-06 DIIS
   @DF-RHF iter   5:  -551.68037122625447   -2.52934e-06   1.44244e-06 DIIS
   @DF-RHF iter   6:  -551.68037174046583   -5.14211e-07   8.90838e-07 DIIS
   @DF-RHF iter   7:  -551.68037194681585   -2.06350e-07   4.15320e-07 DIIS
   @DF-RHF iter   8:  -551.68037201678817   -6.99723e-08   1.39451e-07 DIIS
   @DF-RHF iter   9:  -551.68037202425853   -7.47036e-09   5.18748e-08 DIIS
   @DF-RHF iter  10:  -551.68037202486016   -6.01631e-10   2.33092e-08 DIIS
   @DF-RHF iter  11:  -551.68037202491087   -5.07043e-11   6.28816e-09 DIIS
   @DF-RHF iter  12:  -551.68037202491121   -3.41061e-13   2.44269e-09 DIIS
   @DF-RHF iter  13:  -551.68037202491826   -7.04858e-12   1.29684e-09 DIIS
   @DF-RHF iter  14:  -551.68037202493213   -1.38698e-11   4.78233e-10 DIIS
   @DF-RHF iter  15:  -551.68037202492860    3.52429e-12   2.28063e-10 DIIS
   @DF-RHF iter  16:  -551.68037202492599    2.61480e-12   7.11521e-11 DIIS

  ==> Post-Iterations <==

    Orbital Energies (a.u.)
    -----------------------

    Doubly Occupied:                                                      

       1A    -20.708485     2A    -15.826434     3A    -11.479375  
       4A    -11.479238     5A    -11.449639     6A    -11.437175  
       7A    -11.409837     8A    -11.409542     9A    -11.382165  
      10A    -11.379627    11A    -11.374735    12A    -11.357799  
      13A    -11.352033    14A     -1.528293    15A     -1.506597  
      16A     -1.317890    17A     -1.266518    18A     -1.236257  
      19A     -1.157194    20A     -1.155773    21A     -1.064405  
      22A     -1.055951    23A     -0.979513    24A     -0.960681  
      25A     -0.953788    26A     -0.873181    27A     -0.860916  
      28A     -0.854743    29A     -0.821975    30A     -0.799302  
      31A     -0.779661    32A     -0.772192    33A     -0.760466  
      34A     -0.735505    35A     -0.720000    36A     -0.711264  
      37A     -0.703769    38A     -0.686159    39A     -0.659518  
      40A     -0.643405    41A     -0.621285    42A     -0.569352  
      43A     -0.537892    44A     -0.474068    45A     -0.437486  

    Virtual:                                                              

      46A     -0.107101    47A     -0.082788    48A     -0.062402  
      49A     -0.061053    50A     -0.059082    51A     -0.046242  
      52A     -0.044199    53A     -0.039563    54A     -0.031521  
      55A     -0.025943    56A     -0.024998    57A     -0.021757  
      58A     -0.017910    59A     -0.007674    60A     -0.005430  
      61A     -0.001196    62A      0.005321    63A      0.006335  
      64A      0.009211    65A      0.017479    66A      0.019484  
      67A      0.021369    68A      0.024978    69A      0.026079  
      70A      0.030433    71A      0.032531    72A      0.034692  
      73A      0.036701    74A      0.040173    75A      0.048827  
      76A      0.049827    77A      0.056686    78A      0.059931  
      79A      0.063382    80A      0.065669    81A      0.070556  
      82A      0.073807    83A      0.076874    84A      0.079290  
      85A      0.085070    86A      0.086321    87A      0.087968  
      88A      0.096667    89A      0.101361    90A      0.105874  
      91A      0.108244    92A      0.114322    93A      0.120361  
      94A      0.126416    95A      0.130319    96A      0.133976  
      97A      0.135242    98A      0.137614    99A      0.142909  
     100A      0.146495   101A      0.150715   102A      0.155574  
     103A      0.159567   104A      0.165016   105A      0.165803  
     106A      0.170321   107A      0.171436   108A      0.174113  
     109A      0.178934   110A      0.184752   111A      0.188585  
     112A      0.190040   113A      0.196614   114A      0.198372  
     115A      0.207393   116A      0.210243   117A      0.211625  
     118A      0.217899   119A      0.221134   120A      0.224742  
     121A      0.226006   122A      0.228650   123A      0.230888  
     124A      0.234669   125A      0.236697   126A      0.243248  
     127A      0.245519   128A      0.249873   129A      0.253944  
     130A      0.255777   131A      0.265710   132A      0.271552  
     133A      0.274973   134A      0.282043   135A      0.283731  
     136A      0.286043   137A      0.290592   138A      0.297014  
     139A      0.304201   140A      0.304621   141A      0.306388  
     142A      0.310681   143A      0.314692   144A      0.319645  
     145A      0.325674   146A      0.328280   147A      0.330669  
     148A      0.335709   149A      0.336890   150A      0.338092  
     151A      0.340526   152A      0.345189   153A      0.350166  
     154A      0.353870   155A      0.355089   156A      0.359197  
     157A      0.365337   158A      0.366948   159A      0.369625  
     160A      0.374801   161A      0.379263   162A      0.383094  
     163A      0.387196   164A      0.389740   165A      0.392007  
     166A      0.393351   167A      0.394852   168A      0.399399  
     169A      0.404989   170A      0.408534   171A      0.411673  
     172A      0.416445   173A      0.419457   174A      0.421761  
     175A      0.431467   176A      0.432159   177A      0.436843  
     178A      0.439213   179A      0.446313   180A      0.448466  
     181A      0.451294   182A      0.458042   183A      0.462667  
     184A      0.465820   185A      0.471090   186A      0.481867  
     187A      0.493999   188A      0.496745   189A      0.502735  
     190A      0.507741   191A      0.510213   192A      0.514131  
     193A      0.525038   194A      0.533798   195A      0.538345  
     196A      0.538968   197A      0.545183   198A      0.550753  
     199A      0.561297   200A      0.565936   201A      0.570106  
     202A      0.576498   203A      0.576806   204A      0.584805  
     205A      0.587645   206A      0.589965   207A      0.594293  
     208A      0.596371   209A      0.607050   210A      0.616265  
     211A      0.620046   212A      0.626849   213A      0.632111  
     214A      0.637329   215A      0.642403   216A      0.644036  
     217A      0.647481   218A      0.655207   219A      0.659830  
     220A      0.669551   221A      0.677051   222A      0.681146  
     223A      0.686500   224A      0.700098   225A      0.703521  
     226A      0.707559   227A      0.713217   228A      0.718462  
     229A      0.723084   230A      0.723859   231A      0.734491  
     232A      0.735741   233A      0.737457   234A      0.743106  
     235A      0.746102   236A      0.749507   237A      0.759510  
     238A      0.761998   239A      0.766992   240A      0.773356  
     241A      0.776231   242A      0.779442   243A      0.783374  
     244A      0.786811   245A      0.789271   246A      0.797005  
     247A      0.800175   248A      0.805179   249A      0.805663  
     250A      0.808483   251A      0.813062   252A      0.815120  
[...]
	 B(4,11,13)       =         2.156271	     123.545243
	 B(5,7,12)        =         2.087790	     119.621572
	 B(5,7,20)        =         2.154433	     123.439922
	 B(5,10,6)        =         2.028115	     116.202457
	 B(5,10,9)        =         2.128521	     121.955285
	 B(6,8,12)        =         2.087849	     119.624917
	 B(6,8,21)        =         2.154301	     123.432371
	 B(6,10,9)        =         2.126484	     121.838532
	 B(7,5,10)        =         2.115834	     121.228354
	 B(7,5,18)        =         2.051994	     117.570608
	 B(7,12,8)        =         2.131041	     122.099641
	 B(7,12,22)       =         2.076096	     118.951523
	 B(8,6,10)        =         2.115729	     121.222360
	 B(8,6,19)        =         2.052377	     117.592568
	 B(8,12,22)       =         2.076048	     118.948813
	 B(9,1,14)        =         2.108995	     120.836522
	 B(9,2,15)        =         2.109698	     120.876771
	 B(10,5,18)       =         2.114988	     121.179909
	 B(10,6,19)       =         2.114784	     121.168169
	 B(11,3,16)       =         2.073826	     118.821491
	 B(11,4,17)       =         2.095155	     120.043564
	 B(11,13,23)      =         1.931064	     110.641811
	 B(12,7,20)       =         2.040937	     116.937102
	 B(12,8,21)       =         2.041001	     116.940729
	 D(1,3,11,4)      =        -0.002691	      -0.154194
	 D(1,3,11,13)     =         3.137141	     179.744930
	 D(1,9,2,4)       =        -0.000038	      -0.002158
	 D(1,9,2,15)      =        -3.100021	    -177.618104
	 D(1,9,10,5)      =        -2.877530	    -164.870315
	 D(1,9,10,6)      =         0.276787	      15.858727
	 D(2,4,11,3)      =        -0.006526	      -0.373895
	 D(2,4,11,13)     =         3.136951	     179.734077
	 D(2,9,1,3)       =        -0.009309	      -0.533344
	 D(2,9,1,14)      =        -3.108675	    -178.113946
	 D(2,9,10,5)      =         0.282303	      16.174753
	 D(2,9,10,6)      =        -2.846566	    -163.096205
	 D(3,1,9,10)      =        -3.133172	    -179.517515
	 D(3,11,4,17)     =         3.127499	     179.192506
	 D(3,11,13,23)    =         3.137793	     179.782268
	 D(4,2,9,10)      =         3.123832	     178.982376
	 D(4,11,3,16)     =         3.131719	     179.434301
	 D(4,11,13,23)    =        -0.005637	      -0.322982
	 D(5,7,12,8)      =         0.001218	       0.069771
	 D(5,7,12,22)     =        -3.141345	    -179.985795
	 D(5,10,6,8)      =         0.005328	       0.305274
	 D(5,10,6,19)     =        -3.109532	    -178.163080
	 D(6,8,12,7)      =        -0.000717	      -0.041083
	 D(6,8,12,22)     =        -3.141340	    -179.985518
	 D(6,10,5,7)      =        -0.004826	      -0.276521
	 D(6,10,5,18)     =        -3.116526	    -178.563761
	 D(7,5,10,9)      =        -3.134371	    -179.586240
	 D(7,12,8,21)     =         3.132243	     179.464331
	 D(8,6,10,9)      =         3.134888	     179.615868
	 D(8,12,7,20)     =         3.135544	     179.653444
	 D(9,1,3,11)      =         0.010721	       0.614243
	 D(9,1,3,16)      =        -3.123522	    -178.964627
	 D(9,2,4,11)      =         0.007875	       0.451199
	 D(9,2,4,17)      =        -3.126162	    -179.115883
	 D(9,10,5,18)     =         0.037115	       2.126520
	 D(9,10,6,19)     =         0.020028	       1.147514
	 D(10,5,7,12)     =         0.001711	       0.098011
	 D(10,5,7,20)     =        -3.132119	    -179.457203
	 D(10,6,8,12)     =        -0.002719	      -0.155778
	 D(10,6,8,21)     =        -3.135090	    -179.627446
	 D(10,9,1,14)     =         0.050647	       2.901884
	 D(10,9,2,15)     =         0.023849	       1.366430
	 D(11,3,1,14)     =         3.111259	     178.261989
	 D(11,4,2,15)     =         3.109015	     178.133444
	 D(12,7,5,18)     =         3.114452	     178.444964
	 D(12,8,6,19)     =         3.113065	     178.365491
	 D(13,11,3,16)    =        -0.011634	      -0.666576
	 D(13,11,4,17)    =        -0.012209	      -0.699522
	 D(14,1,3,16)     =        -0.022984	      -1.316882
	 D(15,2,4,17)     =        -0.025022	      -1.433638
	 D(18,5,7,20)     =        -0.019378	      -1.110251
	 D(19,6,8,21)     =        -0.019306	      -1.106177
	 D(20,7,12,22)    =        -0.007018	      -0.402122
	 D(21,8,12,22)    =        -0.008379	      -0.480105

	Current energy   :      -554.1020051476

	Energy change for the previous step:
		Projected    :        -0.0000001960
		Actual       :        -0.0000001738

	Performing BFGS update.
	Previous computed or guess Hessian on step 1.
	Steps to be used in Hessian update: 5 4
	Adding user-defined constraint: Fragment 1; Coordinate 66:
		Value =    -2.877530; Fixed value    =    -2.879790
		Force =    -0.001413; Force constant =     0.625000
	Removing off-diagonal coupling between coordinate 66 and others.
	Taking RFO optimization step.
	Going to follow RFO solution 1.
	Using RFO vector 1.
	Norm of target step-size    0.00153
	Projected energy change by RFO approximation:        -0.0000000429

	Back-transformation to cartesian coordinates...
	Successfully converged to displaced geometry.

	--- Internal Coordinate Step in ANG or DEG, aJ/ANG or AJ/DEG ---
	 ---------------------------------------------------------------------------
	   Coordinate                Previous        Force       Change         New 
	   ----------                --------       ------       ------       ------
	    1 R(1,3)          =      1.376441    -0.000003     0.000015     1.376456
	    2 R(1,9)          =      1.401242     0.000283     0.000024     1.401266
	    3 R(1,14)         =      1.078384    -0.000117    -0.000020     1.078364
	    4 R(2,4)          =      1.379054     0.000158     0.000017     1.379071
	    5 R(2,9)          =      1.399215    -0.000003     0.000003     1.399218
	    6 R(2,15)         =      1.078412    -0.000001     0.000005     1.078416
	    7 R(3,11)         =      1.393331     0.000060    -0.000002     1.393329
	    8 R(3,16)         =      1.078571     0.000036     0.000004     1.078575
	    9 R(4,11)         =      1.393122    -0.000100    -0.000008     1.393114
	   10 R(4,17)         =      1.080318     0.000016     0.000004     1.080322
	   11 R(5,7)          =      1.370711     0.000158     0.000020     1.370731
	   12 R(5,10)         =      1.403523     0.000006    -0.000002     1.403521
	   13 R(5,18)         =      1.076516     0.000001     0.000004     1.076520
	   14 R(6,8)          =      1.370770     0.000158     0.000020     1.370789
	   15 R(6,10)         =      1.403579     0.000151     0.000022     1.403600
	   16 R(6,19)         =      1.076456    -0.000119    -0.000020     1.076436
	   17 R(7,12)         =      1.343387    -0.000071    -0.000004     1.343383
	   18 R(7,20)         =      1.077289     0.000011     0.000001     1.077290
	   19 R(8,12)         =      1.343318    -0.000090    -0.000004     1.343313
	   20 R(8,21)         =      1.077294     0.000032     0.000005     1.077299
	   21 R(9,10)         =      1.444712     0.000493     0.000074     1.444786
	   22 R(11,13)        =      1.341700     0.000133     0.000015     1.341715
	   23 R(12,22)        =      1.011416     0.000009     0.000002     1.011418
	   24 R(13,23)        =      0.963975     0.000007    -0.000002     0.963973
	   25 B(1,3,11)       =    120.059178     0.000000    -0.000159   120.059019
	   26 B(1,3,16)       =    121.118023     0.000001     0.001984   121.120007
	   27 B(1,9,2)        =    118.071492    -0.000001    -0.002100   118.069392
	   28 B(1,9,10)       =    120.977353     0.000003     0.009340   120.986692
	   29 B(2,4,11)       =    120.067741    -0.000001    -0.001665   120.066077
	   30 B(2,4,17)       =    119.887277     0.000000     0.001394   119.888671
	   31 B(2,9,10)       =    120.943213    -0.000002    -0.006925   120.936287
	   32 B(3,1,9)        =    121.143018    -0.000000     0.000420   121.143438
	   33 B(3,1,14)       =    117.977952     0.000001     0.000610   117.978562
	   34 B(3,11,4)       =    119.589614     0.000001     0.001412   119.591027
	   35 B(3,11,13)      =    116.865060    -0.000001    -0.002552   116.862508
	   36 B(4,2,9)        =    121.065149     0.000001     0.002345   121.067494
	   37 B(4,2,15)       =    118.016773     0.000001     0.001437   118.018210
	   38 B(4,11,13)      =    123.545243     0.000000     0.001137   123.546379
	   39 B(5,7,12)       =    119.621572     0.000000     0.000407   119.621979
	   40 B(5,7,20)       =    123.439922     0.000000     0.001697   123.441619
	   41 B(5,10,6)       =    116.202457    -0.000001    -0.001869   116.200588
	   42 B(5,10,9)       =    121.955285    -0.000002    -0.008030   121.947255
	   43 B(6,8,12)       =    119.624917     0.000000     0.000075   119.624992
	   44 B(6,8,21)       =    123.432371     0.000000     0.002095   123.434467
	   45 B(6,10,9)       =    121.838532     0.000003     0.009700   121.848232
	   46 B(7,5,10)       =    121.228354     0.000000     0.000947   121.229301
	   47 B(7,5,18)       =    117.570608     0.000001     0.002463   117.573072
	   48 B(7,12,8)       =    122.099641    -0.000000    -0.000335   122.099306
	   49 B(7,12,22)      =    118.951523     0.000000     0.000097   118.951621
	   50 B(8,6,10)       =    121.222360    -0.000000     0.000726   121.223086
	   51 B(8,6,19)       =    117.592568     0.000000    -0.000458   117.592110
	   52 B(8,12,22)      =    118.948813     0.000000     0.000232   118.949045
	   53 B(9,1,14)       =    120.836522    -0.000001    -0.000115   120.836406
	   54 B(9,2,15)       =    120.876771    -0.000001    -0.003794   120.872977
	   55 B(10,5,18)      =    121.179909    -0.000001    -0.003634   121.176276
	   56 B(10,6,19)      =    121.168169    -0.000000    -0.000499   121.167671
	   57 B(11,3,16)      =    118.821491    -0.000001    -0.001964   118.819527
	   58 B(11,4,17)      =    120.043564     0.000000     0.000197   120.043761
	   59 B(11,13,23)     =    110.641811    -0.000000    -0.003134   110.638677
	   60 B(12,7,20)      =    116.937102    -0.000000    -0.002033   116.935069
	   61 B(12,8,21)      =    116.940729    -0.000000    -0.002136   116.938593
	   62 D(1,3,11,4)     =     -0.154194     0.000000     0.011183    -0.143011
	   63 D(1,3,11,13)    =    179.744930     0.000000     0.009453   179.754383
	   64 D(1,9,2,4)      =     -0.002158    -0.000000    -0.017165    -0.019323
	   65 D(1,9,2,15)     =   -177.618104    -0.000000    -0.016856  -177.634960
	   66 D(1,9,10,5)     =   -164.870315    -0.000000    -0.005547  -164.875861
	   67 D(1,9,10,6)     =     15.858727    -0.000000     0.013737    15.872464
	   68 D(2,4,11,3)     =     -0.373895     0.000000     0.002889    -0.371005
	   69 D(2,4,11,13)    =    179.734077     0.000000     0.004745   179.738822
	   70 D(2,9,1,3)      =     -0.533344     0.000000     0.031438    -0.501906
	   71 D(2,9,1,14)     =   -178.113946    -0.000000     0.005269  -178.108676
	   72 D(2,9,10,5)     =     16.174753    -0.000000    -0.026418    16.148335
	   73 D(2,9,10,6)     =   -163.096205    -0.000000    -0.007135  -163.103340
	   74 D(3,1,9,10)     =   -179.517515     0.000000     0.011203  -179.506312
	   75 D(3,11,4,17)    =    179.192506    -0.000000    -0.008200   179.184306
	   76 D(3,11,13,23)   =    179.782268     0.000000     0.001706   179.783974
	   77 D(4,2,9,10)     =    178.982376    -0.000000     0.003232   178.985608
	   78 D(4,11,3,16)    =    179.434301    -0.000000    -0.009953   179.424348
	   79 D(4,11,13,23)   =     -0.322982     0.000000    -0.000099    -0.323081
	   80 D(5,7,12,8)     =      0.069771    -0.000000    -0.005635     0.064136
	   81 D(5,7,12,22)    =   -179.985795    -0.000000    -0.011938  -179.997732
	   82 D(5,10,6,8)     =      0.305274     0.000000     0.003765     0.309039
	   83 D(5,10,6,19)    =   -178.163080     0.000000     0.014206  -178.148874
	   84 D(6,8,12,7)     =     -0.041083    -0.000000    -0.010104    -0.051187
	   85 D(6,8,12,22)    =   -179.985518    -0.000000    -0.003802  -179.989320
	   86 D(6,10,5,7)     =     -0.276521    -0.000000    -0.019550    -0.296071
	   87 D(6,10,5,18)    =   -178.563761    -0.000000    -0.010592  -178.574353
	   88 D(7,5,10,9)     =   -179.586240     0.000000    -0.001378  -179.587618
	   89 D(7,12,8,21)    =    179.464331    -0.000000    -0.005877   179.458454
	   90 D(8,6,10,9)     =    179.615868    -0.000000    -0.014520   179.601347
	   91 D(8,12,7,20)    =    179.653444     0.000000     0.005095   179.658539
	   92 D(9,1,3,11)     =      0.614243    -0.000000    -0.028772     0.585471
	   93 D(9,1,3,16)     =   -178.964627    -0.000000    -0.007124  -178.971752
	   94 D(9,2,4,11)     =      0.451199    -0.000000     0.000406     0.451605
	   95 D(9,2,4,17)     =   -179.115883     0.000000     0.011483  -179.104400
	   96 D(9,10,5,18)    =      2.126520     0.000000     0.007580     2.134100
	   97 D(9,10,6,19)    =      1.147514    -0.000000    -0.004079     1.143435
	   98 D(10,5,7,12)    =      0.098011     0.000000     0.020935     0.118946
	   99 D(10,5,7,20)    =   -179.457203     0.000000     0.009488  -179.447715
	  100 D(10,6,8,12)    =     -0.155778     0.000000     0.010769    -0.145009
	  101 D(10,6,8,21)    =   -179.627446     0.000000     0.006275  -179.621171
	  102 D(10,9,1,14)    =      2.901884     0.000000    -0.014965     2.886918
	  103 D(10,9,2,15)    =      1.366430    -0.000000     0.003541     1.369971
	  104 D(11,3,1,14)    =    178.261989     0.000000    -0.003347   178.258642
	  105 D(11,4,2,15)    =    178.133444     0.000000    -0.000017   178.133427
	  106 D(12,7,5,18)    =    178.444964     0.000000     0.012188   178.457151
	  107 D(12,8,6,19)    =    178.365491    -0.000000     0.000687   178.366178
	  108 D(13,11,3,16)   =     -0.666576    -0.000000    -0.011682    -0.678258
	  109 D(13,11,4,17)   =     -0.699522    -0.000000    -0.006344    -0.705867
	  110 D(14,1,3,16)    =     -1.316882     0.000000     0.018301    -1.298581
	  111 D(15,2,4,17)    =     -1.433638     0.000000     0.011060    -1.422577
	  112 D(18,5,7,20)    =     -1.110251     0.000000     0.000741    -1.109510
	  113 D(19,6,8,21)    =     -1.106177    -0.000000    -0.003807    -1.109984
	  114 D(20,7,12,22)   =     -0.402122    -0.000000    -0.001208    -0.403330
	  115 D(21,8,12,22)   =     -0.480105    -0.000000     0.000426    -0.479678
	 ---------------------------------------------------------------------------
	Successfully symmetrized geometry.
	 Forces used to impose fixed constraints are not included.
	  Forces zeroed: 66 

  ==> Convergence Check <==

  Measures of convergence in internal coordinates in au.
  Criteria marked as inactive (o), active & met (*), and active & unmet ( ).
  ---------------------------------------------------------------------------------------------
   Step     Total Energy     Delta E     MAX Force     RMS Force      MAX Disp      RMS Disp   
  ---------------------------------------------------------------------------------------------
    Convergence Criteria    1.00e-06 *    3.00e-04 *             o    1.20e-03 *             o
  ---------------------------------------------------------------------------------------------
      6    -554.10200515   -1.74e-07 *    5.98e-05 *    1.12e-05 o    5.49e-04 *    1.43e-04 o  ~
  ---------------------------------------------------------------------------------------------


  **** Optimization is complete! (in 6 steps) ****

  ==> Optimization Summary <==

  Measures of convergence in internal coordinates in au.
  --------------------------------------------------------------------------------------------------------------- ~
   Step         Total Energy             Delta E       MAX Force       RMS Force        MAX Disp        RMS Disp  ~
  --------------------------------------------------------------------------------------------------------------- ~
      1    -554.097036463042   -554.097036463042      0.01547389      0.00534201      0.03052500      0.00931170  ~
      2    -554.100858406412     -0.003821943370      0.00724607      0.00210354      0.03021694      0.00931154  ~
      3    -554.101924399221     -0.001065992809      0.00169202      0.00042467      0.02218399      0.00602976  ~
      4    -554.102001194367     -0.000076795146      0.00070160      0.00011297      0.00392016      0.00112317  ~
      5    -554.102004973867     -0.000003779500      0.00008832      0.00002552      0.00136515      0.00030604  ~
      6    -554.102005147620     -0.000000173753      0.00005985      0.00001130      0.00054869      0.00014285  ~
  --------------------------------------------------------------------------------------------------------------- ~

	Writing optimization data to binary file.
	Final energy is   -554.1020051476204
	Final (previous) structure:
	Cartesian Geometry (in Angstrom)
	    C    -1.3014732315   0.7141453091  -0.5462516403
	    C    -0.2988356603   0.1107984099   1.5507032279
	    C    -2.3631962995   1.2833874353   0.1195532999
	    C    -1.3544004468   0.6890668950   2.2238883786
	    C     1.7693958951  -1.3493896070   0.0830109135
	    C     1.1261343227  -0.1958887748  -1.9007238545
	    C     2.8298335483  -1.8916324013  -0.5954376199
	    C     2.1949743657  -0.7541999864  -2.5525509998
	    C    -0.2478200849   0.1098657138   0.1524187011
	    C     0.8698724393  -0.4774178778  -0.5497596209
	    C    -2.3978932708   1.2770730543   1.5124380556
	    N     3.0171548718  -1.5843745037  -1.8897298240
	    O    -3.4598639189   1.8540373096   2.0950961001
	    H    -1.3226623128   0.7124058986  -1.6244256698
	    H     0.5058548720  -0.3075833342   2.1341430836
	    H    -3.1820331530   1.7337849936  -0.4189287480
	    H    -1.3674062381   0.6915583754   3.3041254399
	    H     1.6357911456  -1.6379703663   1.1114847840
	    H     0.5042496586   0.4854437254  -2.4555234049
	    H     3.5363653527  -2.5706113302  -0.1478315559
	    H     2.4281358715  -0.5585869854  -3.5859595547
	    H     3.8027550803  -1.9903988575  -2.3805859098
	    H    -3.3939900253   1.7960838141   3.0550697857
	Saving final (previous) structure.
			--------------------------
			 OPTKING Finished Execution 
			--------------------------

    Final optimized geometry and variables:
    Molecular point group: c1
    Full point group: C1

    Geometry (in Angstrom), charge = 1, multiplicity = 1:

    C           -1.301473231458     0.714145309121    -0.546251640252
    C           -0.298835660345     0.110798409942     1.550703227857
    C           -2.363196299540     1.283387435336     0.119553299932
    C           -1.354400446781     0.689066895006     2.223888378606
    C            1.769395895086    -1.349389606981     0.083010913529
    C            1.126134322730    -0.195888774786    -1.900723854548
    C            2.829833548252    -1.891632401324    -0.595437619923
    C            2.194974365705    -0.754199986380    -2.552550999761
    C           -0.247820084940     0.109865713761     0.152418701111
    C            0.869872439260    -0.477417877808    -0.549759620926
    C           -2.397893270799     1.277073054294     1.512438055555
    N            3.017154871810    -1.584374503715    -1.889729824015
    O           -3.459863918938     1.854037309596     2.095096100114
    H           -1.322662312844     0.712405898583    -1.624425669765
    H            0.505854872046    -0.307583334163     2.134143083624
    H           -3.182033153019     1.733784993567    -0.418928747973
    H           -1.367406238093     0.691558375392     3.304125439903
    H            1.635791145592    -1.637970366311     1.111484783962
    H            0.504249658551     0.485443725410    -2.455523404865
    H            3.536365352653    -2.570611330194    -0.147831555887
    H            2.428135871527    -0.558586985372    -3.585959554660
    H            3.802755080317    -1.990398857473    -2.380585909785
    H           -3.393990025301     1.796083814102     3.055069785700

	Cleaning optimization helper files.

*** Psi4 exiting successfully. Buy a developer a beer!
