
    -----------------------------------------------------------------------
          Psi4: An Open-Source Ab Initio Electronic Structure Package
                               Psi4 1.1 release

                         Git: Rev {HEAD} add49b9 


    R. M. Parrish, L. A. Burns, D. G. A. Smith, A. C. Simmonett,
    A. E. DePrince III, E. G. Hohenstein, U. Bozkaya, A. Yu. Sokolov,
    R. Di Remigio, R. M. Richard, J. F. Gonthier, A. M. James,
    H. R. McAlexander, A. Kumar, M. Saitow, X. Wang, B. P. Pritchard,
    P. Verma, H. F. Schaefer III, K. Patkowski, R. A. King, E. F. Valeev,
    F. A. Evangelista, J. M. Turney, T. D. Crawford, and C. D. Sherrill,
    J. Chem. Theory Comput. in press (2017).
    (doi: 10.1021/acs.jctc.7b00174)

    -----------------------------------------------------------------------


    Psi4 started on: Saturday, 11 November 2017 09:40AM

    Process ID:  27075
    PSIDATADIR: /cbio/jclab/home/chayas/anaconda/envs/py35/share/psi4
    Memory:     500.0 MiB
    Threads:    8
    
  ==> Input File <==

--------------------------------------------------------------------------

molecule phepyr {
  symmetry C1
  0 1 
  C      1.885   -1.036   -0.112
  C      0.807   -0.463   0.561
  C      2.921   -1.631   0.608
  C      0.764   -0.484   1.955
  C      2.878   -1.652   2.002
  C      0.867   -0.277   4.805
  C      2.599   -1.946   4.833
  C      0.862   -0.337   6.190
  C      2.516   -1.931   6.216
  C      1.800   -1.079   2.676
  C      1.755   -1.100   4.122
  N      1.667   -1.145   6.915
  H      1.917   -1.021   -1.198
  H      -0.001   -0.002   0.000
  H      3.760   -2.079   0.084
  H      -0.084   -0.033   2.466
  H      3.693   -2.120   2.550
  H      0.192   0.395   4.285
  H      3.305   -2.602   4.334
  H      0.187   0.284   6.769
  H      3.154   -2.571   6.817
  units Angstrom
}

dih_string = "4 10 11 6 345"
set optking fixed_dihedral = $dih_string

optimize('MP2/aug-cc-PVTZ')
--------------------------------------------------------------------------
gradient() will perform analytic gradient computation.

*** tstart() called on gpu-2-9.local
*** at Sat Nov 11 09:40:32 2017

    SCF Algorithm Type (re)set to DF.

*** tstart() called on gpu-2-9.local
*** at Sat Nov 11 09:40:32 2017

   => Loading Basis Set <=

    Name: AUG-CC-PVTZ
    Role: ORBITAL
    Keyword: BASIS
    atoms 1-11  entry C          line   221 file /cbio/jclab/home/chayas/anaconda/envs/py35/share/psi4/basis/aug-cc-pvtz.gbs 
    atoms 12    entry N          line   267 file /cbio/jclab/home/chayas/anaconda/envs/py35/share/psi4/basis/aug-cc-pvtz.gbs 
    atoms 13-21 entry H          line    34 file /cbio/jclab/home/chayas/anaconda/envs/py35/share/psi4/basis/aug-cc-pvtz.gbs 


         ---------------------------------------------------------
                                   SCF
            by Justin Turney, Rob Parrish, and Andy Simmonett
                              RHF Reference
                        8 Threads,    500 MiB Core
         ---------------------------------------------------------

  ==> Geometry <==

    Molecular point group: c1
    Full point group: C1

    Geometry (in Angstrom), charge = 0, multiplicity = 1:

       Center              X                  Y                   Z               Mass       
    ------------   -----------------  -----------------  -----------------  -----------------
           C          0.108808138637     0.054391374049    -3.525958847047    12.000000000000
           C         -0.969191861363     0.627391374049    -2.852958847047    12.000000000000
           C          1.144808138637    -0.540608625951    -2.805958847047    12.000000000000
           C         -1.012191861363     0.606391374049    -1.458958847047    12.000000000000
           C          1.101808138637    -0.561608625951    -1.411958847047    12.000000000000
           C         -0.909191861363     0.813391374049     1.391041152953    12.000000000000
           C          0.822808138637    -0.855608625951     1.419041152953    12.000000000000
           C         -0.914191861363     0.753391374049     2.776041152953    12.000000000000
           C          0.739808138637    -0.840608625951     2.802041152953    12.000000000000
           C          0.023808138637     0.011391374049    -0.737958847047    12.000000000000
           C         -0.021191861363    -0.009608625951     0.708041152953    12.000000000000
           N         -0.109191861363    -0.054608625951     3.501041152953    14.003074004780
           H          0.140808138637     0.069391374049    -4.611958847047     1.007825032070
           H         -1.777191861363     1.088391374049    -3.413958847047     1.007825032070
           H          1.983808138637    -0.988608625951    -3.329958847047     1.007825032070
           H         -1.860191861363     1.057391374049    -0.947958847047     1.007825032070
           H          1.916808138637    -1.029608625951    -0.863958847047     1.007825032070
           H         -1.584191861363     1.485391374049     0.871041152953     1.007825032070
           H          1.528808138637    -1.511608625951     0.920041152953     1.007825032070
           H         -1.589191861363     1.374391374049     3.355041152953     1.007825032070
           H          1.377808138637    -1.480608625951     3.403041152953     1.007825032070

  Running in c1 symmetry.

  Rotational constants: A =      0.09741  B =      0.01908  C =      0.01604 [cm^-1]
  Rotational constants: A =   2920.36789  B =    571.89371  C =    480.92853 [MHz]
  Nuclear repulsion =  607.389080443934859

  Charge       = 0
  Multiplicity = 1
  Electrons    = 82
  Nalpha       = 41
  Nbeta        = 41

  ==> Algorithm <==

  SCF Algorithm Type is DF.
  DIIS enabled.
  MOM disabled.
  Fractional occupation disabled.
  Guess Type is SAD.
  Energy threshold   = 1.00e-10
  Density threshold  = 1.00e-10
  Integral threshold = 0.00e+00

  ==> Primary Basis <==

  Basis Set: AUG-CC-PVTZ
    Blend: AUG-CC-PVTZ
    Number of shells: 249
    Number of basis function: 759
    Number of Cartesian functions: 885
    Spherical Harmonics?: true
    Max angular momentum: 3

   => Loading Basis Set <=

    Name: (AUG-CC-PVTZ AUX)
    Role: JKFIT
    Keyword: DF_BASIS_SCF
    atoms 1-11  entry C          line   161 file /cbio/jclab/home/chayas/anaconda/envs/py35/share/psi4/basis/aug-cc-pvtz-jkfit.gbs 
    atoms 12    entry N          line   223 file /cbio/jclab/home/chayas/anaconda/envs/py35/share/psi4/basis/aug-cc-pvtz-jkfit.gbs 
    atoms 13-21 entry H          line    69 file /cbio/jclab/home/chayas/anaconda/envs/py35/share/psi4/basis/aug-cc-pvtz-jkfit.gbs 

  ==> Pre-Iterations <==

   -------------------------------------------------------
    Irrep   Nso     Nmo     Nalpha   Nbeta   Ndocc  Nsocc
   -------------------------------------------------------
     A        759     759       0       0       0       0
   -------------------------------------------------------
    Total     759     759      41      41      41       0
   -------------------------------------------------------

  ==> Integral Setup <==

  ==> DFJK: Density-Fitted J/K Matrices <==

    J tasked:                  Yes
    K tasked:                  Yes
    wK tasked:                  No
    OpenMP threads:              8
    Integrals threads:           8
    Memory (MB):               375
    Algorithm:                Disk
    Integral Cache:           NONE
    Schwarz Cutoff:          1E-12
    Fitting Condition:       1E-12

   => Auxiliary Basis Set <=

  Basis Set: (AUG-CC-PVTZ AUX)
    Blend: AUG-CC-PVTZ-JKFIT
    Number of shells: 486
    Number of basis function: 1662
    Number of Cartesian functions: 2067
    Spherical Harmonics?: true
    Max angular momentum: 4

  Minimum eigenvalue in the overlap matrix is 4.1121653057E-07.
  Using Symmetric Orthogonalization.

  SCF Guess: Superposition of Atomic Densities via on-the-fly atomic UHF.

  ==> Iterations <==

                           Total Energy        Delta E     RMS |[F,P]|

   @DF-RHF iter   0:  -484.78455432378581   -4.84785e+02   2.50139e-02 
   @DF-RHF iter   1:  -476.11819836089080    8.66636e+00   1.91845e-03 
   @DF-RHF iter   2:  -476.33996771750083   -2.21769e-01   9.13806e-04 DIIS
   @DF-RHF iter   3:  -476.37646124348566   -3.64935e-02   3.95717e-04 DIIS
   @DF-RHF iter   4:  -476.38980381080137   -1.33426e-02   1.10755e-04 DIIS
   @DF-RHF iter   5:  -476.39127529864680   -1.47149e-03   4.38445e-05 DIIS
   @DF-RHF iter   6:  -476.39153668959221   -2.61391e-04   1.52328e-05 DIIS
   @DF-RHF iter   7:  -476.39157651560117   -3.98260e-05   5.90579e-06 DIIS
   @DF-RHF iter   8:  -476.39158356789557   -7.05229e-06   3.26604e-06 DIIS
   @DF-RHF iter   9:  -476.39158627672373   -2.70883e-06   1.49333e-06 DIIS
   @DF-RHF iter  10:  -476.39158732106876   -1.04435e-06   6.36269e-07 DIIS
   @DF-RHF iter  11:  -476.39158738445326   -6.33845e-08   2.02319e-07 DIIS
   @DF-RHF iter  12:  -476.39158739280430   -8.35104e-09   5.83169e-08 DIIS
   @DF-RHF iter  13:  -476.39158739359942   -7.95126e-10   2.22216e-08 DIIS
   @DF-RHF iter  14:  -476.39158739369907   -9.96465e-11   1.22639e-08 DIIS
   @DF-RHF iter  15:  -476.39158739377046   -7.13953e-11   7.11121e-09 DIIS
   @DF-RHF iter  16:  -476.39158739375705    1.34150e-11   2.61082e-09 DIIS
   @DF-RHF iter  17:  -476.39158739377046   -1.34150e-11   7.67924e-10 DIIS
   @DF-RHF iter  18:  -476.39158739378217   -1.17097e-11   3.49937e-10 DIIS
   @DF-RHF iter  19:  -476.39158739378809   -5.91172e-12   1.19113e-10 DIIS
   @DF-RHF iter  20:  -476.39158739378018    7.90124e-12   5.03666e-11 DIIS

  ==> Post-Iterations <==

    Orbital Energies (a.u.)
    -----------------------

    Doubly Occupied:                                                      

       1A    -15.563172     2A    -11.275078     3A    -11.275024  
       4A    -11.264344     5A    -11.251925     6A    -11.247658  
       7A    -11.247473     8A    -11.246525     9A    -11.246230  
      10A    -11.245397    11A    -11.237670    12A    -11.237609  
      13A     -1.249814    14A     -1.175671    15A     -1.107799  
      16A     -1.039560    17A     -1.023816    18A     -1.015880  
      19A     -0.882406    20A     -0.872082    21A     -0.823475  
      22A     -0.806019    23A     -0.737415    24A     -0.682554  
      25A     -0.672885    26A     -0.666614    27A     -0.626967  
      28A     -0.619734    29A     -0.614222    30A     -0.585445  
      31A     -0.577231    32A     -0.551195    33A     -0.531094  
      34A     -0.512594    35A     -0.507840    36A     -0.493733  
      37A     -0.418666    38A     -0.410087    39A     -0.353505  
      40A     -0.345309    41A     -0.316645  

    Virtual:                                                              

      42A      0.024765    43A      0.028436    44A      0.032175  
      45A      0.039968    46A      0.043281    47A      0.046460  
      48A      0.058175    49A      0.058260    50A      0.064022  
      51A      0.066002    52A      0.080694    53A      0.086460  
      54A      0.087451    55A      0.092293    56A      0.096430  
      57A      0.103094    58A      0.105228    59A      0.108798  
      60A      0.116306    61A      0.116549    62A      0.116987  
      63A      0.119808    64A      0.125841    65A      0.130707  
      66A      0.132374    67A      0.135432    68A      0.138878  
      69A      0.141114    70A      0.142705    71A      0.147141  
      72A      0.149193    73A      0.151803    74A      0.152403  
      75A      0.166287    76A      0.167087    77A      0.173179  
      78A      0.173946    79A      0.184280    80A      0.186572  
      81A      0.187466    82A      0.190864    83A      0.197881  
      84A      0.203105    85A      0.215512    86A      0.219327  
      87A      0.223986    88A      0.231149    89A      0.233256  
      90A      0.237550    91A      0.246566    92A      0.252510  
      93A      0.252582    94A      0.256930    95A      0.261617  
      96A      0.264674    97A      0.265820    98A      0.273634  
      99A      0.280843   100A      0.282815   101A      0.289389  
     102A      0.290290   103A      0.293184   104A      0.297232  
     105A      0.302308   106A      0.303249   107A      0.309511  
     108A      0.313326   109A      0.316384   110A      0.323126  
     111A      0.323873   112A      0.326152   113A      0.339782  
     114A      0.344471   115A      0.346247   116A      0.347447  
     117A      0.356030   118A      0.357681   119A      0.368485  
     120A      0.370540   121A      0.376608   122A      0.381545  
     123A      0.384378   124A      0.397747   125A      0.407892  
     126A      0.409624   127A      0.414194   128A      0.415471  
     129A      0.417651   130A      0.422636   131A      0.423608  
     132A      0.438614   133A      0.438957   134A      0.440950  
     135A      0.442655   136A      0.446879   137A      0.449941  
     138A      0.450082   139A      0.456255   140A      0.459780  
     141A      0.464826   142A      0.473304   143A      0.475443  
     144A      0.476937   145A      0.481192   146A      0.487598  
     147A      0.494352   148A      0.494571   149A      0.499021  
     150A      0.499855   151A      0.501291   152A      0.502955  
     153A      0.506955   154A      0.511079   155A      0.515219  
     156A      0.521808   157A      0.522122   158A      0.529189  
     159A      0.530332   160A      0.533396   161A      0.536531  
     162A      0.538027   163A      0.547319   164A      0.549175  
     165A      0.550371   166A      0.555428   167A      0.564891  
     168A      0.567339   169A      0.570485   170A      0.584521  
     171A      0.584960   172A      0.589197   173A      0.598200  
     174A      0.601008   175A      0.605259   176A      0.621586  
     177A      0.622897   178A      0.627291   179A      0.639223  
     180A      0.640824   181A      0.646318   182A      0.657622  
     183A      0.659093   184A      0.666227   185A      0.684789  
     186A      0.684973   187A      0.691880   188A      0.693722  
     189A      0.699356   190A      0.705685   191A      0.708072  
     192A      0.710504   193A      0.713333   194A      0.715837  
     195A      0.720219   196A      0.739577   197A      0.739697  
     198A      0.743399   199A      0.744831   200A      0.751947  
     201A      0.758923   202A      0.767020   203A      0.778981  
     204A      0.780076   205A      0.792810   206A      0.802189  
     207A      0.805628   208A      0.814981   209A      0.819586  
     210A      0.823700   211A      0.831735   212A      0.832557  
     213A      0.841921   214A      0.848519   215A      0.852222  
     216A      0.861861   217A      0.872528   218A      0.875089  
     219A      0.875294   220A      0.882404   221A      0.884573  
     222A      0.889244   223A      0.892982   224A      0.894083  
     225A      0.903134   226A      0.903413   227A      0.907862  
     228A      0.913821   229A      0.914529   230A      0.915453  
     231A      0.923409   232A      0.929536   233A      0.936307  
     234A      0.939426   235A      0.951064   236A      0.954189  
     237A      0.958835   238A      0.964105   239A      0.967641  
     240A      0.968620   241A      0.977642   242A      0.978918  
     243A      0.985741   244A      0.990504   245A      0.993679  
     246A      1.006829   247A      1.007288   248A      1.008650  
     249A      1.015760   250A      1.016434   251A      1.022474  
     252A      1.025872   253A      1.029213   254A      1.035614  
     255A      1.037696   256A      1.042504   257A      1.047009  
     258A      1.051171   259A      1.056985   260A      1.061472  
     261A      1.074204   262A      1.074849   263A      1.082493  
     264A      1.086694   265A      1.088903   266A      1.095754  
     267A      1.100180   268A      1.100961   269A      1.103242  
     270A      1.109199   271A      1.115295   272A      1.116994  
     273A      1.130676   274A      1.139037   275A      1.139214  
     276A      1.141086   277A      1.155154   278A      1.158472  
     279A      1.166038   280A      1.175577   281A      1.177364  
     282A      1.180388   283A      1.187229   284A      1.188131  
     285A      1.193571   286A      1.199778   287A      1.204844  
     288A      1.206507   289A      1.209650   290A      1.217378  
     291A      1.218734   292A      1.224898   293A      1.233647  
     294A      1.233836   295A      1.241803   296A      1.242688  
     297A      1.253343   298A      1.265119   299A      1.265319  
     300A      1.279835   301A      1.282654   302A      1.283514  
     303A      1.297248   304A      1.300779   305A      1.305121  
     306A      1.305238   307A      1.307213   308A      1.318721  
     309A      1.321990   310A      1.334760   311A      1.345359  
     312A      1.350276   313A      1.364377   314A      1.367276  
     315A      1.375808   316A      1.384660   317A      1.390666  
     318A      1.397030   319A      1.401524   320A      1.403533  
     321A      1.427726   322A      1.436686   323A      1.446918  
     324A      1.448449   325A      1.453891   326A      1.468114  
     327A      1.471227   328A      1.482555   329A      1.483811  
     330A      1.499840   331A      1.500518   332A      1.519408  
     333A      1.521173   334A      1.531078   335A      1.536631  
     336A      1.545780   337A      1.549369   338A      1.577230  
     339A      1.579840   340A      1.584024   341A      1.590432  
     342A      1.604446   343A      1.615070   344A      1.621223  
     345A      1.635073   346A      1.648706   347A      1.649972  
     348A      1.664430   349A      1.666738   350A      1.674485  
     351A      1.687236   352A      1.696289   353A      1.703301  
     354A      1.707331   355A      1.710809   356A      1.714280  
     357A      1.718358   358A      1.725692   359A      1.731425  
     360A      1.743180   361A      1.748605   362A      1.756532  
     363A      1.778798   364A      1.779942   365A      1.797827  
     366A      1.804097   367A      1.808736   368A      1.816038  
     369A      1.823864   370A      1.831006   371A      1.836876  
     372A      1.848593   373A      1.850905   374A      1.864425  
     375A      1.868910   376A      1.877360   377A      1.889089  
     378A      1.899944   379A      1.910679   380A      1.911850  
     381A      1.921662   382A      1.933011   383A      1.938192  
     384A      1.951306   385A      1.962358   386A      1.965815  
     387A      1.981502   388A      1.983701   389A      1.990545  
     390A      1.998939   391A      2.013135   392A      2.015735  
     393A      2.021726   394A      2.024527   395A      2.028508  
     396A      2.029935   397A      2.044543   398A      2.046973  
     399A      2.050997   400A      2.063231   401A      2.067681  
     402A      2.070254   403A      2.085264   404A      2.087670  
     405A      2.089734   406A      2.108803   407A      2.111371  
     408A      2.116744   409A      2.125849   410A      2.129080  
     411A      2.129175   412A      2.153948   413A      2.155071  
     414A      2.169967   415A      2.176280   416A      2.186831  
     417A      2.193131   418A      2.193688   419A      2.193843  
     420A      2.212354   421A      2.219563   422A      2.231068  
     423A      2.244708   424A      2.245917   425A      2.257084  
     426A      2.263673   427A      2.281109   428A      2.289509  
     429A      2.301893   430A      2.314737   431A      2.322986  
     432A      2.326464   433A      2.349883   434A      2.364305  
     435A      2.365421   436A      2.371910   437A      2.375812  
     438A      2.394703   439A      2.397847   440A      2.405725  
     441A      2.417276   442A      2.434368   443A      2.439496  
     444A      2.443766   445A      2.465711   446A      2.476853  
     447A      2.493393   448A      2.503477   449A      2.506144  
     450A      2.514884   451A      2.538619   452A      2.550540  
     453A      2.557386   454A      2.579419   455A      2.587192  
     456A      2.589435   457A      2.602377   458A      2.623225  
     459A      2.664489   460A      2.665971   461A      2.683474  
     462A      2.709631   463A      2.736189   464A      2.736612  
     465A      2.776001   466A      2.779875   467A      2.800226  
     468A      2.808269   469A      2.823317   470A      2.852210  
     471A      2.852286   472A      2.865214   473A      2.919082  
     474A      2.923738   475A      2.945190   476A      3.008354  
     477A      3.020350   478A      3.033420   479A      3.059704  
     480A      3.084996   481A      3.115151   482A      3.139688  
     483A      3.173459   484A      3.187176   485A      3.212017  
     486A      3.215804   487A      3.221816   488A      3.229289  
     489A      3.248562   490A      3.266028   491A      3.287587  
     492A      3.301772   493A      3.322471   494A      3.333355  
     495A      3.337251   496A      3.352354   497A      3.358196  
     498A      3.365180   499A      3.368045   500A      3.383280  
     501A      3.399172   502A      3.401406   503A      3.415781  
     504A      3.417043   505A      3.434825   506A      3.448939  
     507A      3.454409   508A      3.461324   509A      3.475685  
     510A      3.491828   511A      3.492548   512A      3.508536  
     513A      3.512449   514A      3.515466   515A      3.528739  
     516A      3.537618   517A      3.540098   518A      3.551215  
     519A      3.553567   520A      3.569174   521A      3.576687  
     522A      3.586393   523A      3.587628   524A      3.602856  
     525A      3.615783   526A      3.617341   527A      3.635098  
     528A      3.643405   529A      3.649403   530A      3.677241  
     531A      3.677394   532A      3.681233   533A      3.684167  
     534A      3.703005   535A      3.718067   536A      3.721725  
     537A      3.755785   538A      3.766768   539A      3.768907  
     540A      3.776028   541A      3.778533   542A      3.784895  
     543A      3.785173   544A      3.809432   545A      3.817385  
     546A      3.824662   547A      3.837085   548A      3.844948  
     549A      3.865021   550A      3.868231   551A      3.868856  
     552A      3.881982   553A      3.882440   554A      3.885102  
     555A      3.909761   556A      3.910375   557A      3.927267  
     558A      3.931421   559A      3.932919   560A      3.944900  
     561A      3.948496   562A      3.949274   563A      3.960620  
     564A      3.978553   565A      3.992974   566A      3.999269  
     567A      4.003564   568A      4.005788   569A      4.019713  
     570A      4.023728   571A      4.030247   572A      4.031646  
     573A      4.050563   574A      4.051548   575A      4.076040  
     576A      4.079163   577A      4.101424   578A      4.112609  
     579A      4.113353   580A      4.122193   581A      4.132557  
     582A      4.156409   583A      4.160088   584A      4.175158  
     585A      4.187826   586A      4.189103   587A      4.194721  
     588A      4.201420   589A      4.207298   590A      4.213936  
     591A      4.218631   592A      4.230506   593A      4.238075  
     594A      4.244860   595A      4.253108   596A      4.271517  
     597A      4.283209   598A      4.294316   599A      4.296143  
     600A      4.310898   601A      4.312611   602A      4.326400  
     603A      4.342289   604A      4.352385   605A      4.358375  
     606A      4.364742   607A      4.377711   608A      4.378631  
     609A      4.409800   610A      4.414647   611A      4.424436  
     612A      4.437694   613A      4.443423   614A      4.451103  
     615A      4.456860   616A      4.461941   617A      4.465597  
     618A      4.469149   619A      4.487037   620A      4.493022  
     621A      4.501928   622A      4.509808   623A      4.535270  
     624A      4.548189   625A      4.551113   626A      4.553566  
     627A      4.566932   628A      4.596237   629A      4.609212  
     630A      4.622150   631A      4.643577   632A      4.652065  
     633A      4.656944   634A      4.695939   635A      4.710999  
     636A      4.719809   637A      4.721547   638A      4.730752  
     639A      4.737192   640A      4.739652   641A      4.776099  
     642A      4.790314   643A      4.803678   644A      4.811019  
     645A      4.816442   646A      4.841409   647A      4.874180  
     648A      4.881271   649A      4.887072   650A      4.923187  
     651A      4.923928   652A      4.935459   653A      4.955364  
     654A      4.959243   655A      4.984141   656A      4.985283  
     657A      4.995938   658A      5.014862   659A      5.023727  
     660A      5.031410   661A      5.044559   662A      5.070936  
     663A      5.091816   664A      5.096911   665A      5.105797  
     666A      5.110677   667A      5.119705   668A      5.139134  
     669A      5.144636   670A      5.145463   671A      5.149713  
     672A      5.159971   673A      5.170471   674A      5.178346  
     675A      5.181335   676A      5.195198   677A      5.201385  
     678A      5.212924   679A      5.238655   680A      5.253708  
     681A      5.292646   682A      5.302818   683A      5.323130  
     684A      5.332949   685A      5.352319   686A      5.352415  
     687A      5.376314   688A      5.410477   689A      5.412150  
     690A      5.429284   691A      5.454663   692A      5.463976  
     693A      5.464553   694A      5.503891   695A      5.524976  
     696A      5.526299   697A      5.557270   698A      5.563051  
     699A      5.582410   700A      5.617435   701A      5.660936  
     702A      5.697050   703A      5.708733   704A      5.745100  
     705A      5.761893   706A      5.771710   707A      5.791847  
     708A      5.798717   709A      5.811958   710A      5.845389  
     711A      5.868280   712A      5.878405   713A      5.907106  
     714A      5.910848   715A      5.914917   716A      5.983415  
     717A      5.991052   718A      6.084460   719A      6.160245  
     720A      6.181605   721A      6.186514   722A      6.224409  
     723A      6.284669   724A      6.285993   725A      6.310884  
     726A      6.339903   727A      6.425023   728A      6.452533  
     729A      6.477194   730A      6.521173   731A      6.547671  
     732A      6.580820   733A      6.650573   734A      6.666966  
     735A      6.720119   736A      6.745673   737A      6.750202  
     738A      6.770371   739A      6.900332   740A      6.907136  
     741A      6.955700   742A      7.019107   743A      7.026885  
     744A      7.101072   745A      7.191657   746A      7.335782  
     747A      7.482677   748A     15.622684   749A     16.300162  
     750A     16.910555   751A     17.230975   752A     18.567670  
     753A     18.862251   754A     19.162946   755A     19.601555  
     756A     20.225572   757A     20.413204   758A     20.725350  
     759A     21.647954  

    Final Occupation by Irrep:
              A 
    DOCC [    41 ]

  Energy converged.

  @DF-RHF Final Energy:  -476.39158739378018

   => Energetics <=

    Nuclear Repulsion Energy =            607.3890804439348585
    One-Electron Energy =               -1848.4446093323606419
    Two-Electron Energy =                 764.6639414946454281
    DFT Exchange-Correlation Energy =       0.0000000000000000
    Empirical Dispersion Energy =           0.0000000000000000
    PCM Polarization Energy =               0.0000000000000000
    EFP Energy =                            0.0000000000000000
    Total Energy =                       -476.3915873937802417



Properties will be evaluated at   0.000000,   0.000000,   0.000000 Bohr

Properties computed using the SCF density matrix

  Nuclear Dipole Moment: (a.u.)
     X:     0.1290      Y:     0.0606      Z:    -4.3400

  Electronic Dipole Moment: (a.u.)
     X:    -0.0947      Y:    -0.0440      Z:     3.1798

  Dipole Moment: (a.u.)
     X:     0.0343      Y:     0.0167      Z:    -1.1602     Total:     1.1608

  Dipole Moment: (Debye)
     X:     0.0873      Y:     0.0424      Z:    -2.9490     Total:     2.9506


*** tstop() called on gpu-2-9.local at Sat Nov 11 09:46:43 2017
Module time:
	user time   =    1311.10 seconds =      21.85 minutes
	system time =      39.45 seconds =       0.66 minutes
	total time  =        371 seconds =       6.18 minutes
Total time:
	user time   =    1311.10 seconds =      21.85 minutes
	system time =      39.45 seconds =       0.66 minutes
	total time  =        371 seconds =       6.18 minutes

  //>>>>>>>>>>>>>>>>>>>>>>>>>>>>>>>>>>>//
  //               DFMP2               //
  //<<<<<<<<<<<<<<<<<<<<<<<<<<<<<<<<<<<//

   => Loading Basis Set <=

    Name: (AUG-CC-PVTZ AUX)
    Role: RIFIT
    Keyword: DF_BASIS_MP2
    atoms 1-11  entry C          line   147 file /cbio/jclab/home/chayas/anaconda/envs/py35/share/psi4/basis/aug-cc-pvtz-ri.gbs 
    atoms 12    entry N          line   205 file /cbio/jclab/home/chayas/anaconda/envs/py35/share/psi4/basis/aug-cc-pvtz-ri.gbs 
    atoms 13-21 entry H          line    29 file /cbio/jclab/home/chayas/anaconda/envs/py35/share/psi4/basis/aug-cc-pvtz-ri.gbs 

	 --------------------------------------------------------
	                          DF-MP2                         
	      2nd-Order Density-Fitted Moller-Plesset Theory     
	              RMP2 Wavefunction,   8 Threads             
	                                                         
	        Rob Parrish, Justin Turney, Andy Simmonett,      
	           Ed Hohenstein, and C. David Sherrill          
	 --------------------------------------------------------

   => Auxiliary Basis Set <=

  Basis Set: (AUG-CC-PVTZ AUX)
    Blend: AUG-CC-PVTZ-RI
    Number of shells: 462
    Number of basis function: 1686
    Number of Cartesian functions: 2127
    Spherical Harmonics?: true
    Max angular momentum: 4

	 --------------------------------------------------------
	                 NBF =   759, NAUX =  1686
	 --------------------------------------------------------
	   CLASS    FOCC     OCC    AOCC    AVIR     VIR    FVIR
	   PAIRS       0      41      41     718     718       0
	 --------------------------------------------------------


         ------------------------------------------------------------
                                     CPHF                           
                                  Rob Parrish                       
         ------------------------------------------------------------

  ==> Geometry <==

    Molecular point group: c1
    Full point group: C1

    Geometry (in Angstrom), charge = 0, multiplicity = 1:

       Center              X                  Y                   Z               Mass       
    ------------   -----------------  -----------------  -----------------  -----------------
           C          0.108808138637     0.054391374049    -3.525958847047    12.000000000000
           C         -0.969191861363     0.627391374049    -2.852958847047    12.000000000000
           C          1.144808138637    -0.540608625951    -2.805958847047    12.000000000000
           C         -1.012191861363     0.606391374049    -1.458958847047    12.000000000000
           C          1.101808138637    -0.561608625951    -1.411958847047    12.000000000000
           C         -0.909191861363     0.813391374049     1.391041152953    12.000000000000
           C          0.822808138637    -0.855608625951     1.419041152953    12.000000000000
           C         -0.914191861363     0.753391374049     2.776041152953    12.000000000000
           C          0.739808138637    -0.840608625951     2.802041152953    12.000000000000
           C          0.023808138637     0.011391374049    -0.737958847047    12.000000000000
           C         -0.021191861363    -0.009608625951     0.708041152953    12.000000000000
           N         -0.109191861363    -0.054608625951     3.501041152953    14.003074004780
           H          0.140808138637     0.069391374049    -4.611958847047     1.007825032070
           H         -1.777191861363     1.088391374049    -3.413958847047     1.007825032070
           H          1.983808138637    -0.988608625951    -3.329958847047     1.007825032070
           H         -1.860191861363     1.057391374049    -0.947958847047     1.007825032070
           H          1.916808138637    -1.029608625951    -0.863958847047     1.007825032070
           H         -1.584191861363     1.485391374049     0.871041152953     1.007825032070
           H          1.528808138637    -1.511608625951     0.920041152953     1.007825032070
           H         -1.589191861363     1.374391374049     3.355041152953     1.007825032070
           H          1.377808138637    -1.480608625951     3.403041152953     1.007825032070

  Nuclear repulsion =  607.389080443934972
  Reference energy  = -476.391587393780185

  ==> Basis Set <==

  Basis Set: AUG-CC-PVTZ
    Blend: AUG-CC-PVTZ
    Number of shells: 249
    Number of basis function: 759
    Number of Cartesian functions: 885
    Spherical Harmonics?: true
    Max angular momentum: 3

  ==> CGRSolver (by Rob Parrish) <==

   Number of roots    =         1
   Preconditioning    =    JACOBI
   Convergence cutoff =     1E-06
   Maximum iterations =       100

  ==> CPHFRHamiltonian (by Rob Parrish) <== 

  ==> DFJK: Density-Fitted J/K Matrices <==

    J tasked:                  Yes
    K tasked:                  Yes
    wK tasked:                  No
    OpenMP threads:              8
    Integrals threads:           8
    Memory (MB):               375
    Algorithm:                Disk
    Integral Cache:           NONE
    Schwarz Cutoff:          1E-12
    Fitting Condition:       1E-12

   => Auxiliary Basis Set <=

  Basis Set: (AUG-CC-PVTZ AUX)
    Blend: AUG-CC-PVTZ-JKFIT
    Number of shells: 486
    Number of basis function: 1662
    Number of Cartesian functions: 2067
    Spherical Harmonics?: true
    Max angular momentum: 4

  ==> CPHF Iterations <==

  => Iterations <=

             Iter  Converged  Remaining    Residual
  CGR           1          0          1   8.345E-02
  CGR           2          0          1   3.265E-02
  CGR           3          0          1   2.303E-02
  CGR           4          0          1   9.558E-03
  CGR           5          0          1   2.880E-03
  CGR           6          0          1   1.176E-03
  CGR           7          0          1   5.460E-04
  CGR           8          0          1   2.363E-04
  CGR           9          0          1   1.078E-04
  CGR          10          0          1   3.965E-05
  CGR          11          0          1   8.768E-06
  CGR          12          0          1   3.331E-06
  CGR          13          1          0   8.639E-07

    CGRSolver converged.

  ==> DFCorrGrad: Density-Fitted Correlated Gradients <==

    OpenMP threads:              8
    Integrals threads:           8
    Memory (MB):               375
    Schwarz Cutoff:          0E+00
    Fitting Condition:       1E-12

   => Auxiliary Basis Set <=

  Basis Set: (AUG-CC-PVTZ AUX)
    Blend: AUG-CC-PVTZ-JKFIT
    Number of shells: 486
    Number of basis function: 1662
    Number of Cartesian functions: 2067
    Spherical Harmonics?: true
    Max angular momentum: 4

	-----------------------------------------------------------
	 ==================> DF-MP2 Energies <==================== 
	-----------------------------------------------------------
	 Reference Energy          =    -476.3915873937801848 [Eh]
	 Singles Energy            =      -0.0000000000000000 [Eh]
	 Same-Spin Energy          =      -0.5358368150921670 [Eh]
	 Opposite-Spin Energy      =      -1.6446883158485039 [Eh]
	 Correlation Energy        =      -2.1805251309406710 [Eh]
	 Total Energy              =    -478.5721125247208647 [Eh]
	-----------------------------------------------------------
	 ================> DF-SCS-MP2 Energies <================== 
	-----------------------------------------------------------
	 SCS Same-Spin Scale       =       0.3333333333333333 [-]
	 SCS Opposite-Spin Scale   =       1.2000000000000000 [-]
	 SCS Same-Spin Energy      =      -0.1786122716973890 [Eh]
	 SCS Opposite-Spin Energy  =      -1.9736259790182047 [Eh]
	 SCS Correlation Energy    =      -2.1522382507155937 [Eh]
	 SCS Total Energy          =    -478.5438256444957688 [Eh]
	-----------------------------------------------------------


  -Total Gradient:
     Atom            X                  Y                   Z
    ------   -----------------  -----------------  -----------------
       1       -0.000445279514     0.000405291048     0.000703262777
       2       -0.000409283611     0.000064367778    -0.002731536595
       3        0.001465072247    -0.000298195778    -0.002520426200
       4       -0.000120396495    -0.001264993604     0.012581751833
       5       -0.001213464725     0.001297843684     0.012741658759
       6       -0.002051028408     0.003650358804    -0.011816913625
       7        0.003044533620    -0.003412787624    -0.011145829410
       8       -0.005012434221     0.005563758143    -0.009086126860
       9        0.005091162391    -0.005220035339    -0.009826767573
      10        0.000393897807    -0.000720112570     0.006113219000
      11       -0.000315632749     0.000296233802     0.004598286949
      12       -0.000407565250    -0.000130717006     0.015888426084
      13        0.000083233487     0.000028862534    -0.004909380051
      14       -0.003583464563     0.002193209249    -0.002433713579
      15        0.003448162785    -0.002196353191    -0.002146423505
      16       -0.005522131172     0.004689036472     0.004472060559
      17        0.005175258556    -0.004815626335     0.004641513211
      18       -0.005011263500     0.002847330640    -0.004505761885
      19        0.005270988655    -0.002729423442    -0.004416651034
      20       -0.001450434152     0.001011604003     0.001737215402
      21        0.001570068801    -0.001259651271     0.002062135744


*** tstop() called on gpu-2-9.local at Sat Nov 11 10:12:29 2017
Module time:
	user time   =    6106.58 seconds =     101.78 minutes
	system time =      97.80 seconds =       1.63 minutes
	total time  =       1917 seconds =      31.95 minutes
Total time:
	user time   =    6106.58 seconds =     101.78 minutes
	system time =      97.80 seconds =       1.63 minutes
	total time  =       1917 seconds =      31.95 minutes

			-----------------------------------------
			 OPTKING 2.0: for geometry optimizations 
			  - R.A. King,  Bethel University        
			-----------------------------------------

	Internal coordinates to be generated automatically.
	Detected frag 1 with atoms:  1 2 3 4 5 6 7 8 9 10 11 12 13 14 15 16 17 18 19 20
	 21
	---Fragment 1 Bond Connectivity---
	 1 : 2 3 13
	 2 : 1 4 14
	 3 : 1 5 15
	 4 : 2 10 16
	 5 : 3 10 17
	 6 : 8 11 18
	 7 : 9 11 19
	 8 : 6 12 20
	 9 : 7 12 21
	 10 : 4 5 11
	 11 : 6 7 10
	 12 : 8 9
	 13 : 1
	 14 : 2
	 15 : 3
	 16 : 4
	 17 : 5
	 18 : 6
	 19 : 7
	 20 : 8
	 21 : 9

	Assuming in current code that numbering for constraints corresponds to unified fragment.
	Fixed dihedral atom list: 
	     4    10    11     6
	---Fragment 1 Geometry and Gradient---
	 C           0.2056175831        0.1027848009       -6.6630965767
	 C          -1.8315071882        1.1855978751       -5.3913108893
	 C           2.1633738567       -1.0216022481       -5.3024937611
	 C          -1.9127654119        1.1459136263       -2.7570326601
	 C           2.0821156330       -1.0612864969       -2.6682155318
	 C          -1.7181236202        1.5370869358        2.6286868187
	 C           1.5548820419       -1.6168659800        2.6815991504
	 C          -1.7275722509        1.4237033678        5.2459575127
	 C           1.3980347729       -1.5885200880        5.2950903922
	 C           0.0449908618        0.0215265772       -1.3945401183
	 C          -0.0400468142       -0.0181576716        1.3380038699
	 N          -0.2063427139       -0.1031953475        6.6160089590
	 H           0.2660888193        0.1311306929       -8.7153391571
	 H          -3.3584059036        2.0567616223       -6.4514472499
	 H           3.7488540822       -1.8681995557       -6.2927102547
	 H          -3.5152531726        1.9981801122       -1.7913826062
	 H           3.6222424313       -1.9456783271       -1.6326456110
	 H          -2.9936887599        2.8069828971        1.6460292296
	 H           2.8890286918       -2.8565263232        1.7386258101
	 H          -3.0031373906        2.5972232964        6.3401089436
	 H           2.6036800457       -2.7979448130        6.4308157980
	            -0.0004452795        0.0004052910        0.0007032628
	            -0.0004092836        0.0000643678       -0.0027315366
	             0.0014650722       -0.0002981958       -0.0025204262
	            -0.0001203965       -0.0012649936        0.0125817518
	            -0.0012134647        0.0012978437        0.0127416588
	            -0.0020510284        0.0036503588       -0.0118169136
	             0.0030445336       -0.0034127876       -0.0111458294
	            -0.0050124342        0.0055637581       -0.0090861269
	             0.0050911624       -0.0052200353       -0.0098267676
	             0.0003938978       -0.0007201126        0.0061132190
	            -0.0003156327        0.0002962338        0.0045982869
	            -0.0004075652       -0.0001307170        0.0158884261
	             0.0000832335        0.0000288625       -0.0049093801
	            -0.0035834646        0.0021932092       -0.0024337136
	             0.0034481628       -0.0021963532       -0.0021464235
	            -0.0055221312        0.0046890365        0.0044720606
	             0.0051752586       -0.0048156263        0.0046415132
	            -0.0050112635        0.0028473306       -0.0045057619
	             0.0052709887       -0.0027294234       -0.0044166510
	            -0.0014504342        0.0010116040        0.0017372154
	             0.0015700688       -0.0012596513        0.0020621357

	Previous optimization step data not found.  Starting new optimization.

	---Fragment 1 Intrafragment Coordinates---
	 - Coordinate -           - BOHR/RAD -       - ANG/DEG -
	 R(1,2)           =         2.634350	       1.394038
	 R(1,3)           =         2.635962	       1.394891
	 R(1,13)          =         2.053329	       1.086575
	 R(2,4)           =         2.635830	       1.394821
	 R(2,14)          =         2.052860	       1.086327
	 R(3,5)           =         2.635830	       1.394821
	 R(3,15)          =         2.052073	       1.085910
	 R(4,10)          =         2.636938	       1.395407
	 R(4,16)          =         2.055920	       1.087946
	 R(5,10)          =         2.635263	       1.394521
	 R(5,17)          =         2.055856	       1.087912
	 R(6,8)           =         2.619743	       1.386308
	 R(6,11)          =         2.626897	       1.390094
	 R(6,18)          =         2.050687	       1.085177
	 R(7,9)           =         2.618347	       1.385570
	 R(7,11)          =         2.627720	       1.390530
	 R(7,19)          =         2.050830	       1.085253
	 R(8,12)          =         2.553938	       1.351486
	 R(8,20)          =         2.049727	       1.084669
	 R(9,12)          =         2.554416	       1.351739
	 R(9,21)          =         2.050893	       1.085286
	 R(10,11)         =         2.734155	       1.446852
	 B(1,2,4)         =         2.094553	     120.009056
	 B(1,2,14)        =         2.094726	     120.018942
	 B(1,3,5)         =         2.093692	     119.959722
	 B(1,3,15)        =         2.095250	     120.048965
	 B(2,1,3)         =         2.094940	     120.031219
	 B(2,1,13)        =         2.093950	     119.974480
	 B(2,4,10)        =         2.094306	     119.994870
	 B(2,4,16)        =         2.079681	     119.156970
	 B(3,1,13)        =         2.094293	     119.994160
	 B(3,5,10)        =         2.095181	     120.045019
	 B(3,5,17)        =         2.079222	     119.130634
	 B(4,2,14)        =         2.093904	     119.971849
	 B(4,10,5)        =         2.093699	     119.960108
	 B(4,10,11)       =         2.093804	     119.966144
	 B(5,3,15)        =         2.094242	     119.991253
	 B(5,10,11)       =         2.095682	     120.073736
	 B(6,8,12)        =         2.164781	     124.032827
	 B(6,8,20)        =         2.106871	     120.714804
	 B(6,11,7)        =         2.090596	     119.782326
	 B(6,11,10)       =         2.097075	     120.153551
	 B(7,9,12)        =         2.165269	     124.060753
	 B(7,9,21)        =         2.107313	     120.740147
	 B(7,11,10)       =         2.095513	     120.064024
	 B(8,6,11)        =         2.057313	     117.875377
	 B(8,6,18)        =         2.098199	     120.217939
	 B(8,12,9)        =         2.031242	     116.381569
	 B(9,7,11)        =         2.057169	     117.867096
	 B(9,7,19)        =         2.099554	     120.295606
	 B(10,4,16)       =         2.109198	     120.848149
	 B(10,5,17)       =         2.108782	     120.824331
	 B(11,6,18)       =         2.127672	     121.906609
	 B(11,7,19)       =         2.126462	     121.837297
	 B(12,8,20)       =         2.011533	     115.252356
	 B(12,9,21)       =         2.010601	     115.198923
	 D(1,2,4,10)      =        -0.000325	      -0.018609
	 D(1,2,4,16)      =        -3.141283	    -179.982244
	 D(1,3,5,10)      =         0.000325	       0.018608
	 D(1,3,5,17)      =         3.141117	     179.972749
	 D(2,1,3,5)       =        -0.000348	      -0.019945
	 D(2,1,3,15)      =         3.139689	     179.890913
	 D(2,4,10,5)      =         0.000301	       0.017261
	 D(2,4,10,11)     =         3.141198	     179.977407
	 D(3,1,2,4)       =         0.000348	       0.019955
	 D(3,1,2,14)      =        -3.138767	    -179.838124
	 D(3,5,10,4)      =        -0.000301	      -0.017270
	 D(3,5,10,11)     =        -3.141198	    -179.977373
	 D(4,2,1,13)      =         3.139559	     179.883471
	 D(4,10,5,17)     =        -3.141080	    -179.970623
	 D(4,10,11,6)     =        -0.260843	     -14.945206
	 D(4,10,11,7)     =         2.878744	     164.939877
	 D(5,3,1,13)      =        -3.139558	    -179.883434
	 D(5,10,4,16)     =         3.141248	     179.980271
	 D(5,10,11,6)     =         2.880053	     165.014894
	 D(5,10,11,7)     =        -0.263545	     -15.100023
	 D(6,8,12,9)      =        -0.001382	      -0.079185
	 D(6,11,7,9)      =         0.000040	       0.002278
	 D(6,11,7,19)     =        -3.141291	    -179.982729
	 D(7,9,12,8)      =         0.001512	       0.086637
	 D(7,11,6,8)      =         0.000076	       0.004370
	 D(7,11,6,18)     =        -3.139780	    -179.896155
	 D(8,6,11,10)     =         3.139669	     179.889778
	 D(8,12,9,21)     =         3.140441	     179.934001
	 D(9,7,11,10)     =        -3.139555	    -179.883234
	 D(9,12,8,20)     =         3.139494	     179.879735
	 D(10,4,2,14)     =         3.138792	     179.839537
	 D(10,5,3,15)     =        -3.139713	    -179.892302
	 D(10,11,6,18)    =        -0.000188	      -0.010747
	 D(10,11,7,19)    =         0.002300	       0.131759
	 D(11,6,8,12)     =         0.000629	       0.036032
	 D(11,6,8,20)     =        -3.140210	    -179.920752
	 D(11,7,9,12)     =        -0.000879	      -0.050390
	 D(11,7,9,21)     =        -3.139668	    -179.889702
	 D(11,10,4,16)    =        -0.001040	      -0.059583
	 D(11,10,5,17)    =         0.001209	       0.069274
	 D(12,8,6,18)     =         3.140516	     179.938307
	 D(12,9,7,19)     =         3.140456	     179.934859
	 D(13,1,2,14)     =         0.000443	       0.025392
	 D(13,1,3,15)     =         0.000479	       0.027424
	 D(14,2,4,16)     =        -0.002166	      -0.124098
	 D(15,3,5,17)     =         0.001079	       0.061840
	 D(18,6,8,20)     =        -0.000322	      -0.018476
	 D(19,7,9,21)     =         0.001668	       0.095547

	Current energy   :      -478.5721125247

	Generating empirical Hessian (Schlegel '84) for each fragment.
	Adding user-defined constraint: Fragment 1; Coordinate 71:
		Value =    -0.260843; Fixed value    =    -0.261799
		Force =    -0.000478; Force constant =     0.500000
	Removing off-diagonal coupling between coordinate 71 and others.
	Taking RFO optimization step.
	Going to follow RFO solution 1.
	Using RFO vector 1.

	Determining step-restricting scale parameter for RS-RFO.
	Maximum step size allowed    0.10000

	 Iter      |step|        alpha        rfo_root  
	------------------------------------------------
	    0     0.23209       1.00000           1
	    1     0.17490       4.24012           1
	    2     0.13732      13.25074           1
	    3     0.11251      28.64216           1
	    4     0.10204      39.82108           1
	    5     0.10007      42.39966           1
	    6     0.10000      42.49250           1
	------------------------------------------------
	Norm of target step-size    0.10000
	Projected energy change by RFO approximation:        -0.0053372639

	Back-transformation to cartesian coordinates...
	Could not converge backtransformation.
	Using first guess instead.

	--- Internal Coordinate Step in ANG or DEG, aJ/ANG or AJ/DEG ---
	 ---------------------------------------------------------------------------
	   Coordinate                Previous        Force       Change         New 
	   ----------                --------       ------       ------       ------
	    1 R(1,2)          =      1.394038    -0.061149    -0.005804     1.388234
	    2 R(1,3)          =      1.394891    -0.066708    -0.006330     1.388561
	    3 R(1,13)         =      1.086575    -0.040449    -0.004466     1.082109
	    4 R(2,4)          =      1.394821    -0.057897    -0.005354     1.389467
	    5 R(2,14)         =      1.086327    -0.039982    -0.004405     1.081921
	    6 R(3,5)          =      1.394821    -0.057858    -0.005351     1.389471
	    7 R(3,15)         =      1.085910    -0.037948    -0.004174     1.081736
	    8 R(4,10)         =      1.395407     0.016766     0.001846     1.397253
	    9 R(4,16)         =      1.087946    -0.068781    -0.007568     1.080378
	   10 R(5,10)         =      1.394521     0.021925     0.002323     1.396844
	   11 R(5,17)         =      1.087912    -0.068271    -0.007505     1.080408
	   12 R(6,8)          =      1.386308    -0.006572    -0.000617     1.385691
	   13 R(6,11)         =      1.390094     0.027401     0.003161     1.393255
	   14 R(6,18)         =      1.085177    -0.057996    -0.006280     1.078897
	   15 R(7,9)          =      1.385570    -0.002856    -0.000269     1.385300
	   16 R(7,11)         =      1.390530     0.026101     0.003062     1.393591
	   17 R(7,19)         =      1.085253    -0.058574    -0.006333     1.078920
	   18 R(8,12)         =      1.351486    -0.131442    -0.011201     1.340285
	   19 R(8,20)         =      1.084669    -0.019848    -0.002171     1.082498
	   20 R(9,12)         =      1.351739    -0.132286    -0.011273     1.340465
	   21 R(9,21)         =      1.085286    -0.023132    -0.002534     1.082752
	   22 R(10,11)        =      1.446852     0.218557     0.022781     1.469633
	   23 B(1,2,4)        =    120.009056     0.000115     0.147782   120.156838
	   24 B(1,2,14)       =    120.018942    -0.000064    -0.085961   119.932981
	   25 B(1,3,5)        =    119.959722     0.000124     0.163209   120.122931
	   26 B(1,3,15)       =    120.048965    -0.000070    -0.095952   119.953013
	   27 B(2,1,3)        =    120.031219    -0.000150    -0.327073   119.704146
	   28 B(2,1,13)       =    119.974480     0.000078     0.168970   120.143450
	   29 B(2,4,10)       =    119.994870     0.000450     0.764183   120.759053
	   30 B(2,4,16)       =    119.156970    -0.000270    -0.473038   118.683932
	   31 B(3,1,13)       =    119.994160     0.000072     0.158161   120.152321
	   32 B(3,5,10)       =    120.045019     0.000441     0.749942   120.794961
	   33 B(3,5,17)       =    119.130634    -0.000267    -0.469152   118.661482
	   34 B(4,2,14)       =    119.971849    -0.000051    -0.061882   119.909967
	   35 B(4,10,5)       =    119.960108    -0.000980    -1.498093   118.462016
	   36 B(4,10,11)      =    119.966144     0.000504     0.769867   120.736010
	   37 B(5,3,15)       =    119.991253    -0.000055    -0.067201   119.924052
	   38 B(5,10,11)      =    120.073736     0.000477     0.728030   120.801766
	   39 B(6,8,12)       =    124.032827     0.000104     0.093864   124.126692
	   40 B(6,8,20)       =    120.714804    -0.000094    -0.128792   120.586012
	   41 B(6,11,7)       =    119.782326    -0.001538    -2.302948   117.479378
	   42 B(6,11,10)      =    120.153551     0.000759     1.135915   121.289467
	   43 B(7,9,12)       =    124.060753     0.000091     0.075038   124.135791
	   44 B(7,9,21)       =    120.740147    -0.000093    -0.128286   120.611861
	   45 B(7,11,10)      =    120.064024     0.000779     1.166716   121.230739
	   46 B(8,6,11)       =    117.875377     0.000675     1.175859   119.051236
	   47 B(8,6,18)       =    120.217939    -0.000434    -0.779793   119.438147
	   48 B(8,12,9)       =    116.381569    -0.000010    -0.223094   116.158475
	   49 B(9,7,11)       =    117.867096     0.000677     1.181237   119.048333
	   50 B(9,7,19)       =    120.295606    -0.000444    -0.800876   119.494730
	   51 B(10,4,16)      =    120.848149    -0.000180    -0.291558   120.556591
	   52 B(10,5,17)      =    120.824331    -0.000174    -0.280942   120.543389
	   53 B(11,6,18)      =    121.906609    -0.000241    -0.396083   121.510526
	   54 B(11,7,19)      =    121.837297    -0.000233    -0.380571   121.456726
	   55 B(12,8,20)      =    115.252356    -0.000010     0.034940   115.287296
	   56 B(12,9,21)      =    115.198923     0.000001     0.053393   115.252317
	   57 D(1,2,4,10)     =     -0.018609    -0.000003    -0.056138    -0.074747
	   58 D(1,2,4,16)     =   -179.982244     0.000011     0.143052  -179.839192
	   59 D(1,3,5,10)     =      0.018608    -0.000002    -0.013045     0.005563
	   60 D(1,3,5,17)     =    179.972749     0.000013     0.181261   180.154010
	   61 D(2,1,3,5)      =     -0.019945     0.000002     0.032694     0.012749
	   62 D(2,1,3,15)     =    179.890913     0.000007     0.098097   179.989010
	   63 D(2,4,10,5)     =      0.017261     0.000003     0.074162     0.091423
	   64 D(2,4,10,11)    =    179.977407    -0.000001    -0.050687   179.926720
	   65 D(3,1,2,4)      =      0.019955     0.000001     0.001589     0.021544
	   66 D(3,1,2,14)     =   -179.838124     0.000003     0.027842  -179.810282
	   67 D(3,5,10,4)     =     -0.017270    -0.000001    -0.039659    -0.056929
	   68 D(3,5,10,11)    =   -179.977373     0.000004     0.085259  -179.892114
	   69 D(4,2,1,13)     =    179.883471     0.000002     0.033389   179.916859
	   70 D(4,10,5,17)    =   -179.970623    -0.000016    -0.237550  -180.208173
	   71 D(4,10,11,6)    =    -14.945206    -0.000028    -0.211497   -15.156703
	   72 D(4,10,11,7)    =    164.939877    -0.000032    -0.337149   164.602729
	   73 D(5,3,1,13)     =   -179.883434     0.000000     0.000876  -179.882557
	   74 D(5,10,4,16)    =    179.980271    -0.000012    -0.128822   179.851449
	   75 D(5,10,11,6)    =    165.014894    -0.000033    -0.340171   164.674723
	   76 D(5,10,11,7)    =    -15.100023    -0.000037    -0.465823   -15.565845
	   77 D(6,8,12,9)     =     -0.079185     0.000002     0.015890    -0.063296
	   78 D(6,11,7,9)     =      0.002278    -0.000001    -0.046166    -0.043888
	   79 D(6,11,7,19)    =   -179.982729    -0.000016    -0.229474  -180.212203
	   80 D(7,9,12,8)     =      0.086637     0.000001     0.014490     0.101128
	   81 D(7,11,6,8)     =      0.004370     0.000003     0.073727     0.078097
	   82 D(7,11,6,18)    =   -179.896155    -0.000012    -0.136477  -180.032631
	   83 D(8,6,11,10)    =    179.889778    -0.000001    -0.043548   179.846231
	   84 D(8,12,9,21)    =    179.934001     0.000007     0.102017   180.036019
	   85 D(9,7,11,10)    =   -179.883234     0.000003     0.071068  -179.812166
	   86 D(9,12,8,20)    =    179.879735     0.000006     0.066771   179.946506
	   87 D(10,4,2,14)    =    179.839537    -0.000006    -0.082420   179.757117
	   88 D(10,5,3,15)    =   -179.892302    -0.000007    -0.078403  -179.970706
	   89 D(10,11,6,18)   =     -0.010747    -0.000016    -0.253751    -0.264498
	   90 D(10,11,7,19)   =      0.131759    -0.000012    -0.112240     0.019519
	   91 D(11,6,8,12)    =      0.036032    -0.000004    -0.061319    -0.025287
	   92 D(11,6,8,20)    =   -179.920752    -0.000008    -0.114831  -180.035582
	   93 D(11,7,9,12)    =     -0.050390    -0.000001     0.001446    -0.048944
	   94 D(11,7,9,21)    =   -179.889702    -0.000008    -0.090819  -179.980521
	   95 D(11,10,4,16)   =     -0.059583    -0.000016    -0.253671    -0.313254
	   96 D(11,10,5,17)   =      0.069274    -0.000011    -0.112632    -0.043358
	   97 D(12,8,6,18)    =    179.938307     0.000012     0.144802   180.083109
	   98 D(12,9,7,19)    =    179.934859     0.000013     0.181155   180.116013
	   99 D(13,1,2,14)    =      0.025392     0.000005     0.059642     0.085034
	  100 D(13,1,3,15)    =      0.027424     0.000005     0.066280     0.093704
	  101 D(14,2,4,16)    =     -0.124098     0.000009     0.116770    -0.007328
	  102 D(15,3,5,17)    =      0.061840     0.000008     0.115902     0.177742
	  103 D(18,6,8,20)    =     -0.018476     0.000007     0.091290     0.072814
	  104 D(19,7,9,21)    =      0.095547     0.000007     0.088889     0.184436
	 ---------------------------------------------------------------------------
	Successfully symmetrized geometry.
	 Forces used to impose fixed constraints are not included.
	  Forces zeroed: 71 

  ==> Convergence Check <==

  Measures of convergence in internal coordinates in au.
  Criteria marked as inactive (o), active & met (*), and active & unmet ( ).
  --------------------------------------------------------------------------------------------- ~
   Step     Total Energy     Delta E     MAX Force     RMS Force      MAX Disp      RMS Disp    ~
  --------------------------------------------------------------------------------------------- ~
    Convergence Criteria    1.00e-06 *    3.00e-04 *             o    1.20e-03 *             o  ~
  --------------------------------------------------------------------------------------------- ~
      1    -478.57211252   -4.79e+02      2.65e-02      5.41e-03 o    4.30e-02      9.80e-03 o  ~
  ---------------------------------------------------------------------------------------------

	Writing optimization data to binary file.
	Structure for next step:
	Cartesian Geometry (in Angstrom)
	    C     0.1096109625   0.0546760248  -3.5534317098
	    C    -0.9640662046   0.6209823466  -2.8798537695
	    C     1.1409702867  -0.5332795742  -2.8332187547
	    C    -1.0064477577   0.6000481238  -1.4911912401
	    C     1.0979014127  -0.5546568788  -1.4445804359
	    C    -0.8993007914   0.8073034117   1.4239137419
	    C     0.8110095110  -0.8507595527   1.4516851299
	    C    -0.9046161748   0.7481218677   2.8083298280
	    C     0.7284699453  -0.8360645570   2.8344461345
	    C     0.0237186424   0.0109246988  -0.7536223583
	    C    -0.0208482069  -0.0095172807   0.7151929070
	    N    -0.1099911556  -0.0547366729   3.5296851819
	    H     0.1417444626   0.0699100758  -4.6349562119
	    H    -1.7711666525   1.0773569892  -3.4374065338
	    H     1.9794490974  -0.9759059800  -3.3539764478
	    H    -1.8545221201   1.0453558355  -0.9915036579
	    H     1.9142005080  -1.0160266452  -0.9078548238
	    H    -1.5717098125   1.4836527484   0.9194963223
	    H     1.5130720992  -1.5123173609   0.9684484046
	    H    -1.5764612033   1.3720853811   3.3837399216
	    H     1.3629540630  -1.4789341460   3.4315225836
			--------------------------
			 OPTKING Finished Execution 
			--------------------------

    Structure for next step:
    Molecular point group: c1
    Full point group: C1

    Geometry (in Angstrom), charge = 0, multiplicity = 1:

    C            0.109641644234     0.054724074322    -3.554075371737
    C           -0.964035522775     0.621030396103    -2.880497431494
    C            1.141000968488    -0.533231524643    -2.833862416721
    C           -1.006417075880     0.600096173339    -1.491834902029
    C            1.097932094483    -0.554608829205    -1.445224097836
    C           -0.899270109607     0.807351461245     1.423270079961
    C            0.811040192781    -0.850711503112     1.451041467948
    C           -0.904585492969     0.748169917300     2.807686166037
    C            0.728500627119    -0.836016507451     2.833802472517
    C            0.023749324182     0.010972748338    -0.754266020308
    C           -0.020817525085    -0.009469231167     0.714549245075
    N           -0.109960473851    -0.054688623346     3.529041519955
    H            0.141775144360     0.069958125383    -4.635599873879
    H           -1.771135970749     1.077405038756    -3.438050195746
    H            1.979479779136    -0.975857930464    -3.354620109759
    H           -1.854491438366     1.045403885052    -0.992147319872
    H            1.914231189789    -1.015978595633    -0.908498485748
    H           -1.571679130701     1.483700797936     0.918852660354
    H            1.513102780969    -1.512269311398     0.967804742625
    H           -1.576430521555     1.372133430646     3.383096259624
    H            1.362984744795    -1.478886096414     3.430878921596

gradient() will perform analytic gradient computation.

*** tstart() called on gpu-2-9.local
*** at Sat Nov 11 10:12:31 2017

    SCF Algorithm Type (re)set to DF.

*** tstart() called on gpu-2-9.local
*** at Sat Nov 11 10:12:31 2017

   => Loading Basis Set <=

    Name: AUG-CC-PVTZ
    Role: ORBITAL
    Keyword: BASIS
    atoms 1-11  entry C          line   221 file /cbio/jclab/home/chayas/anaconda/envs/py35/share/psi4/basis/aug-cc-pvtz.gbs 
    atoms 12    entry N          line   267 file /cbio/jclab/home/chayas/anaconda/envs/py35/share/psi4/basis/aug-cc-pvtz.gbs 
    atoms 13-21 entry H          line    34 file /cbio/jclab/home/chayas/anaconda/envs/py35/share/psi4/basis/aug-cc-pvtz.gbs 


         ---------------------------------------------------------
                                   SCF
            by Justin Turney, Rob Parrish, and Andy Simmonett
                              RHF Reference
                        8 Threads,    500 MiB Core
         ---------------------------------------------------------

  ==> Geometry <==

    Molecular point group: c1
    Full point group: C1

    Geometry (in Angstrom), charge = 0, multiplicity = 1:

       Center              X                  Y                   Z               Mass       
    ------------   -----------------  -----------------  -----------------  -----------------
           C          0.109641644234     0.054724074322    -3.554075371737    12.000000000000
           C         -0.964035522775     0.621030396103    -2.880497431494    12.000000000000
           C          1.141000968488    -0.533231524643    -2.833862416721    12.000000000000
           C         -1.006417075880     0.600096173339    -1.491834902029    12.000000000000
           C          1.097932094483    -0.554608829205    -1.445224097836    12.000000000000
           C         -0.899270109607     0.807351461245     1.423270079961    12.000000000000
           C          0.811040192781    -0.850711503112     1.451041467948    12.000000000000
           C         -0.904585492969     0.748169917300     2.807686166037    12.000000000000
           C          0.728500627119    -0.836016507451     2.833802472517    12.000000000000
           C          0.023749324182     0.010972748338    -0.754266020308    12.000000000000
           C         -0.020817525085    -0.009469231167     0.714549245075    12.000000000000
           N         -0.109960473851    -0.054688623346     3.529041519955    14.003074004780
           H          0.141775144360     0.069958125383    -4.635599873879     1.007825032070
           H         -1.771135970749     1.077405038756    -3.438050195746     1.007825032070
           H          1.979479779136    -0.975857930464    -3.354620109759     1.007825032070
           H         -1.854491438366     1.045403885052    -0.992147319872     1.007825032070
           H          1.914231189789    -1.015978595633    -0.908498485748     1.007825032070
           H         -1.571679130701     1.483700797936     0.918852660354     1.007825032070
           H          1.513102780969    -1.512269311398     0.967804742625     1.007825032070
           H         -1.576430521555     1.372133430646     3.383096259624     1.007825032070
           H          1.362984744795    -1.478886096414     3.430878921596     1.007825032070

  Running in c1 symmetry.

  Rotational constants: A =      0.09883  B =      0.01866  C =      0.01579 [cm^-1]
  Rotational constants: A =   2962.70379  B =    559.54741  C =    473.35385 [MHz]
  Nuclear repulsion =  605.832734331031361

  Charge       = 0
  Multiplicity = 1
  Electrons    = 82
  Nalpha       = 41
  Nbeta        = 41

  ==> Algorithm <==

  SCF Algorithm Type is DF.
  DIIS enabled.
  MOM disabled.
  Fractional occupation disabled.
  Guess Type is READ.
  Energy threshold   = 1.00e-10
  Density threshold  = 1.00e-10
  Integral threshold = 0.00e+00

  ==> Primary Basis <==

  Basis Set: AUG-CC-PVTZ
    Blend: AUG-CC-PVTZ
    Number of shells: 249
    Number of basis function: 759
    Number of Cartesian functions: 885
    Spherical Harmonics?: true
    Max angular momentum: 3

   => Loading Basis Set <=

    Name: (AUG-CC-PVTZ AUX)
    Role: JKFIT
    Keyword: DF_BASIS_SCF
    atoms 1-11  entry C          line   161 file /cbio/jclab/home/chayas/anaconda/envs/py35/share/psi4/basis/aug-cc-pvtz-jkfit.gbs 
    atoms 12    entry N          line   223 file /cbio/jclab/home/chayas/anaconda/envs/py35/share/psi4/basis/aug-cc-pvtz-jkfit.gbs 
    atoms 13-21 entry H          line    69 file /cbio/jclab/home/chayas/anaconda/envs/py35/share/psi4/basis/aug-cc-pvtz-jkfit.gbs 

  Reading orbitals from file 180, no projection.

  ==> Pre-Iterations <==

   -------------------------------------------------------
    Irrep   Nso     Nmo     Nalpha   Nbeta   Ndocc  Nsocc
   -------------------------------------------------------
     A        759     759       0       0       0       0
   -------------------------------------------------------
    Total     759     759      41      41      41       0
   -------------------------------------------------------

  ==> Integral Setup <==

  ==> DFJK: Density-Fitted J/K Matrices <==

    J tasked:                  Yes
    K tasked:                  Yes
    wK tasked:                  No
    OpenMP threads:              8
    Integrals threads:           8
    Memory (MB):               375
    Algorithm:                Disk
    Integral Cache:           NONE
    Schwarz Cutoff:          1E-12
    Fitting Condition:       1E-12

   => Auxiliary Basis Set <=

  Basis Set: (AUG-CC-PVTZ AUX)
    Blend: AUG-CC-PVTZ-JKFIT
    Number of shells: 486
    Number of basis function: 1662
    Number of Cartesian functions: 2067
    Spherical Harmonics?: true
    Max angular momentum: 4

  Minimum eigenvalue in the overlap matrix is 4.1361866177E-07.
  Using Symmetric Orthogonalization.

  SCF Guess: Orbitals guess was supplied from a previous computation.

  ==> Iterations <==

                           Total Energy        Delta E     RMS |[F,P]|

   @DF-RHF iter   0:  -476.59736227085648   -4.76597e+02   8.14762e-04 
   @DF-RHF iter   1:  -476.39451336236311    2.02849e-01   2.79203e-04 
   @DF-RHF iter   2:  -476.39639063822614   -1.87728e-03   2.11473e-04 DIIS
   @DF-RHF iter   3:  -476.39818125553506   -1.79062e-03   2.43120e-05 DIIS
   @DF-RHF iter   4:  -476.39820527155257   -2.40160e-05   4.52153e-06 DIIS
   @DF-RHF iter   5:  -476.39820772956432   -2.45801e-06   1.50070e-06 DIIS
   @DF-RHF iter   6:  -476.39820806237174   -3.32807e-07   6.76510e-07 DIIS
   @DF-RHF iter   7:  -476.39820818359976   -1.21228e-07   4.28996e-07 DIIS
   @DF-RHF iter   8:  -476.39820822272804   -3.91283e-08   1.70600e-07 DIIS
   @DF-RHF iter   9:  -476.39820822883917   -6.11112e-09   4.94673e-08 DIIS
   @DF-RHF iter  10:  -476.39820822942960   -5.90433e-10   2.32778e-08 DIIS
   @DF-RHF iter  11:  -476.39820822949451   -6.49152e-11   6.52550e-09 DIIS
   @DF-RHF iter  12:  -476.39820822951503   -2.05205e-11   2.79415e-09 DIIS
   @DF-RHF iter  13:  -476.39820822954312   -2.80806e-11   1.23511e-09 DIIS
   @DF-RHF iter  14:  -476.39820822953800    5.11591e-12   4.94479e-10 DIIS
   @DF-RHF iter  15:  -476.39820822952430    1.36993e-11   2.45456e-10 DIIS
   @DF-RHF iter  16:  -476.39820822953550   -1.11982e-11   8.75265e-11 DIIS

  ==> Post-Iterations <==

    Orbital Energies (a.u.)
    -----------------------

    Doubly Occupied:                                                      

       1A    -15.561908     2A    -11.273034     3A    -11.273001  
       4A    -11.268303     5A    -11.255772     6A    -11.246199  
       7A    -11.246165     8A    -11.245012     9A    -11.244227  
      10A    -11.243363    11A    -11.237596    12A    -11.237560  
      13A     -1.255887    14A     -1.175226    15A     -1.107750  
      16A     -1.038561    17A     -1.025401    18A     -1.018594  
      19A     -0.881952    20A     -0.870738    21A     -0.826389  
      22A     -0.808895    23A     -0.737303    24A     -0.684105  
      25A     -0.673671    26A     -0.666746    27A     -0.629692  
      28A     -0.621724    29A     -0.610244    30A     -0.587344  
      31A     -0.581309    32A     -0.551625    33A     -0.529058  
      34A     -0.515001    35A     -0.510311    36A     -0.493856  
      37A     -0.419170    38A     -0.410707    39A     -0.352730  
      40A     -0.345775    41A     -0.319453  

    Virtual:                                                              

      42A      0.024757    43A      0.028620    44A      0.032169  
      45A      0.039961    46A      0.043208    47A      0.047235  
      48A      0.058165    49A      0.058189    50A      0.064367  
      51A      0.066516    52A      0.081056    53A      0.086308  
      54A      0.088581    55A      0.092652    56A      0.096005  
      57A      0.102927    58A      0.105489    59A      0.108918  
      60A      0.116169    61A      0.116234    62A      0.116959  
      63A      0.119677    64A      0.125707    65A      0.130729  
      66A      0.132366    67A      0.135366    68A      0.138493  
      69A      0.141164    70A      0.142269    71A      0.147183  
      72A      0.148953    73A      0.151680    74A      0.151984  
      75A      0.166229    76A      0.166968    77A      0.173297  
      78A      0.173889    79A      0.183724    80A      0.186059  
      81A      0.186889    82A      0.190849    83A      0.197389  
      84A      0.203774    85A      0.216366    86A      0.219399  
      87A      0.223421    88A      0.230349    89A      0.233290  
      90A      0.237112    91A      0.245886    92A      0.252653  
      93A      0.252752    94A      0.257531    95A      0.261583  
      96A      0.264851    97A      0.267105    98A      0.273905  
      99A      0.280497   100A      0.284060   101A      0.290329  
     102A      0.291582   103A      0.294597   104A      0.296750  
     105A      0.301519   106A      0.303130   107A      0.309400  
     108A      0.313495   109A      0.315851   110A      0.323353  
     111A      0.323630   112A      0.324659   113A      0.338947  
     114A      0.344050   115A      0.345499   116A      0.347110  
     117A      0.355461   118A      0.357021   119A      0.366490  
     120A      0.371058   121A      0.376820   122A      0.381604  
     123A      0.384837   124A      0.397745   125A      0.408578  
     126A      0.408758   127A      0.414529   128A      0.414746  
     129A      0.418292   130A      0.421775   131A      0.424141  
     132A      0.437201   133A      0.438288   134A      0.440904  
     135A      0.441966   136A      0.446506   137A      0.448103  
     138A      0.452548   139A      0.454415   140A      0.458884  
     141A      0.464478   142A      0.472876   143A      0.474806  
     144A      0.476853   145A      0.480652   146A      0.486504  
     147A      0.493227   148A      0.494950   149A      0.499590  
     150A      0.500837   151A      0.501367   152A      0.502960  
     153A      0.506386   154A      0.511911   155A      0.516969  
     156A      0.521604   157A      0.521700   158A      0.529557  
     159A      0.530427   160A      0.532950   161A      0.535712  
     162A      0.536924   163A      0.546193   164A      0.547861  
     165A      0.549229   166A      0.554707   167A      0.564477  
     168A      0.565063   169A      0.569079   170A      0.582498  
     171A      0.584330   172A      0.587011   173A      0.598330  
     174A      0.601688   175A      0.605037   176A      0.618945  
     177A      0.619709   178A      0.628257   179A      0.638334  
     180A      0.638756   181A      0.646440   182A      0.659497  
     183A      0.661134   184A      0.665825   185A      0.684513  
     186A      0.684587   187A      0.691390   188A      0.696659  
     189A      0.698251   190A      0.702606   191A      0.708922  
     192A      0.709846   193A      0.712843   194A      0.713069  
     195A      0.722440   196A      0.738823   197A      0.739280  
     198A      0.741261   199A      0.745116   200A      0.750376  
     201A      0.759168   202A      0.765159   203A      0.777828  
     204A      0.777898   205A      0.792117   206A      0.800301  
     207A      0.804811   208A      0.813753   209A      0.820023  
     210A      0.826985   211A      0.831156   212A      0.832257  
     213A      0.842750   214A      0.847531   215A      0.852548  
     216A      0.863129   217A      0.870549   218A      0.875965  
     219A      0.876217   220A      0.881571   221A      0.882057  
     222A      0.889770   223A      0.892582   224A      0.896871  
     225A      0.901283   226A      0.903254   227A      0.905175  
     228A      0.912352   229A      0.913183   230A      0.916900  
     231A      0.920712   232A      0.926424   233A      0.937367  
     234A      0.937682   235A      0.951700   236A      0.953131  
     237A      0.957668   238A      0.961007   239A      0.966733  
     240A      0.967942   241A      0.975380   242A      0.977839  
     243A      0.983141   244A      0.989611   245A      0.990644  
     246A      1.005324   247A      1.006575   248A      1.007339  
     249A      1.012245   250A      1.014138   251A      1.022259  
     252A      1.025817   253A      1.028555   254A      1.036419  
     255A      1.037818   256A      1.041945   257A      1.044884  
     258A      1.050137   259A      1.054730   260A      1.062497  
     261A      1.073533   262A      1.074073   263A      1.082437  
     264A      1.083481   265A      1.087031   266A      1.094597  
     267A      1.096933   268A      1.098642   269A      1.103084  
     270A      1.107536   271A      1.114562   272A      1.116875  
     273A      1.128475   274A      1.133663   275A      1.138991  
     276A      1.139835   277A      1.154499   278A      1.160070  
     279A      1.168182   280A      1.175943   281A      1.177946  
     282A      1.178776   283A      1.186255   284A      1.190602  
     285A      1.193279   286A      1.198530   287A      1.203536  
     288A      1.204166   289A      1.210759   290A      1.213478  
     291A      1.215251   292A      1.222192   293A      1.231038  
     294A      1.232256   295A      1.239922   296A      1.244041  
     297A      1.256364   298A      1.261169   299A      1.265730  
     300A      1.277967   301A      1.281329   302A      1.284260  
     303A      1.292632   304A      1.296580   305A      1.301982  
     306A      1.303674   307A      1.304673   308A      1.318312  
     309A      1.322693   310A      1.334712   311A      1.342450  
     312A      1.348706   313A      1.362090   314A      1.364952  
     315A      1.372099   316A      1.382410   317A      1.390821  
     318A      1.398590   319A      1.399592   320A      1.408333  
     321A      1.426266   322A      1.437184   323A      1.443611  
     324A      1.446838   325A      1.455150   326A      1.465304  
     327A      1.470250   328A      1.478897   329A      1.479702  
     330A      1.495898   331A      1.499885   332A      1.515469  
     333A      1.517855   334A      1.527389   335A      1.530030  
     336A      1.544484   337A      1.547999   338A      1.568661  
     339A      1.573133   340A      1.579567   341A      1.586851  
     342A      1.606090   343A      1.613140   344A      1.615366  
     345A      1.625387   346A      1.646595   347A      1.649741  
     348A      1.659916   349A      1.660241   350A      1.671053  
     351A      1.684230   352A      1.696897   353A      1.705211  
     354A      1.706208   355A      1.709650   356A      1.714663  
     357A      1.716741   358A      1.725612   359A      1.733956  
     360A      1.747165   361A      1.752881   362A      1.756207  
     363A      1.774305   364A      1.780482   365A      1.797464  
     366A      1.799630   367A      1.809814   368A      1.812387  
     369A      1.823148   370A      1.825761   371A      1.844716  
     372A      1.850961   373A      1.853585   374A      1.862763  
     375A      1.865993   376A      1.874542   377A      1.892025  
     378A      1.899455   379A      1.906397   380A      1.909098  
     381A      1.913979   382A      1.929508   383A      1.939623  
     384A      1.951001   385A      1.965992   386A      1.969074  
     387A      1.981933   388A      1.982243   389A      1.988609  
     390A      1.999387   391A      2.011481   392A      2.013231  
     393A      2.018041   394A      2.024604   395A      2.031975  
     396A      2.034155   397A      2.042468   398A      2.046202  
     399A      2.054190   400A      2.063756   401A      2.066670  
     402A      2.070414   403A      2.088120   404A      2.088583  
     405A      2.095389   406A      2.098340   407A      2.112461  
     408A      2.118975   409A      2.121179   410A      2.127598  
     411A      2.129594   412A      2.150214   413A      2.151817  
     414A      2.169032   415A      2.177777   416A      2.185965  
     417A      2.187860   418A      2.193280   419A      2.196555  
     420A      2.214069   421A      2.216495   422A      2.225255  
     423A      2.243917   424A      2.247633   425A      2.253254  
     426A      2.254012   427A      2.276246   428A      2.288844  
     429A      2.299334   430A      2.313386   431A      2.319071  
     432A      2.329726   433A      2.354638   434A      2.365892  
     435A      2.366958   436A      2.370623   437A      2.372679  
     438A      2.392908   439A      2.396000   440A      2.405000  
     441A      2.421224   442A      2.429462   443A      2.443206  
     444A      2.444718   445A      2.470491   446A      2.474552  
     447A      2.492930   448A      2.499958   449A      2.502863  
     450A      2.509370   451A      2.531476   452A      2.554545  
     453A      2.563900   454A      2.573715   455A      2.586056  
     456A      2.599756   457A      2.601961   458A      2.619358  
     459A      2.662565   460A      2.663538   461A      2.680015  
     462A      2.698719   463A      2.731717   464A      2.733902  
     465A      2.783897   466A      2.786984   467A      2.802005  
     468A      2.809358   469A      2.823256   470A      2.852455  
     471A      2.856317   472A      2.863564   473A      2.905481  
     474A      2.908171   475A      2.941740   476A      3.006098  
[...]
	 R(6,18)          =         2.037667	       1.078287
	 R(7,9)           =         2.617753	       1.385255
	 R(7,11)          =         2.633643	       1.393664
	 R(7,19)          =         2.037799	       1.078357
	 R(8,12)          =         2.522230	       1.334706
	 R(8,20)          =         2.043164	       1.081196
	 R(9,12)          =         2.522224	       1.334703
	 R(9,21)          =         2.043183	       1.081206
	 R(10,11)         =         2.772608	       1.467201
	 B(1,2,4)         =         2.098700	     120.246671
	 B(1,2,14)        =         2.096064	     120.095595
	 B(1,3,5)         =         2.098259	     120.221364
	 B(1,3,15)        =         2.096168	     120.101556
	 B(2,1,3)         =         2.083393	     119.369638
	 B(2,1,13)        =         2.099847	     120.312397
	 B(2,4,10)        =         2.113731	     121.107859
	 B(2,4,16)        =         2.075274	     118.904439
	 B(3,1,13)        =         2.099938	     120.317566
	 B(3,5,10)        =         2.114145	     121.131566
	 B(3,5,17)        =         2.075574	     118.921633
	 B(4,2,14)        =         2.088399	     119.656450
	 B(4,10,5)        =         2.058017	     117.915693
	 B(4,10,11)       =         2.114306	     121.140805
	 B(5,3,15)        =         2.088701	     119.673768
	 B(5,10,11)       =         2.110246	     120.908173
	 B(6,8,12)        =         2.162025	     123.874890
	 B(6,8,20)        =         2.092003	     119.862959
	 B(6,11,7)        =         2.023360	     115.929972
	 B(6,11,10)       =         2.131599	     122.131614
	 B(7,9,12)        =         2.161603	     123.850713
	 B(7,9,21)        =         2.092231	     119.875996
	 B(7,11,10)       =         2.127592	     121.902063
	 B(8,6,11)        =         2.095022	     120.035938
	 B(8,6,18)        =         2.073801	     118.820017
	 B(8,12,9)        =         2.028845	     116.244276
	 B(9,7,11)        =         2.095397	     120.057417
	 B(9,7,19)        =         2.074239	     118.845118
	 B(10,4,16)       =         2.093697	     119.960008
	 B(10,5,17)       =         2.093148	     119.928530
	 B(11,6,18)       =         2.113900	     121.117545
	 B(11,7,19)       =         2.113286	     121.082374
	 B(12,8,20)       =         2.029156	     116.262050
	 B(12,9,21)       =         2.029326	     116.271801
	 D(1,2,4,10)      =        -0.005655	      -0.324003
	 D(1,2,4,16)      =        -3.113821	    -178.408794
	 D(1,3,5,10)      =         0.006649	       0.380961
	 D(1,3,5,17)      =        -3.107783	    -178.062841
	 D(2,1,3,5)       =         0.004201	       0.240704
	 D(2,1,3,15)      =        -3.125799	    -179.095113
	 D(2,4,10,5)      =         0.016033	       0.918650
	 D(2,4,10,11)     =         3.120224	     178.775646
	 D(3,1,2,4)       =        -0.004692	      -0.268818
	 D(3,1,2,14)      =        -3.139064	    -179.855105
	 D(3,5,10,4)      =        -0.016532	      -0.947236
	 D(3,5,10,11)     =        -3.120814	    -178.809461
	 D(4,2,1,13)      =         3.140901	     179.960369
	 D(4,10,5,17)     =         3.097629	     177.481059
	 D(4,10,11,6)     =        -0.266352	     -15.260846
	 D(4,10,11,7)     =         2.835400	     162.456434
	 D(5,3,1,13)      =        -3.141392	    -179.988495
	 D(5,10,4,16)     =         3.123850	     178.983421
	 D(5,10,11,6)     =         2.836720	     162.532063
	 D(5,10,11,7)     =        -0.344714	     -19.750657
	 D(6,8,12,9)      =        -0.001800	      -0.103140
	 D(6,11,7,9)      =        -0.015998	      -0.916643
	 D(6,11,7,19)     =         3.100645	     177.653870
	 D(7,9,12,8)      =         0.001747	       0.100111
	 D(7,11,6,8)      =         0.015947	       0.913669
	 D(7,11,6,18)     =         3.124472	     179.019043
	 D(8,6,11,10)     =         3.119931	     178.758879
	 D(8,12,9,21)     =        -3.132064	    -179.454026
	 D(9,7,11,10)     =        -3.120077	    -178.767248
	 D(9,12,8,20)     =        -3.141362	    -179.986789
	 D(10,4,2,14)     =         3.128749	     179.264102
	 D(10,5,3,15)     =         3.136699	     179.719622
	 D(10,11,6,18)    =        -0.054729	      -3.135747
	 D(10,11,7,19)    =        -0.003434	      -0.196734
	 D(11,6,8,12)     =        -0.007487	      -0.428985
	 D(11,6,8,20)     =         3.132006	     179.450698
	 D(11,7,9,12)     =         0.007593	       0.435031
	 D(11,7,9,21)     =         3.141138	     179.973949
	 D(11,10,4,16)    =        -0.055145	      -3.159583
	 D(11,10,5,17)    =        -0.006653	      -0.381166
	 D(12,8,6,18)     =        -3.116769	    -178.577687
	 D(12,9,7,19)     =        -3.109606	    -178.167314
	 D(13,1,2,14)     =         0.006529	       0.374081
	 D(13,1,3,15)     =         0.011793	       0.675689
	 D(14,2,4,16)     =         0.020583	       1.179311
	 D(15,3,5,17)     =         0.022267	       1.275820
	 D(18,6,8,20)     =         0.022724	       1.301996
	 D(19,7,9,21)     =         0.023939	       1.371604

	Current energy   :      -478.5761444884

	Energy change for the previous step:
		Projected    :        -0.0000003645
		Actual       :        -0.0000016735

	Performing BFGS update.
	Previous computed or guess Hessian on step 1.
	Steps to be used in Hessian update: 6 5
	Adding user-defined constraint: Fragment 1; Coordinate 71:
		Value =    -0.266352; Fixed value    =    -0.261800
		Force =     0.002959; Force constant =     0.650000
	Removing off-diagonal coupling between coordinate 71 and others.
	Taking RFO optimization step.
	Going to follow RFO solution 1.
	Rejecting RFO root 1 because normalization gives large value.
	Rejecting RFO root 2 because normalization gives large value.
	Rejecting RFO root 3 because normalization gives large value.
	Rejecting RFO root 4 because normalization gives large value.
	Using RFO vector 5.
	Norm of target step-size    0.00119
	Projected energy change by RFO approximation:         0.0000000435

	Back-transformation to cartesian coordinates...
	Successfully converged to displaced geometry.

	--- Internal Coordinate Step in ANG or DEG, aJ/ANG or AJ/DEG ---
	 ---------------------------------------------------------------------------
	   Coordinate                Previous        Force       Change         New 
	   ----------                --------       ------       ------       ------
	    1 R(1,2)          =      1.387870     0.000034    -0.000001     1.387870
	    2 R(1,3)          =      1.387844     0.000069     0.000004     1.387848
	    3 R(1,13)         =      1.079142     0.000070     0.000013     1.079155
	    4 R(2,4)          =      1.385974    -0.000010     0.000002     1.385976
	    5 R(2,14)         =      1.079217     0.000031     0.000007     1.079224
	    6 R(3,5)          =      1.385946    -0.000022    -0.000000     1.385946
	    7 R(3,15)         =      1.079211     0.000042     0.000007     1.079217
	    8 R(4,10)         =      1.395989    -0.000027     0.000006     1.395995
	    9 R(4,16)         =      1.078426     0.000129     0.000013     1.078439
	   10 R(5,10)         =      1.396130    -0.000004     0.000007     1.396136
	   11 R(5,17)         =      1.078530     0.000131     0.000014     1.078544
	   12 R(6,8)          =      1.385294    -0.000058    -0.000005     1.385289
	   13 R(6,11)         =      1.393520    -0.000109    -0.000006     1.393515
	   14 R(6,18)         =      1.078287     0.000088     0.000006     1.078293
	   15 R(7,9)          =      1.385255    -0.000072    -0.000007     1.385248
	   16 R(7,11)         =      1.393664    -0.000113    -0.000008     1.393656
	   17 R(7,19)         =      1.078357     0.000081     0.000006     1.078362
	   18 R(8,12)         =      1.334706     0.000064     0.000011     1.334717
	   19 R(8,20)         =      1.081196     0.000024     0.000004     1.081200
	   20 R(9,12)         =      1.334703     0.000087     0.000013     1.334716
	   21 R(9,21)         =      1.081206     0.000024     0.000004     1.081210
	   22 R(10,11)        =      1.467201     0.000023     0.000006     1.467207
	   23 B(1,2,4)        =    120.246671    -0.000000    -0.000324   120.246347
	   24 B(1,2,14)       =    120.095595    -0.000000    -0.001449   120.094146
	   25 B(1,3,5)        =    120.221364     0.000000    -0.000235   120.221129
	   26 B(1,3,15)       =    120.101556    -0.000000    -0.001608   120.099947
	   27 B(2,1,3)        =    119.369638     0.000000     0.001332   119.370970
	   28 B(2,1,13)       =    120.312397    -0.000000    -0.000871   120.311526
	   29 B(2,4,10)       =    121.107859    -0.000001    -0.001421   121.106437
	   30 B(2,4,16)       =    118.904439    -0.000000     0.000654   118.905093
	   31 B(3,1,13)       =    120.317566    -0.000000    -0.000512   120.317054
	   32 B(3,5,10)       =    121.131566    -0.000001    -0.001618   121.129948
	   33 B(3,5,17)       =    118.921633    -0.000000     0.000276   118.921909
	   34 B(4,2,14)       =    119.656450     0.000000     0.001725   119.658175
	   35 B(4,10,5)       =    117.915693     0.000001     0.002280   117.917973
	   36 B(4,10,11)      =    121.140805    -0.000002    -0.002456   121.138349
	   37 B(5,3,15)       =    119.673768     0.000000     0.001841   119.675608
	   38 B(5,10,11)      =    120.908173     0.000001     0.000224   120.908397
	   39 B(6,8,12)       =    123.874890    -0.000000     0.000243   123.875132
	   40 B(6,8,20)       =    119.862959     0.000001     0.002973   119.865932
	   41 B(6,11,7)       =    115.929972     0.000002     0.004454   115.934426
	   42 B(6,11,10)      =    122.131614    -0.000002    -0.003872   122.127742
	   43 B(7,9,12)       =    123.850713    -0.000000     0.000537   123.851250
	   44 B(7,9,21)       =    119.875996     0.000001     0.002808   119.878804
	   45 B(7,11,10)      =    121.902063     0.000000    -0.000630   121.901433
	   46 B(8,6,11)       =    120.035938    -0.000001    -0.002652   120.033286
	   47 B(8,6,18)       =    118.820017     0.000000     0.002632   118.822649
	   48 B(8,12,9)       =    116.244276     0.000000     0.000207   116.244483
	   49 B(9,7,11)       =    120.057417    -0.000001    -0.002839   120.054578
	   50 B(9,7,19)       =    118.845118     0.000000     0.002201   118.847319
	   51 B(10,4,16)      =    119.960008     0.000001     0.001306   119.961314
	   52 B(10,5,17)      =    119.928530     0.000001     0.001373   119.929903
	   53 B(11,6,18)      =    121.117545     0.000000     0.000098   121.117643
	   54 B(11,7,19)      =    121.082374     0.000001     0.000944   121.083318
	   55 B(12,8,20)      =    116.262050    -0.000000    -0.003257   116.258792
	   56 B(12,9,21)      =    116.271801    -0.000000    -0.003441   116.268360
	   57 D(1,2,4,10)     =     -0.324003     0.000000     0.021391    -0.302612
	   58 D(1,2,4,16)     =   -178.408794     0.000000     0.002656  -178.406137
	   59 D(1,3,5,10)     =      0.380961    -0.000000     0.000125     0.381087
	   60 D(1,3,5,17)     =   -178.062841    -0.000000    -0.001194  -178.064035
	   61 D(2,1,3,5)      =      0.240704    -0.000000     0.009914     0.250618
	   62 D(2,1,3,15)     =   -179.095113    -0.000000     0.010199  -179.084914
	   63 D(2,4,10,5)     =      0.918650    -0.000000    -0.011056     0.907594
	   64 D(2,4,10,11)    =    178.775646     0.000001    -0.009569   178.766078
	   65 D(3,1,2,4)      =     -0.268818     0.000000    -0.020533    -0.289351
	   66 D(3,1,2,14)     =   -179.855105     0.000000    -0.012854  -179.867959
	   67 D(3,5,10,4)     =     -0.947236     0.000000     0.000330    -0.946907
	   68 D(3,5,10,11)    =   -178.809461    -0.000001    -0.001094  -178.810556
	   69 D(4,2,1,13)     =    179.960369    -0.000000    -0.006371   179.953998
	   70 D(4,10,5,17)    =    177.481059     0.000000     0.001644   177.482703
	   71 D(4,10,11,6)    =    -15.260846    -0.000002    -0.006224   -15.267070
	   72 D(4,10,11,7)    =    162.456434    -0.000001    -0.007622   162.448813
	   73 D(5,3,1,13)     =   -179.988495    -0.000000    -0.004249  -179.992744
	   74 D(5,10,4,16)    =    178.983421    -0.000000     0.007861   178.991282
	   75 D(5,10,11,6)    =    162.532063    -0.000001    -0.004650   162.527413
	   76 D(5,10,11,7)    =    -19.750657    -0.000000    -0.006048   -19.756705
	   77 D(6,8,12,9)     =     -0.103140     0.000000    -0.008141    -0.111281
	   78 D(6,11,7,9)     =     -0.916643     0.000000    -0.004959    -0.921602
	   79 D(6,11,7,19)    =    177.653870     0.000000     0.009646   177.663516
	   80 D(7,9,12,8)     =      0.100111    -0.000000     0.003320     0.103431
	   81 D(7,11,6,8)     =      0.913669    -0.000000     0.000524     0.914193
	   82 D(7,11,6,18)    =    179.019043    -0.000000     0.003367   179.022410
	   83 D(8,6,11,10)    =    178.758879     0.000001    -0.000892   178.757987
	   84 D(8,12,9,21)    =   -179.454026    -0.000000     0.017375  -179.436652
	   85 D(9,7,11,10)    =   -178.767248    -0.000001    -0.003470  -178.770717
	   86 D(9,12,8,20)    =   -179.986789     0.000000     0.013752  -179.973037
	   87 D(10,4,2,14)    =    179.264102     0.000000     0.013732   179.277834
	   88 D(10,5,3,15)    =    179.719622    -0.000000    -0.000181   179.719442
	   89 D(10,11,6,18)   =     -3.135747     0.000001     0.001951    -3.133795
	   90 D(10,11,7,19)   =     -0.196734    -0.000001     0.011135    -0.185599
	   91 D(11,6,8,12)    =     -0.428985     0.000000     0.006402    -0.422582
	   92 D(11,6,8,20)    =    179.450698     0.000000    -0.016245   179.434453
	   93 D(11,7,9,12)    =      0.435031    -0.000000     0.003195     0.438226
	   94 D(11,7,9,21)    =    179.973949    -0.000000    -0.011367   179.962582
	   95 D(11,10,4,16)   =     -3.159583     0.000001     0.009349    -3.150234
	   96 D(11,10,5,17)   =     -0.381166    -0.000001     0.000221    -0.380945
	   97 D(12,8,6,18)    =   -178.577687     0.000000     0.003669  -178.574018
	   98 D(12,9,7,19)    =   -178.167314    -0.000000    -0.011069  -178.178383
	   99 D(13,1,2,14)    =      0.374081     0.000000     0.001308     0.375389
	  100 D(13,1,3,15)    =      0.675689    -0.000000    -0.003965     0.671724
	  101 D(14,2,4,16)    =      1.179311     0.000000    -0.005002     1.174309
	  102 D(15,3,5,17)    =      1.275820    -0.000000    -0.001500     1.274320
	  103 D(18,6,8,20)    =      1.301996     0.000000    -0.018979     1.283017
	  104 D(19,7,9,21)    =      1.371604    -0.000000    -0.025630     1.345973
	 ---------------------------------------------------------------------------
	Successfully symmetrized geometry.
	 Forces used to impose fixed constraints are not included.
	  Forces zeroed: 71 

  ==> Convergence Check <==

  Measures of convergence in internal coordinates in au.
  Criteria marked as inactive (o), active & met (*), and active & unmet ( ).
  ---------------------------------------------------------------------------------------------
   Step     Total Energy     Delta E     MAX Force     RMS Force      MAX Disp      RMS Disp   
  ---------------------------------------------------------------------------------------------
    Convergence Criteria    1.00e-06 *    3.00e-04 *             o    1.20e-03 *             o
  ---------------------------------------------------------------------------------------------
      7    -478.57614449   -1.67e-06      8.32e-05 *    1.78e-05 o    4.47e-04 *    1.17e-04 o  ~
  ---------------------------------------------------------------------------------------------


  **** Optimization is complete! (in 7 steps) ****

  ==> Optimization Summary <==

  Measures of convergence in internal coordinates in au.
  --------------------------------------------------------------------------------------------------------------- ~
   Step         Total Energy             Delta E       MAX Force       RMS Force        MAX Disp        RMS Disp  ~
  --------------------------------------------------------------------------------------------------------------- ~
      1    -478.572112524721   -478.572112524721      0.02652797      0.00540932      0.04304979      0.00979654  ~
      2    -478.575504229574     -0.003391704853      0.00666359      0.00155913      0.03231264      0.00979176  ~
      3    -478.576087973301     -0.000583743727      0.00098984      0.00026043      0.03418413      0.00656278  ~
      4    -478.576143133370     -0.000055160069      0.00037693      0.00007293      0.00742233      0.00194408  ~
      5    -478.576149692893     -0.000006559523      0.00008797      0.00003399      0.00373952      0.00102608  ~
      6    -478.576142814911      0.000006877982      0.00024187      0.00004300      0.00169157      0.00046658  ~
      7    -478.576144488375     -0.000001673464      0.00014025      0.00002247      0.00044734      0.00011679  ~
  --------------------------------------------------------------------------------------------------------------- ~

	Writing optimization data to binary file.
	Final energy is   -478.5761444883752
	Final (previous) structure:
	Cartesian Geometry (in Angstrom)
	    C     0.1083665547   0.0532487741  -3.5626392269
	    C    -0.9722201398   0.6015852126  -2.8859979619
	    C     1.1481148292  -0.5135779544  -2.8389381983
	    C    -1.0137498860   0.5775443186  -1.5008549487
	    C     1.1033944402  -0.5352777855  -1.4538842232
	    C    -0.8754129602   0.8179556987   1.4333126838
	    C     0.7883753697  -0.8594576341   1.4605626683
	    C    -0.8859077927   0.7620151648   2.8174374446
	    C     0.7103464763  -0.8472281380   2.8435643183
	    C     0.0178419773   0.0003317131  -0.7582722649
	    C    -0.0125791503  -0.0019380155   0.7086117134
	    N    -0.1096833052  -0.0528975529   3.5349567113
	    H     0.1414956144   0.0708191090  -4.6411292554
	    H    -1.7882334571   1.0432921264  -3.4371128119
	    H     2.0009232825  -0.9302507834  -3.3525498645
	    H    -1.8756845911   0.9864912255  -0.9980299340
	    H     1.9370859036  -0.9525160848  -0.9115761944
	    H    -1.5212113230   1.5243917979   0.9367291937
	    H     1.4589879955  -1.5562438845   0.9834660577
	    H    -1.5501421401   1.4057615393   3.3772304539
	    H     1.3327813093  -1.5140409874   3.4240312324
	Saving final (previous) structure.
			--------------------------
			 OPTKING Finished Execution 
			--------------------------

    Final optimized geometry and variables:
    Molecular point group: c1
    Full point group: C1

    Geometry (in Angstrom), charge = 0, multiplicity = 1:

    C            0.108366554689     0.053248774122    -3.562639226930
    C           -0.972220139759     0.601585212640    -2.885997961911
    C            1.148114829176    -0.513577954401    -2.838938198278
    C           -1.013749886031     0.577544318616    -1.500854948665
    C            1.103394440247    -0.535277785521    -1.453884223246
    C           -0.875412960214     0.817955698656     1.433312683767
    C            0.788375369719    -0.859457634131     1.460562668342
    C           -0.885907792660     0.762015164830     2.817437444598
    C            0.710346476293    -0.847228137987     2.843564318334
    C            0.017841977283     0.000331713127    -0.758272264928
    C           -0.012579150275    -0.001938015510     0.708611713356
    N           -0.109683305243    -0.052897552914     3.534956711270
    H            0.141495614436     0.070819109032    -4.641129255391
    H           -1.788233457118     1.043292126447    -3.437112811873
    H            2.000923282542    -0.930250783419    -3.352549864544
    H           -1.875684591091     0.986491225502    -0.998029934039
    H            1.937085903626    -0.952516084773    -0.911576194412
    H           -1.521211322955     1.524391797863     0.936729193734
    H            1.458987995454    -1.556243884459     0.983466057740
    H           -1.550142140059     1.405761539336     3.377230453920
    H            1.332781309300    -1.514040987450     3.424031232396

	Cleaning optimization helper files.

*** Psi4 exiting successfully. Buy a developer a beer!
