
    -----------------------------------------------------------------------
          Psi4: An Open-Source Ab Initio Electronic Structure Package
                               Psi4 1.1 release

                         Git: Rev {HEAD} add49b9 


    R. M. Parrish, L. A. Burns, D. G. A. Smith, A. C. Simmonett,
    A. E. DePrince III, E. G. Hohenstein, U. Bozkaya, A. Yu. Sokolov,
    R. Di Remigio, R. M. Richard, J. F. Gonthier, A. M. James,
    H. R. McAlexander, A. Kumar, M. Saitow, X. Wang, B. P. Pritchard,
    P. Verma, H. F. Schaefer III, K. Patkowski, R. A. King, E. F. Valeev,
    F. A. Evangelista, J. M. Turney, T. D. Crawford, and C. D. Sherrill,
    J. Chem. Theory Comput. in press (2017).
    (doi: 10.1021/acs.jctc.7b00174)

    -----------------------------------------------------------------------


    Psi4 started on: Saturday, 11 November 2017 09:40AM

    Process ID:  13665
    PSIDATADIR: /cbio/jclab/home/chayas/anaconda/envs/py35/share/psi4
    Memory:     500.0 MiB
    Threads:    8
    
  ==> Input File <==

--------------------------------------------------------------------------

molecule phepyr {
  symmetry C1
  0 1 
  C      1.885   -1.036   -0.112
  C      0.807   -0.463   0.561
  C      2.921   -1.631   0.608
  C      0.764   -0.484   1.955
  C      2.878   -1.652   2.002
  C      2.354   -2.141   4.823
  C      1.113   -0.081   4.815
  C      2.285   -2.115   6.207
  C      1.099   -0.147   6.199
  C      1.800   -1.079   2.676
  C      1.755   -1.100   4.122
  N      1.670   -1.141   6.915
  H      1.917   -1.021   -1.198
  H      -0.001   -0.002   0.000
  H      3.760   -2.079   0.084
  H      -0.084   -0.033   2.466
  H      3.693   -2.120   2.550
  H      2.865   -2.954   4.317
  H      0.634   0.747   4.302
  H      2.738   -2.902   6.800
  H      0.611   0.623   6.787
  units Angstrom
}

dih_string = "4 10 11 6 150"
set optking fixed_dihedral = $dih_string

optimize('MP2/aug-cc-PVTZ')
--------------------------------------------------------------------------
gradient() will perform analytic gradient computation.

*** tstart() called on gpu-1-8.local
*** at Sat Nov 11 09:40:32 2017

    SCF Algorithm Type (re)set to DF.

*** tstart() called on gpu-1-8.local
*** at Sat Nov 11 09:40:32 2017

   => Loading Basis Set <=

    Name: AUG-CC-PVTZ
    Role: ORBITAL
    Keyword: BASIS
    atoms 1-11  entry C          line   221 file /cbio/jclab/home/chayas/anaconda/envs/py35/share/psi4/basis/aug-cc-pvtz.gbs 
    atoms 12    entry N          line   267 file /cbio/jclab/home/chayas/anaconda/envs/py35/share/psi4/basis/aug-cc-pvtz.gbs 
    atoms 13-21 entry H          line    34 file /cbio/jclab/home/chayas/anaconda/envs/py35/share/psi4/basis/aug-cc-pvtz.gbs 


         ---------------------------------------------------------
                                   SCF
            by Justin Turney, Rob Parrish, and Andy Simmonett
                              RHF Reference
                        8 Threads,    500 MiB Core
         ---------------------------------------------------------

  ==> Geometry <==

    Molecular point group: c1
    Full point group: C1

    Geometry (in Angstrom), charge = 0, multiplicity = 1:

       Center              X                  Y                   Z               Mass       
    ------------   -----------------  -----------------  -----------------  -----------------
           C          0.107930571077     0.053436504926    -3.525965346062    12.000000000000
           C         -0.970069428923     0.626436504926    -2.852965346062    12.000000000000
           C          1.143930571077    -0.541563495074    -2.805965346062    12.000000000000
           C         -1.013069428923     0.605436504926    -1.458965346062    12.000000000000
           C          1.100930571077    -0.562563495074    -1.411965346062    12.000000000000
           C          0.576930571077    -1.051563495074     1.409034653938    12.000000000000
           C         -0.664069428923     1.008436504926     1.401034653938    12.000000000000
           C          0.507930571077    -1.025563495074     2.793034653938    12.000000000000
           C         -0.678069428923     0.942436504926     2.785034653938    12.000000000000
           C          0.022930571077     0.010436504926    -0.737965346062    12.000000000000
           C         -0.022069428923    -0.010563495074     0.708034653938    12.000000000000
           N         -0.107069428923    -0.051563495074     3.501034653938    14.003074004780
           H          0.139930571077     0.068436504926    -4.611965346062     1.007825032070
           H         -1.778069428923     1.087436504926    -3.413965346062     1.007825032070
           H          1.982930571077    -0.989563495074    -3.329965346062     1.007825032070
           H         -1.861069428923     1.056436504926    -0.947965346062     1.007825032070
           H          1.915930571077    -1.030563495074    -0.863965346062     1.007825032070
           H          1.087930571077    -1.864563495074     0.903034653938     1.007825032070
           H         -1.143069428923     1.836436504926     0.888034653938     1.007825032070
           H          0.960930571077    -1.812563495074     3.386034653938     1.007825032070
           H         -1.166069428923     1.712436504926     3.373034653938     1.007825032070

  Running in c1 symmetry.

  Rotational constants: A =      0.09741  B =      0.01889  C =      0.01618 [cm^-1]
  Rotational constants: A =   2920.42251  B =    566.37394  C =    484.93285 [MHz]
  Nuclear repulsion =  606.983118756599993

  Charge       = 0
  Multiplicity = 1
  Electrons    = 82
  Nalpha       = 41
  Nbeta        = 41

  ==> Algorithm <==

  SCF Algorithm Type is DF.
  DIIS enabled.
  MOM disabled.
  Fractional occupation disabled.
  Guess Type is SAD.
  Energy threshold   = 1.00e-10
  Density threshold  = 1.00e-10
  Integral threshold = 0.00e+00

  ==> Primary Basis <==

  Basis Set: AUG-CC-PVTZ
    Blend: AUG-CC-PVTZ
    Number of shells: 249
    Number of basis function: 759
    Number of Cartesian functions: 885
    Spherical Harmonics?: true
    Max angular momentum: 3

   => Loading Basis Set <=

    Name: (AUG-CC-PVTZ AUX)
    Role: JKFIT
    Keyword: DF_BASIS_SCF
    atoms 1-11  entry C          line   161 file /cbio/jclab/home/chayas/anaconda/envs/py35/share/psi4/basis/aug-cc-pvtz-jkfit.gbs 
    atoms 12    entry N          line   223 file /cbio/jclab/home/chayas/anaconda/envs/py35/share/psi4/basis/aug-cc-pvtz-jkfit.gbs 
    atoms 13-21 entry H          line    69 file /cbio/jclab/home/chayas/anaconda/envs/py35/share/psi4/basis/aug-cc-pvtz-jkfit.gbs 

  ==> Pre-Iterations <==

   -------------------------------------------------------
    Irrep   Nso     Nmo     Nalpha   Nbeta   Ndocc  Nsocc
   -------------------------------------------------------
     A        759     759       0       0       0       0
   -------------------------------------------------------
    Total     759     759      41      41      41       0
   -------------------------------------------------------

  ==> Integral Setup <==

  ==> DFJK: Density-Fitted J/K Matrices <==

    J tasked:                  Yes
    K tasked:                  Yes
    wK tasked:                  No
    OpenMP threads:              8
    Integrals threads:           8
    Memory (MB):               375
    Algorithm:                Disk
    Integral Cache:           NONE
    Schwarz Cutoff:          1E-12
    Fitting Condition:       1E-12

   => Auxiliary Basis Set <=

  Basis Set: (AUG-CC-PVTZ AUX)
    Blend: AUG-CC-PVTZ-JKFIT
    Number of shells: 486
    Number of basis function: 1662
    Number of Cartesian functions: 2067
    Spherical Harmonics?: true
    Max angular momentum: 4

  Minimum eigenvalue in the overlap matrix is 4.2986231443E-07.
  Using Symmetric Orthogonalization.

  SCF Guess: Superposition of Atomic Densities via on-the-fly atomic UHF.

  ==> Iterations <==

                           Total Energy        Delta E     RMS |[F,P]|

   @DF-RHF iter   0:  -482.25329773250127   -4.82253e+02   2.44913e-02 
   @DF-RHF iter   1:  -476.07941304510899    6.17388e+00   1.50332e-03 
   @DF-RHF iter   2:  -476.34136649922101   -2.61953e-01   7.68864e-04 DIIS
   @DF-RHF iter   3:  -476.38022894173184   -3.88624e-02   3.55917e-04 DIIS
   @DF-RHF iter   4:  -476.39390259997049   -1.36737e-02   1.13996e-04 DIIS
   @DF-RHF iter   5:  -476.39519712551800   -1.29453e-03   3.47165e-05 DIIS
   @DF-RHF iter   6:  -476.39546585719580   -2.68732e-04   1.67612e-05 DIIS
   @DF-RHF iter   7:  -476.39549778962555   -3.19324e-05   5.09456e-06 DIIS
   @DF-RHF iter   8:  -476.39550005447006   -2.26484e-06   1.12728e-06 DIIS
   @DF-RHF iter   9:  -476.39550058200024   -5.27530e-07   5.74370e-07 DIIS
   @DF-RHF iter  10:  -476.39550074166948   -1.59669e-07   3.28914e-07 DIIS
   @DF-RHF iter  11:  -476.39550079443950   -5.27700e-08   1.13455e-07 DIIS
   @DF-RHF iter  12:  -476.39550080204350   -7.60400e-09   3.73955e-08 DIIS
   @DF-RHF iter  13:  -476.39550080255043   -5.06930e-10   2.23287e-08 DIIS
   @DF-RHF iter  14:  -476.39550080262137   -7.09406e-11   8.99866e-09 DIIS
   @DF-RHF iter  15:  -476.39550080263564   -1.42677e-11   3.59287e-09 DIIS
   @DF-RHF iter  16:  -476.39550080266213   -2.64890e-11   1.75417e-09 DIIS
   @DF-RHF iter  17:  -476.39550080265491    7.21911e-12   5.93348e-10 DIIS
   @DF-RHF iter  18:  -476.39550080267679   -2.18847e-11   2.50872e-10 DIIS
   @DF-RHF iter  19:  -476.39550080268043   -3.63798e-12   1.16751e-10 DIIS
   @DF-RHF iter  20:  -476.39550080267043    1.00044e-11   4.28619e-11 DIIS

  ==> Post-Iterations <==

    Orbital Energies (a.u.)
    -----------------------

    Doubly Occupied:                                                      

       1A    -15.563835     2A    -11.275058     3A    -11.275019  
       4A    -11.263960     5A    -11.251651     6A    -11.247178  
       7A    -11.247031     8A    -11.246042     9A    -11.245786  
      10A    -11.244807    11A    -11.238114    12A    -11.237994  
      13A     -1.250032    14A     -1.175048    15A     -1.107571  
      16A     -1.038397    17A     -1.024022    18A     -1.015951  
      19A     -0.881922    20A     -0.868812    21A     -0.825972  
      22A     -0.805988    23A     -0.734271    24A     -0.681352  
      25A     -0.672013    26A     -0.664582    27A     -0.629314  
      28A     -0.623403    29A     -0.608710    30A     -0.590114  
      31A     -0.577939    32A     -0.546891    33A     -0.528105  
      34A     -0.512108    35A     -0.507482    36A     -0.497284  
      37A     -0.419049    38A     -0.405024    39A     -0.351264  
      40A     -0.346937    41A     -0.320356  

    Virtual:                                                              

      42A      0.025018    43A      0.028854    44A      0.032468  
      45A      0.039444    46A      0.043386    47A      0.045010  
      48A      0.055093    49A      0.057055    50A      0.061175  
      51A      0.068649    52A      0.081452    53A      0.086800  
      54A      0.090022    55A      0.096110    56A      0.096580  
      57A      0.102585    58A      0.107750    59A      0.107812  
      60A      0.114580    61A      0.115220    62A      0.118606  
      63A      0.119663    64A      0.120876    65A      0.128906  
      66A      0.130196    67A      0.133654    68A      0.135759  
      69A      0.139698    70A      0.142375    71A      0.145371  
      72A      0.149983    73A      0.150276    74A      0.151906  
      75A      0.160839    76A      0.164790    77A      0.171447  
      78A      0.176375    79A      0.177713    80A      0.182589  
      81A      0.186294    82A      0.189482    83A      0.201095  
      84A      0.205746    85A      0.220430    86A      0.223641  
      87A      0.226334    88A      0.227717    89A      0.230928  
      90A      0.240436    91A      0.240784    92A      0.246249  
      93A      0.251524    94A      0.255474    95A      0.259131  
      96A      0.264565    97A      0.269782    98A      0.272282  
      99A      0.275952   100A      0.281244   101A      0.288421  
     102A      0.288771   103A      0.294636   104A      0.296550  
     105A      0.299806   106A      0.301078   107A      0.305532  
     108A      0.312258   109A      0.317469   110A      0.321340  
     111A      0.322908   112A      0.325042   113A      0.336568  
     114A      0.340163   115A      0.341545   116A      0.345518  
     117A      0.352991   118A      0.360033   119A      0.363079  
     120A      0.367617   121A      0.370320   122A      0.377292  
     123A      0.383695   124A      0.388229   125A      0.403910  
     126A      0.404512   127A      0.409189   128A      0.413780  
     129A      0.417046   130A      0.422883   131A      0.427796  
     132A      0.435255   133A      0.437763   134A      0.440225  
     135A      0.443153   136A      0.445308   137A      0.447474  
     138A      0.452066   139A      0.460282   140A      0.462321  
     141A      0.466242   142A      0.473160   143A      0.476939  
     144A      0.479954   145A      0.480746   146A      0.483088  
     147A      0.486997   148A      0.490049   149A      0.498808  
     150A      0.499823   151A      0.502306   152A      0.508617  
     153A      0.511462   154A      0.512554   155A      0.515112  
     156A      0.521477   157A      0.525912   158A      0.526214  
     159A      0.528001   160A      0.530146   161A      0.533460  
     162A      0.539524   163A      0.540844   164A      0.545116  
     165A      0.549268   166A      0.551361   167A      0.552532  
     168A      0.559114   169A      0.570280   170A      0.575653  
     171A      0.576543   172A      0.586285   173A      0.589771  
     174A      0.595054   175A      0.606078   176A      0.608938  
     177A      0.618674   178A      0.624644   179A      0.626657  
     180A      0.637082   181A      0.643442   182A      0.646950  
     183A      0.658891   184A      0.674929   185A      0.675527  
     186A      0.681691   187A      0.689021   188A      0.691849  
     189A      0.699250   190A      0.699803   191A      0.706984  
     192A      0.707278   193A      0.708330   194A      0.722151  
     195A      0.730866   196A      0.736641   197A      0.738922  
     198A      0.743274   199A      0.748473   200A      0.753842  
     201A      0.754543   202A      0.763225   203A      0.766311  
     204A      0.773615   205A      0.783629   206A      0.798951  
     207A      0.802328   208A      0.806706   209A      0.818214  
     210A      0.826152   211A      0.830807   212A      0.834538  
     213A      0.841616   214A      0.843919   215A      0.852508  
     216A      0.860905   217A      0.865685   218A      0.866043  
     219A      0.872981   220A      0.873345   221A      0.880013  
     222A      0.885350   223A      0.885851   224A      0.893061  
     225A      0.893649   226A      0.895478   227A      0.908387  
     228A      0.911643   229A      0.916140   230A      0.919126  
     231A      0.919246   232A      0.920881   233A      0.934133  
     234A      0.946159   235A      0.947399   236A      0.954600  
     237A      0.957883   238A      0.963005   239A      0.963364  
     240A      0.968245   241A      0.975661   242A      0.983052  
     243A      0.987003   244A      0.991078   245A      0.992970  
     246A      1.002225   247A      1.009141   248A      1.010326  
     249A      1.012764   250A      1.013951   251A      1.019474  
     252A      1.031768   253A      1.032942   254A      1.039657  
     255A      1.042204   256A      1.047360   257A      1.048819  
     258A      1.057745   259A      1.060826   260A      1.072095  
     261A      1.076316   262A      1.080600   263A      1.082120  
     264A      1.082811   265A      1.088817   266A      1.092218  
     267A      1.092274   268A      1.099072   269A      1.106007  
     270A      1.109730   271A      1.113931   272A      1.115224  
     273A      1.123554   274A      1.130006   275A      1.131837  
     276A      1.139183   277A      1.147275   278A      1.154525  
     279A      1.166337   280A      1.167743   281A      1.172650  
     282A      1.182263   283A      1.182569   284A      1.186740  
     285A      1.189502   286A      1.193092   287A      1.198814  
     288A      1.205691   289A      1.210942   290A      1.211771  
     291A      1.217146   292A      1.221810   293A      1.221901  
     294A      1.229595   295A      1.239409   296A      1.241241  
     297A      1.247082   298A      1.253258   299A      1.259474  
     300A      1.263151   301A      1.273785   302A      1.286240  
     303A      1.294600   304A      1.295006   305A      1.301265  
     306A      1.306645   307A      1.314130   308A      1.315078  
     309A      1.324901   310A      1.339474   311A      1.346436  
     312A      1.352806   313A      1.360918   314A      1.367962  
     315A      1.371283   316A      1.375730   317A      1.383128  
     318A      1.395551   319A      1.415231   320A      1.425208  
     321A      1.429719   322A      1.433804   323A      1.441666  
     324A      1.443222   325A      1.457884   326A      1.462042  
     327A      1.476224   328A      1.476775   329A      1.491207  
     330A      1.504427   331A      1.513738   332A      1.520063  
     333A      1.521025   334A      1.524047   335A      1.531736  
     336A      1.537212   337A      1.553698   338A      1.565699  
     339A      1.566767   340A      1.582147   341A      1.592014  
     342A      1.597019   343A      1.606958   344A      1.607724  
     345A      1.619026   346A      1.634043   347A      1.649577  
     348A      1.656621   349A      1.656953   350A      1.662874  
     351A      1.675787   352A      1.693102   353A      1.697425  
     354A      1.705823   355A      1.709727   356A      1.714809  
     357A      1.722491   358A      1.726368   359A      1.731792  
     360A      1.736829   361A      1.739910   362A      1.746162  
     363A      1.769608   364A      1.776316   365A      1.776463  
     366A      1.787911   367A      1.799019   368A      1.806169  
     369A      1.813385   370A      1.820480   371A      1.822973  
     372A      1.836886   373A      1.847436   374A      1.853605  
     375A      1.856576   376A      1.857966   377A      1.876843  
     378A      1.888233   379A      1.899636   380A      1.907163  
     381A      1.911406   382A      1.928533   383A      1.934309  
     384A      1.941611   385A      1.950539   386A      1.970836  
     387A      1.972979   388A      1.975776   389A      1.977805  
     390A      1.994820   391A      1.996965   392A      2.010553  
     393A      2.017448   394A      2.022020   395A      2.026408  
     396A      2.036205   397A      2.039880   398A      2.041637  
     399A      2.041924   400A      2.052084   401A      2.054033  
     402A      2.067707   403A      2.073553   404A      2.082904  
     405A      2.092753   406A      2.103570   407A      2.103882  
     408A      2.116190   409A      2.121414   410A      2.128023  
     411A      2.130324   412A      2.131193   413A      2.144407  
     414A      2.149293   415A      2.150239   416A      2.183796  
     417A      2.185302   418A      2.189729   419A      2.193594  
     420A      2.204332   421A      2.221889   422A      2.232668  
     423A      2.243550   424A      2.246871   425A      2.251501  
     426A      2.257052   427A      2.294207   428A      2.304659  
     429A      2.310427   430A      2.315203   431A      2.319857  
     432A      2.350059   433A      2.350602   434A      2.363705  
     435A      2.368958   436A      2.371710   437A      2.380898  
     438A      2.389386   439A      2.396256   440A      2.397622  
     441A      2.410430   442A      2.422915   443A      2.428195  
     444A      2.442770   445A      2.456390   446A      2.475397  
     447A      2.495674   448A      2.500270   449A      2.507256  
     450A      2.516964   451A      2.534905   452A      2.551723  
     453A      2.562793   454A      2.572444   455A      2.576112  
     456A      2.579458   457A      2.606429   458A      2.608151  
     459A      2.626797   460A      2.659198   461A      2.665698  
     462A      2.669270   463A      2.721000   464A      2.729559  
     465A      2.749659   466A      2.769905   467A      2.809114  
     468A      2.809972   469A      2.816245   470A      2.828857  
     471A      2.847835   472A      2.867768   473A      2.886841  
     474A      2.893534   475A      2.919352   476A      2.990214  
     477A      2.992583   478A      3.026089   479A      3.057875  
     480A      3.060244   481A      3.097528   482A      3.149052  
     483A      3.151907   484A      3.189675   485A      3.190367  
     486A      3.202986   487A      3.213925   488A      3.236968  
     489A      3.238593   490A      3.251387   491A      3.277527  
     492A      3.298016   493A      3.305570   494A      3.338896  
     495A      3.339169   496A      3.346831   497A      3.358756  
     498A      3.362125   499A      3.373775   500A      3.391197  
     501A      3.392751   502A      3.409473   503A      3.415541  
     504A      3.427001   505A      3.429810   506A      3.441571  
     507A      3.454979   508A      3.456045   509A      3.468225  
     510A      3.480824   511A      3.490464   512A      3.510078  
     513A      3.517131   514A      3.518707   515A      3.528725  
     516A      3.529854   517A      3.539146   518A      3.552339  
     519A      3.555123   520A      3.571374   521A      3.575155  
     522A      3.585422   523A      3.585852   524A      3.590568  
     525A      3.592836   526A      3.598859   527A      3.618361  
     528A      3.632921   529A      3.652566   530A      3.668639  
     531A      3.675029   532A      3.677380   533A      3.684372  
     534A      3.697438   535A      3.710225   536A      3.725957  
     537A      3.729956   538A      3.730760   539A      3.761602  
     540A      3.767236   541A      3.784667   542A      3.787159  
     543A      3.788340   544A      3.791587   545A      3.817398  
     546A      3.830962   547A      3.839633   548A      3.840476  
     549A      3.846486   550A      3.855005   551A      3.864343  
     552A      3.872788   553A      3.881545   554A      3.885407  
     555A      3.893640   556A      3.895338   557A      3.919847  
     558A      3.928453   559A      3.929184   560A      3.938665  
     561A      3.944146   562A      3.946734   563A      3.948928  
     564A      3.984700   565A      3.989451   566A      3.997626  
     567A      4.012646   568A      4.013722   569A      4.020880  
     570A      4.023101   571A      4.028589   572A      4.034898  
     573A      4.035372   574A      4.050968   575A      4.059769  
     576A      4.060792   577A      4.088644   578A      4.096976  
     579A      4.115555   580A      4.125710   581A      4.131771  
     582A      4.135971   583A      4.153175   584A      4.153547  
     585A      4.170860   586A      4.173751   587A      4.179538  
     588A      4.194616   589A      4.200953   590A      4.206404  
     591A      4.217709   592A      4.232403   593A      4.248442  
     594A      4.249141   595A      4.255360   596A      4.274813  
     597A      4.279635   598A      4.284513   599A      4.305738  
     600A      4.312275   601A      4.324990   602A      4.331800  
     603A      4.337107   604A      4.350568   605A      4.370531  
     606A      4.372100   607A      4.375816   608A      4.382462  
     609A      4.397877   610A      4.402525   611A      4.421857  
     612A      4.429398   613A      4.432383   614A      4.440912  
     615A      4.442364   616A      4.455710   617A      4.466732  
     618A      4.467223   619A      4.490888   620A      4.497864  
     621A      4.498133   622A      4.508613   623A      4.514884  
     624A      4.518481   625A      4.522399   626A      4.538655  
     627A      4.565342   628A      4.590389   629A      4.610352  
     630A      4.632718   631A      4.634286   632A      4.669871  
     633A      4.672218   634A      4.692118   635A      4.718308  
     636A      4.720939   637A      4.725683   638A      4.734451  
     639A      4.745942   640A      4.747316   641A      4.785543  
     642A      4.791272   643A      4.801220   644A      4.806494  
     645A      4.842986   646A      4.853046   647A      4.876410  
     648A      4.880704   649A      4.894770   650A      4.913688  
     651A      4.928606   652A      4.948743   653A      4.958489  
     654A      4.964570   655A      4.979660   656A      4.993798  
     657A      4.995740   658A      5.015416   659A      5.023604  
     660A      5.034771   661A      5.057121   662A      5.063854  
     663A      5.082442   664A      5.099000   665A      5.106546  
     666A      5.118436   667A      5.125407   668A      5.128771  
     669A      5.139085   670A      5.143804   671A      5.157180  
     672A      5.166487   673A      5.172531   674A      5.178716  
     675A      5.180504   676A      5.203589   677A      5.220584  
     678A      5.227181   679A      5.239547   680A      5.242071  
     681A      5.294892   682A      5.313957   683A      5.320217  
     684A      5.332578   685A      5.340416   686A      5.361673  
     687A      5.371520   688A      5.383229   689A      5.400926  
     690A      5.414876   691A      5.435127   692A      5.444336  
     693A      5.468014   694A      5.470256   695A      5.491573  
     696A      5.510916   697A      5.542089   698A      5.555679  
     699A      5.569729   700A      5.590407   701A      5.628240  
     702A      5.661176   703A      5.671992   704A      5.705330  
     705A      5.752453   706A      5.758630   707A      5.779567  
     708A      5.795553   709A      5.797613   710A      5.834795  
     711A      5.857581   712A      5.859500   713A      5.869645  
     714A      5.883361   715A      5.912946   716A      5.977523  
     717A      5.986119   718A      6.084829   719A      6.159680  
     720A      6.163378   721A      6.191302   722A      6.236332  
     723A      6.259145   724A      6.269351   725A      6.284619  
     726A      6.304744   727A      6.386715   728A      6.433376  
     729A      6.463662   730A      6.481259   731A      6.523435  
     732A      6.551038   733A      6.616221   734A      6.644248  
     735A      6.712503   736A      6.717691   737A      6.740155  
     738A      6.778962   739A      6.885931   740A      6.902789  
     741A      6.941376   742A      7.011293   743A      7.023110  
     744A      7.101455   745A      7.179162   746A      7.347678  
     747A      7.453133   748A     15.666590   749A     16.294824  
     750A     16.747458   751A     16.774242   752A     18.456113  
     753A     18.801189   754A     18.994347   755A     19.253331  
     756A     19.927804   757A     20.071539   758A     20.544288  
     759A     21.930514  

    Final Occupation by Irrep:
              A 
    DOCC [    41 ]

  Energy converged.

  @DF-RHF Final Energy:  -476.39550080267043

   => Energetics <=

    Nuclear Repulsion Energy =            606.9831187565999926
    One-Electron Energy =               -1847.6644595402958657
    Two-Electron Energy =                 764.2858399810253331
    DFT Exchange-Correlation Energy =       0.0000000000000000
    Empirical Dispersion Energy =           0.0000000000000000
    PCM Polarization Energy =               0.0000000000000000
    EFP Energy =                            0.0000000000000000
    Total Energy =                       -476.3955008026704263



Properties will be evaluated at   0.000000,   0.000000,   0.000000 Bohr

Properties computed using the SCF density matrix

  Nuclear Dipole Moment: (a.u.)
     X:     0.1310      Y:     0.0601      Z:    -4.3391

  Electronic Dipole Moment: (a.u.)
     X:    -0.0965      Y:    -0.0449      Z:     3.2022

  Dipole Moment: (a.u.)
     X:     0.0345      Y:     0.0152      Z:    -1.1369     Total:     1.1375

  Dipole Moment: (Debye)
     X:     0.0876      Y:     0.0385      Z:    -2.8897     Total:     2.8913


*** tstop() called on gpu-1-8.local at Sat Nov 11 09:46:48 2017
Module time:
	user time   =    1375.74 seconds =      22.93 minutes
	system time =      39.53 seconds =       0.66 minutes
	total time  =        376 seconds =       6.27 minutes
Total time:
	user time   =    1375.74 seconds =      22.93 minutes
	system time =      39.53 seconds =       0.66 minutes
	total time  =        376 seconds =       6.27 minutes

  //>>>>>>>>>>>>>>>>>>>>>>>>>>>>>>>>>>>//
  //               DFMP2               //
  //<<<<<<<<<<<<<<<<<<<<<<<<<<<<<<<<<<<//

   => Loading Basis Set <=

    Name: (AUG-CC-PVTZ AUX)
    Role: RIFIT
    Keyword: DF_BASIS_MP2
    atoms 1-11  entry C          line   147 file /cbio/jclab/home/chayas/anaconda/envs/py35/share/psi4/basis/aug-cc-pvtz-ri.gbs 
    atoms 12    entry N          line   205 file /cbio/jclab/home/chayas/anaconda/envs/py35/share/psi4/basis/aug-cc-pvtz-ri.gbs 
    atoms 13-21 entry H          line    29 file /cbio/jclab/home/chayas/anaconda/envs/py35/share/psi4/basis/aug-cc-pvtz-ri.gbs 

	 --------------------------------------------------------
	                          DF-MP2                         
	      2nd-Order Density-Fitted Moller-Plesset Theory     
	              RMP2 Wavefunction,   8 Threads             
	                                                         
	        Rob Parrish, Justin Turney, Andy Simmonett,      
	           Ed Hohenstein, and C. David Sherrill          
	 --------------------------------------------------------

   => Auxiliary Basis Set <=

  Basis Set: (AUG-CC-PVTZ AUX)
    Blend: AUG-CC-PVTZ-RI
    Number of shells: 462
    Number of basis function: 1686
    Number of Cartesian functions: 2127
    Spherical Harmonics?: true
    Max angular momentum: 4

	 --------------------------------------------------------
	                 NBF =   759, NAUX =  1686
	 --------------------------------------------------------
	   CLASS    FOCC     OCC    AOCC    AVIR     VIR    FVIR
	   PAIRS       0      41      41     718     718       0
	 --------------------------------------------------------


         ------------------------------------------------------------
                                     CPHF                           
                                  Rob Parrish                       
         ------------------------------------------------------------

  ==> Geometry <==

    Molecular point group: c1
    Full point group: C1

    Geometry (in Angstrom), charge = 0, multiplicity = 1:

       Center              X                  Y                   Z               Mass       
    ------------   -----------------  -----------------  -----------------  -----------------
           C          0.107930571077     0.053436504926    -3.525965346062    12.000000000000
           C         -0.970069428923     0.626436504926    -2.852965346062    12.000000000000
           C          1.143930571077    -0.541563495074    -2.805965346062    12.000000000000
           C         -1.013069428923     0.605436504926    -1.458965346062    12.000000000000
           C          1.100930571077    -0.562563495074    -1.411965346062    12.000000000000
           C          0.576930571077    -1.051563495074     1.409034653938    12.000000000000
           C         -0.664069428923     1.008436504926     1.401034653938    12.000000000000
           C          0.507930571077    -1.025563495074     2.793034653938    12.000000000000
           C         -0.678069428923     0.942436504926     2.785034653938    12.000000000000
           C          0.022930571077     0.010436504926    -0.737965346062    12.000000000000
           C         -0.022069428923    -0.010563495074     0.708034653938    12.000000000000
           N         -0.107069428923    -0.051563495074     3.501034653938    14.003074004780
           H          0.139930571077     0.068436504926    -4.611965346062     1.007825032070
           H         -1.778069428923     1.087436504926    -3.413965346062     1.007825032070
           H          1.982930571077    -0.989563495074    -3.329965346062     1.007825032070
           H         -1.861069428923     1.056436504926    -0.947965346062     1.007825032070
           H          1.915930571077    -1.030563495074    -0.863965346062     1.007825032070
           H          1.087930571077    -1.864563495074     0.903034653938     1.007825032070
           H         -1.143069428923     1.836436504926     0.888034653938     1.007825032070
           H          0.960930571077    -1.812563495074     3.386034653938     1.007825032070
           H         -1.166069428923     1.712436504926     3.373034653938     1.007825032070

  Nuclear repulsion =  606.983118756599993
  Reference energy  = -476.395500802670426

  ==> Basis Set <==

  Basis Set: AUG-CC-PVTZ
    Blend: AUG-CC-PVTZ
    Number of shells: 249
    Number of basis function: 759
    Number of Cartesian functions: 885
    Spherical Harmonics?: true
    Max angular momentum: 3

  ==> CGRSolver (by Rob Parrish) <==

   Number of roots    =         1
   Preconditioning    =    JACOBI
   Convergence cutoff =     1E-06
   Maximum iterations =       100

  ==> CPHFRHamiltonian (by Rob Parrish) <== 

  ==> DFJK: Density-Fitted J/K Matrices <==

    J tasked:                  Yes
    K tasked:                  Yes
    wK tasked:                  No
    OpenMP threads:              8
    Integrals threads:           8
    Memory (MB):               375
    Algorithm:                Disk
    Integral Cache:           NONE
    Schwarz Cutoff:          1E-12
    Fitting Condition:       1E-12

   => Auxiliary Basis Set <=

  Basis Set: (AUG-CC-PVTZ AUX)
    Blend: AUG-CC-PVTZ-JKFIT
    Number of shells: 486
    Number of basis function: 1662
    Number of Cartesian functions: 2067
    Spherical Harmonics?: true
    Max angular momentum: 4

  ==> CPHF Iterations <==

  => Iterations <=

             Iter  Converged  Remaining    Residual
  CGR           1          0          1   8.289E-02
  CGR           2          0          1   3.181E-02
  CGR           3          0          1   2.219E-02
  CGR           4          0          1   9.289E-03
  CGR           5          0          1   2.723E-03
  CGR           6          0          1   1.054E-03
  CGR           7          0          1   4.740E-04
  CGR           8          0          1   2.013E-04
  CGR           9          0          1   9.735E-05
  CGR          10          0          1   3.786E-05
  CGR          11          0          1   8.434E-06
  CGR          12          0          1   3.179E-06
  CGR          13          1          0   8.522E-07

    CGRSolver converged.

  ==> DFCorrGrad: Density-Fitted Correlated Gradients <==

    OpenMP threads:              8
    Integrals threads:           8
    Memory (MB):               375
    Schwarz Cutoff:          0E+00
    Fitting Condition:       1E-12

   => Auxiliary Basis Set <=

  Basis Set: (AUG-CC-PVTZ AUX)
    Blend: AUG-CC-PVTZ-JKFIT
    Number of shells: 486
    Number of basis function: 1662
    Number of Cartesian functions: 2067
    Spherical Harmonics?: true
    Max angular momentum: 4

	-----------------------------------------------------------
	 ==================> DF-MP2 Energies <==================== 
	-----------------------------------------------------------
	 Reference Energy          =    -476.3955008026704263 [Eh]
	 Singles Energy            =      -0.0000000000000001 [Eh]
	 Same-Spin Energy          =      -0.5353956003258626 [Eh]
	 Opposite-Spin Energy      =      -1.6436159186456631 [Eh]
	 Correlation Energy        =      -2.1790115189715258 [Eh]
	 Total Energy              =    -478.5745123216419756 [Eh]
	-----------------------------------------------------------
	 ================> DF-SCS-MP2 Energies <================== 
	-----------------------------------------------------------
	 SCS Same-Spin Scale       =       0.3333333333333333 [-]
	 SCS Opposite-Spin Scale   =       1.2000000000000000 [-]
	 SCS Same-Spin Energy      =      -0.1784652001086209 [Eh]
	 SCS Opposite-Spin Energy  =      -1.9723391023747956 [Eh]
	 SCS Correlation Energy    =      -2.1508043024834165 [Eh]
	 SCS Total Energy          =    -478.5463051051538628 [Eh]
	-----------------------------------------------------------


  -Total Gradient:
     Atom            X                  Y                   Z
    ------   -----------------  -----------------  -----------------
       1       -0.000437975932     0.000408853225     0.000436885569
       2       -0.000588276217    -0.000015840839    -0.002205893894
       3        0.001615090279    -0.000236507857    -0.001982775857
       4       -0.000174929505    -0.002295453745     0.011125234736
       5       -0.001076991736     0.002368235113     0.011313573981
       6        0.000764644447    -0.004030482870    -0.010185162199
       7       -0.000109360980     0.003631936454    -0.009984072346
       8        0.004006680730    -0.007110375940    -0.009751110781
       9       -0.002949155815     0.007035738688    -0.010328116702
      10        0.000432931550    -0.000603366984     0.005879448485
      11       -0.000544415545     0.000780877151     0.005057899905
      12       -0.000786162086     0.000056406921     0.016408649068
      13        0.000085259539     0.000028759754    -0.004987867952
      14       -0.003578796631     0.002238317488    -0.002498146494
      15        0.003446150082    -0.002239187220    -0.002210183819
      16       -0.004813439174     0.004662209408     0.001936782855
      17        0.004639509625    -0.004699756182     0.002053961439
      18        0.004265631170    -0.003585275892    -0.001809109281
      19       -0.004100394644     0.003614932706    -0.002104767940
      20        0.001125371052    -0.001290332818     0.001826213722
      21       -0.001221370208     0.001280313432     0.002008557508


*** tstop() called on gpu-1-8.local at Sat Nov 11 10:12:34 2017
Module time:
	user time   =    6010.20 seconds =     100.17 minutes
	system time =      97.84 seconds =       1.63 minutes
	total time  =       1922 seconds =      32.03 minutes
Total time:
	user time   =    6010.20 seconds =     100.17 minutes
	system time =      97.84 seconds =       1.63 minutes
	total time  =       1922 seconds =      32.03 minutes

			-----------------------------------------
			 OPTKING 2.0: for geometry optimizations 
			  - R.A. King,  Bethel University        
			-----------------------------------------

	Internal coordinates to be generated automatically.
	Detected frag 1 with atoms:  1 2 3 4 5 6 7 8 9 10 11 12 13 14 15 16 17 18 19 20
	 21
	---Fragment 1 Bond Connectivity---
	 1 : 2 3 13
	 2 : 1 4 14
	 3 : 1 5 15
	 4 : 2 10 16
	 5 : 3 10 17
	 6 : 8 11 18
	 7 : 9 11 19
	 8 : 6 12 20
	 9 : 7 12 21
	 10 : 4 5 11
	 11 : 6 7 10
	 12 : 8 9
	 13 : 1
	 14 : 2
	 15 : 3
	 16 : 4
	 17 : 5
	 18 : 6
	 19 : 7
	 20 : 8
	 21 : 9

	Assuming in current code that numbering for constraints corresponds to unified fragment.
	Fixed dihedral atom list: 
	     4    10    11     6
	---Fragment 1 Geometry and Gradient---
	 C           0.2039592207        0.1009803598       -6.6631088581
	 C          -1.8331655505        1.1837934340       -5.3913231707
	 C           2.1617154944       -1.0234066893       -5.3025060424
	 C          -1.9144237743        1.1441091852       -2.7570449414
	 C           2.0804572707       -1.0630909380       -2.6682278132
	 C           1.0902407770       -1.9871670170        2.6626896077
	 C          -1.2549093539        1.9056688167        2.6475717986
	 C           0.9598496739       -1.9380341376        5.2780705756
	 C          -1.2813655197        1.7809468919        5.2629527665
	 C           0.0433324994        0.0197221361       -1.3945523996
	 C          -0.0417051766       -0.0199621127        1.3379915885
	 N          -0.2023318979       -0.0974408841        6.6159966777
	 H           0.2644304570        0.1293262518       -8.7153514384
	 H          -3.3600642659        2.0549571812       -6.4514595312
	 H           3.7471957199       -1.8700039968       -6.2927225361
	 H          -3.5169115349        1.9963756711       -1.7913948875
	 H           3.6205840690       -1.9474827682       -1.6326578924
	 H           2.0558908309       -3.5235143631        1.7064881844
	 H          -2.1600881715        3.4703620547        1.6781422925
	 H           1.8158956121       -3.4252486042        6.3986781724
	 H          -2.2035518726        3.2360360143        6.3741117327
	            -0.0004379759        0.0004088532        0.0004368856
	            -0.0005882762       -0.0000158408       -0.0022058939
	             0.0016150903       -0.0002365079       -0.0019827759
	            -0.0001749295       -0.0022954537        0.0111252347
	            -0.0010769917        0.0023682351        0.0113135740
	             0.0007646444       -0.0040304829       -0.0101851622
	            -0.0001093610        0.0036319365       -0.0099840723
	             0.0040066807       -0.0071103759       -0.0097511108
	            -0.0029491558        0.0070357387       -0.0103281167
	             0.0004329316       -0.0006033670        0.0058794485
	            -0.0005444155        0.0007808772        0.0050578999
	            -0.0007861621        0.0000564069        0.0164086491
	             0.0000852595        0.0000287598       -0.0049878680
	            -0.0035787966        0.0022383175       -0.0024981465
	             0.0034461501       -0.0022391872       -0.0022101838
	            -0.0048134392        0.0046622094        0.0019367829
	             0.0046395096       -0.0046997562        0.0020539614
	             0.0042656312       -0.0035852759       -0.0018091093
	            -0.0041003946        0.0036149327       -0.0021047679
	             0.0011253711       -0.0012903328        0.0018262137
	            -0.0012213702        0.0012803134        0.0020085575

	Previous optimization step data not found.  Starting new optimization.

	---Fragment 1 Intrafragment Coordinates---
	 - Coordinate -           - BOHR/RAD -       - ANG/DEG -
	 R(1,2)           =         2.634350	       1.394038
	 R(1,3)           =         2.635962	       1.394891
	 R(1,13)          =         2.053329	       1.086575
	 R(2,4)           =         2.635830	       1.394821
	 R(2,14)          =         2.052860	       1.086327
	 R(3,5)           =         2.635830	       1.394821
	 R(3,15)          =         2.052073	       1.085910
	 R(4,10)          =         2.636938	       1.395407
	 R(4,16)          =         2.055920	       1.087946
	 R(5,10)          =         2.635263	       1.394521
	 R(5,17)          =         2.055856	       1.087912
	 R(6,8)           =         2.619090	       1.385963
	 R(6,11)          =         2.627931	       1.390641
	 R(6,18)          =         2.051137	       1.085415
	 R(7,9)           =         2.618487	       1.385644
	 R(7,11)          =         2.625818	       1.389523
	 R(7,19)          =         2.051197	       1.085446
	 R(8,12)          =         2.555092	       1.352097
	 R(8,20)          =         2.049484	       1.084540
	 R(9,12)          =         2.554091	       1.351567
	 R(9,21)          =         2.049972	       1.084799
	 R(10,11)         =         2.734155	       1.446852
	 B(1,2,4)         =         2.094553	     120.009056
	 B(1,2,14)        =         2.094726	     120.018942
	 B(1,3,5)         =         2.093692	     119.959722
	 B(1,3,15)        =         2.095250	     120.048965
	 B(2,1,3)         =         2.094940	     120.031219
	 B(2,1,13)        =         2.093950	     119.974480
	 B(2,4,10)        =         2.094306	     119.994870
	 B(2,4,16)        =         2.079681	     119.156970
	 B(3,1,13)        =         2.094293	     119.994160
	 B(3,5,10)        =         2.095181	     120.045019
	 B(3,5,17)        =         2.079222	     119.130634
	 B(4,2,14)        =         2.093904	     119.971849
	 B(4,10,5)        =         2.093699	     119.960108
	 B(4,10,11)       =         2.093804	     119.966144
	 B(5,3,15)        =         2.094242	     119.991253
	 B(5,10,11)       =         2.095682	     120.073736
	 B(6,8,12)        =         2.164033	     123.989983
	 B(6,8,20)        =         2.107835	     120.770047
	 B(6,11,7)        =         2.090444	     119.773603
	 B(6,11,10)       =         2.095845	     120.083083
	 B(7,9,12)        =         2.165048	     124.048105
	 B(7,9,21)        =         2.108458	     120.805758
	 B(7,11,10)       =         2.096896	     120.143308
	 B(8,6,11)        =         2.057690	     117.896966
	 B(8,6,18)        =         2.097875	     120.199358
	 B(8,12,9)        =         2.031469	     116.394573
	 B(9,7,11)        =         2.057685	     117.896689
	 B(9,7,19)        =         2.098941	     120.260446
	 B(10,4,16)       =         2.109198	     120.848149
	 B(10,5,17)       =         2.108782	     120.824331
	 B(11,6,18)       =         2.127618	     121.903533
	 B(11,7,19)       =         2.126559	     121.842851
	 B(12,8,20)       =         2.011317	     115.239953
	 B(12,9,21)       =         2.009679	     115.146105
	 D(1,2,4,10)      =        -0.000325	      -0.018609
	 D(1,2,4,16)      =        -3.141283	    -179.982244
	 D(1,3,5,10)      =         0.000325	       0.018608
	 D(1,3,5,17)      =         3.141117	     179.972749
	 D(2,1,3,5)       =        -0.000348	      -0.019945
	 D(2,1,3,15)      =         3.139689	     179.890913
	 D(2,4,10,5)      =         0.000301	       0.017261
	 D(2,4,10,11)     =         3.141198	     179.977407
	 D(3,1,2,4)       =         0.000348	       0.019955
	 D(3,1,2,14)      =        -3.138767	    -179.838124
	 D(3,5,10,4)      =        -0.000301	      -0.017270
	 D(3,5,10,11)     =        -3.141198	    -179.977373
	 D(4,2,1,13)      =         3.139559	     179.883471
	 D(4,10,5,17)     =        -3.141080	    -179.970623
	 D(4,10,11,6)     =         2.617664	     149.981122
	 D(4,10,11,7)     =        -0.523447	     -29.991310
	 D(5,3,1,13)      =        -3.139558	    -179.883434
	 D(5,10,4,16)     =         3.141248	     179.980271
	 D(5,10,11,6)     =        -0.524625	     -30.058778
	 D(5,10,11,7)     =         2.617449	     149.968790
	 D(6,8,12,9)      =        -0.000860	      -0.049262
	 D(6,11,7,9)      =         0.001456	       0.083413
	 D(6,11,7,19)     =        -3.140884	    -179.959397
	 D(7,9,12,8)      =         0.000519	       0.029751
	 D(7,11,6,8)      =        -0.001761	      -0.100920
	 D(7,11,6,18)     =        -3.140962	    -179.963863
	 D(8,6,11,10)     =         3.140311	     179.926546
	 D(8,12,9,21)     =         3.140986	     179.965266
	 D(9,7,11,10)     =        -3.140616	    -179.944070
	 D(9,12,8,20)     =         3.139902	     179.903108
	 D(10,4,2,14)     =         3.138792	     179.839537
	 D(10,5,3,15)     =        -3.139713	    -179.892302
	 D(10,11,6,18)    =         0.001110	       0.063603
	 D(10,11,7,19)    =         0.000229	       0.013120
	 D(11,6,8,12)     =         0.001500	       0.085961
	 D(11,6,8,20)     =        -3.139217	    -179.863897
	 D(11,7,9,12)     =        -0.000842	      -0.048252
	 D(11,7,9,21)     =        -3.141249	    -179.980290
	 D(11,10,4,16)    =        -0.001040	      -0.059583
	 D(11,10,5,17)    =         0.001209	       0.069274
	 D(12,8,6,18)     =         3.140743	     179.951336
	 D(12,9,7,19)     =         3.141485	     179.993851
	 D(13,1,2,14)     =         0.000443	       0.025392
	 D(13,1,3,15)     =         0.000479	       0.027424
	 D(14,2,4,16)     =        -0.002166	      -0.124098
	 D(15,3,5,17)     =         0.001079	       0.061840
	 D(18,6,8,20)     =         0.000026	       0.001478
	 D(19,7,9,21)     =         0.001079	       0.061814

	Current energy   :      -478.5745123216

	Generating empirical Hessian (Schlegel '84) for each fragment.
	Adding user-defined constraint: Fragment 1; Coordinate 71:
		Value =     2.617664; Fixed value    =     2.617994
		Force =     0.000165; Force constant =     0.500000
	Removing off-diagonal coupling between coordinate 71 and others.
	Taking RFO optimization step.
	Going to follow RFO solution 1.
	Using RFO vector 1.

	Determining step-restricting scale parameter for RS-RFO.
	Maximum step size allowed    0.10000

	 Iter      |step|        alpha        rfo_root  
	------------------------------------------------
	    0     0.21389       1.00000           1
	    1     0.15745       4.31780           1
	    2     0.12652      10.97210           1
	    3     0.10862      20.86898           1
	    4     0.10123      27.60045           1
	    5     0.10003      28.89676           1
	    6     0.10000      28.92963           1
	------------------------------------------------
	Norm of target step-size    0.10000
	Projected energy change by RFO approximation:        -0.0040928475

	Back-transformation to cartesian coordinates...
	Could not converge backtransformation.
	Using first guess instead.

	--- Internal Coordinate Step in ANG or DEG, aJ/ANG or AJ/DEG ---
	 ---------------------------------------------------------------------------
	   Coordinate                Previous        Force       Change         New 
	   ----------                --------       ------       ------       ------
	    1 R(1,2)          =      1.394038    -0.051662    -0.005793     1.388245
	    2 R(1,3)          =      1.394891    -0.057224    -0.006419     1.388472
	    3 R(1,13)         =      1.086575    -0.041096    -0.005579     1.080996
	    4 R(2,4)          =      1.394821    -0.055466    -0.006081     1.388740
	    5 R(2,14)         =      1.086327    -0.040385    -0.005473     1.080854
	    6 R(3,5)          =      1.394821    -0.055423    -0.006075     1.388746
	    7 R(3,15)         =      1.085910    -0.038334    -0.005173     1.080738
	    8 R(4,10)         =      1.395407    -0.002396    -0.000016     1.395392
	    9 R(4,16)         =      1.087946    -0.054328    -0.007364     1.080582
	   10 R(5,10)         =      1.394521     0.002600     0.000526     1.395047
	   11 R(5,17)         =      1.087912    -0.053815    -0.007295     1.080618
	   12 R(6,8)          =      1.385963    -0.002837    -0.000342     1.385620
	   13 R(6,11)         =      1.390641     0.005463     0.001305     1.391947
	   14 R(6,18)         =      1.085415    -0.045618    -0.006112     1.079303
	   15 R(7,9)          =      1.385644    -0.000426    -0.000040     1.385604
	   16 R(7,11)         =      1.389523     0.012384     0.002077     1.391600
	   17 R(7,19)         =      1.085446    -0.045821    -0.006144     1.079302
	   18 R(8,12)         =      1.352097    -0.125312    -0.012458     1.339638
	   19 R(8,20)         =      1.084540    -0.019814    -0.002659     1.081881
	   20 R(9,12)         =      1.351567    -0.122754    -0.012177     1.339390
	   21 R(9,21)         =      1.084799    -0.020983    -0.002801     1.081998
	   22 R(10,11)        =      1.446852     0.155461     0.019676     1.466529
	   23 B(1,2,4)        =    120.009056     0.000066     0.098774   120.107830
	   24 B(1,2,14)       =    120.018942    -0.000036    -0.056112   119.962830
	   25 B(1,3,5)        =    119.959722     0.000075     0.118142   120.077864
	   26 B(1,3,15)       =    120.048965    -0.000041    -0.069505   119.979460
	   27 B(2,1,3)        =    120.031219    -0.000086    -0.267952   119.763267
	   28 B(2,1,13)       =    119.974480     0.000046     0.141743   120.116223
	   29 B(2,4,10)       =    119.994870     0.000296     0.664644   120.659515
	   30 B(2,4,16)       =    119.156970    -0.000041    -0.045367   119.111604
	   31 B(3,1,13)       =    119.994160     0.000040     0.126297   120.120457
	   32 B(3,5,10)       =    120.045019     0.000288     0.647191   120.692210
	   33 B(3,5,17)       =    119.130634    -0.000037    -0.037925   119.092709
	   34 B(4,2,14)       =    119.971849    -0.000030    -0.042859   119.928990
	   35 B(4,10,5)       =    119.960108    -0.000639    -1.260905   118.699203
	   36 B(4,10,11)      =    119.966144     0.000335     0.662534   120.628677
	   37 B(5,3,15)       =    119.991253    -0.000034    -0.048596   119.942657
	   38 B(5,10,11)      =    120.073736     0.000304     0.597971   120.671707
	   39 B(6,8,12)       =    123.989983     0.000054     0.010126   124.000109
	   40 B(6,8,20)       =    120.770047    -0.000073    -0.130843   120.639203
	   41 B(6,11,7)       =    119.773603    -0.001200    -2.296835   117.476768
	   42 B(6,11,10)      =    120.083083     0.000602     1.152218   121.235301
	   43 B(7,9,12)       =    124.048105     0.000030    -0.030392   124.017712
	   44 B(7,9,21)       =    120.805758    -0.000074    -0.144486   120.661273
	   45 B(7,11,10)      =    120.143308     0.000598     1.144378   121.287687
	   46 B(8,6,11)       =    117.896966     0.000524     1.215232   119.112198
	   47 B(8,6,18)       =    120.199358    -0.000199    -0.441732   119.757626
	   48 B(8,12,9)       =    116.394573     0.000073    -0.112524   116.282048
	   49 B(9,7,11)       =    117.896689     0.000518     1.214454   119.111143
	   50 B(9,7,19)       =    120.260446    -0.000208    -0.474207   119.786239
	   51 B(10,4,16)      =    120.848149    -0.000256    -0.620704   120.227446
	   52 B(10,5,17)      =    120.824331    -0.000251    -0.610168   120.214163
	   53 B(11,6,18)      =    121.903533    -0.000325    -0.773918   121.129615
	   54 B(11,7,19)      =    121.842851    -0.000311    -0.741408   121.101443
	   55 B(12,8,20)      =    115.239953     0.000020     0.120649   115.360603
	   56 B(12,9,21)      =    115.146105     0.000044     0.174786   115.320891
	   57 D(1,2,4,10)     =     -0.018609    -0.000003    -0.084918    -0.103527
	   58 D(1,2,4,16)     =   -179.982244     0.000014     0.313664  -179.668580
	   59 D(1,3,5,10)     =      0.018608    -0.000002    -0.022511    -0.003904
	   60 D(1,3,5,17)     =    179.972749     0.000015     0.371257   180.344007
	   61 D(2,1,3,5)      =     -0.019945     0.000002     0.050998     0.031053
	   62 D(2,1,3,15)     =    179.890913     0.000007     0.189853   180.080766
	   63 D(2,4,10,5)     =      0.017261     0.000003     0.111589     0.128850
	   64 D(2,4,10,11)    =    179.977407    -0.000001    -0.080772   179.896635
	   65 D(3,1,2,4)      =      0.019955     0.000000     0.002296     0.022251
	   66 D(3,1,2,14)     =   -179.838124     0.000004     0.075823  -179.762301
	   67 D(3,5,10,4)     =     -0.017270    -0.000001    -0.057962    -0.075232
	   68 D(3,5,10,11)    =   -179.977373     0.000004     0.134459  -179.842914
	   69 D(4,2,1,13)     =    179.883471     0.000002     0.054835   179.938305
	   70 D(4,10,5,17)    =   -179.970623    -0.000018    -0.456418  -180.427041
	   71 D(4,10,11,6)    =    149.981122    -0.000016    -0.162660   149.818461
	   72 D(4,10,11,7)    =    -29.991310    -0.000021    -0.374818   -30.366128
	   73 D(5,3,1,13)     =   -179.883434     0.000000    -0.001564  -179.884997
	   74 D(5,10,4,16)    =    179.980271    -0.000014    -0.291220   179.689051
	   75 D(5,10,11,6)    =    -30.058778    -0.000020    -0.359578   -30.418357
	   76 D(5,10,11,7)    =    149.968790    -0.000026    -0.571737   149.397054
	   77 D(6,8,12,9)     =     -0.049262     0.000001     0.011964    -0.037298
	   78 D(6,11,7,9)     =      0.083413    -0.000002    -0.092857    -0.009445
	   79 D(6,11,7,19)    =   -179.959397    -0.000018    -0.445267  -180.404664
	   80 D(7,9,12,8)     =      0.029751     0.000001     0.024828     0.054579
	   81 D(7,11,6,8)     =     -0.100920     0.000004     0.126037     0.025116
	   82 D(7,11,6,18)    =   -179.963863    -0.000014    -0.284270  -180.248133
	   83 D(8,6,11,10)    =    179.926546    -0.000001    -0.079231   179.847315
	   84 D(8,12,9,21)    =    179.965266     0.000009     0.217059   180.182325
	   85 D(9,7,11,10)    =   -179.944070     0.000003     0.112526  -179.831545
	   86 D(9,12,8,20)    =    179.903108     0.000008     0.165502   180.068609
	   87 D(10,4,2,14)    =    179.839537    -0.000006    -0.158438   179.681099
	   88 D(10,5,3,15)    =   -179.892302    -0.000007    -0.161296  -180.053598
	   89 D(10,11,6,18)   =      0.063603    -0.000019    -0.489538    -0.425934
	   90 D(10,11,7,19)   =      0.013120    -0.000013    -0.239884    -0.226764
	   91 D(11,6,8,12)    =      0.085961    -0.000003    -0.087647    -0.001686
	   92 D(11,6,8,20)    =   -179.863897    -0.000010    -0.249018  -180.112915
	   93 D(11,7,9,12)    =     -0.048252    -0.000000     0.015983    -0.032270
	   94 D(11,7,9,21)    =   -179.980290    -0.000008    -0.186220  -180.166510
	   95 D(11,10,4,16)   =     -0.059583    -0.000018    -0.483581    -0.543164
	   96 D(11,10,5,17)   =      0.069274    -0.000013    -0.263997    -0.194723
	   97 D(12,8,6,18)    =    179.951336     0.000014     0.316408   180.267745
	   98 D(12,9,7,19)    =    179.993851     0.000015     0.363802   180.357653
	   99 D(13,1,2,14)    =      0.025392     0.000006     0.128361     0.153753
	  100 D(13,1,3,15)    =      0.027424     0.000006     0.137291     0.164716
	  101 D(14,2,4,16)    =     -0.124098     0.000010     0.240143     0.116046
	  102 D(15,3,5,17)    =      0.061840     0.000010     0.232473     0.294312
	  103 D(18,6,8,20)    =      0.001478     0.000007     0.155037     0.156515
	  104 D(19,7,9,21)    =      0.061814     0.000007     0.161599     0.223413
	 ---------------------------------------------------------------------------
	Successfully symmetrized geometry.
	 Forces used to impose fixed constraints are not included.
	  Forces zeroed: 71 

  ==> Convergence Check <==

  Measures of convergence in internal coordinates in au.
  Criteria marked as inactive (o), active & met (*), and active & unmet ( ).
  --------------------------------------------------------------------------------------------- ~
   Step     Total Energy     Delta E     MAX Force     RMS Force      MAX Disp      RMS Disp    ~
  --------------------------------------------------------------------------------------------- ~
    Convergence Criteria    1.00e-06 *    3.00e-04 *             o    1.20e-03 *             o  ~
  --------------------------------------------------------------------------------------------- ~
      1    -478.57451232   -4.79e+02      1.89e-02      4.30e-03 o    4.01e-02      9.80e-03 o  ~
  ---------------------------------------------------------------------------------------------

	Writing optimization data to binary file.
	Structure for next step:
	Cartesian Geometry (in Angstrom)
	    C     0.1095858490   0.0544318997  -3.5487926670
	    C    -0.9653320639   0.6199838469  -2.8765378277
	    C     1.1407196166  -0.5337299757  -2.8285957135
	    C    -1.0086962013   0.5978288588  -1.4886515238
	    C     1.0957343913  -0.5562711877  -1.4407614031
	    C     0.5654171053  -1.0436431291   1.4374812414
	    C    -0.6557648272   0.9984568733   1.4298615792
	    C     0.4989120651  -1.0178199276   2.8212638749
	    C    -0.6686284960   0.9352256261   2.8139622154
	    C     0.0206785195   0.0082087234  -0.7539038791
	    C    -0.0247097502  -0.0128128094   0.7117717012
	    N    -0.1056354328  -0.0509054455   3.5242785334
	    H     0.1429967513   0.0707181336  -4.6291496845
	    H    -1.7716312154   1.0752808971  -3.4340608572
	    H     1.9798442500  -0.9738869970  -3.3483316179
	    H    -1.8556263171   1.0379642326  -0.9820478257
	    H     1.9095148442  -1.0131862254  -0.8960371060
	    H     1.0670674045  -1.8598350546   0.9404179603
	    H    -1.1266561645   1.8291028202   0.9266899942
	    H     0.9474567803  -1.8071768678   3.4096431757
	    H    -1.1497051162   1.7092323115   3.3972275623
			--------------------------
			 OPTKING Finished Execution 
			--------------------------

    Structure for next step:
    Molecular point group: c1
    Full point group: C1

    Geometry (in Angstrom), charge = 0, multiplicity = 1:

    C            0.109842785500     0.054727115302    -3.548948324101
    C           -0.965075127362     0.620279062522    -2.876693484815
    C            1.140976553089    -0.533434760122    -2.828751370675
    C           -1.008439264826     0.598124074358    -1.488807180910
    C            1.095991327852    -0.555975972110    -1.440917060201
    C            0.565674041858    -1.043347913468     1.437325584298
    C           -0.655507890699     0.998752088884     1.429705922055
    C            0.499169001578    -1.017524712009     2.821108217788
    C           -0.668371559496     0.935520841705     2.813806558229
    C            0.020935456000     0.008503938996    -0.754059536203
    C           -0.024452813733    -0.012517593853     0.711616044011
    N           -0.105378496247    -0.050610229881     3.524122876274
    H            0.143253687828     0.071013349169    -4.629305341653
    H           -1.771374278840     1.075576112722    -3.434216514302
    H            1.980101186502    -0.973591781434    -3.348487275027
    H           -1.855369380543     1.038259448137    -0.982203482898
    H            1.909771780755    -1.012891009859    -0.896192763138
    H            1.067324341009    -1.859539838979     0.940262303137
    H           -1.126399227944     1.829398035824     0.926534337009
    H            0.947713716781    -1.806881652254     3.409487518521
    H           -1.149448179672     1.709527527124     3.397071905168

gradient() will perform analytic gradient computation.

*** tstart() called on gpu-1-8.local
*** at Sat Nov 11 10:12:35 2017

    SCF Algorithm Type (re)set to DF.

*** tstart() called on gpu-1-8.local
*** at Sat Nov 11 10:12:35 2017

   => Loading Basis Set <=

    Name: AUG-CC-PVTZ
    Role: ORBITAL
    Keyword: BASIS
    atoms 1-11  entry C          line   221 file /cbio/jclab/home/chayas/anaconda/envs/py35/share/psi4/basis/aug-cc-pvtz.gbs 
    atoms 12    entry N          line   267 file /cbio/jclab/home/chayas/anaconda/envs/py35/share/psi4/basis/aug-cc-pvtz.gbs 
    atoms 13-21 entry H          line    34 file /cbio/jclab/home/chayas/anaconda/envs/py35/share/psi4/basis/aug-cc-pvtz.gbs 


         ---------------------------------------------------------
                                   SCF
            by Justin Turney, Rob Parrish, and Andy Simmonett
                              RHF Reference
                        8 Threads,    500 MiB Core
         ---------------------------------------------------------

  ==> Geometry <==

    Molecular point group: c1
    Full point group: C1

    Geometry (in Angstrom), charge = 0, multiplicity = 1:

       Center              X                  Y                   Z               Mass       
    ------------   -----------------  -----------------  -----------------  -----------------
           C          0.109842785500     0.054727115302    -3.548948324101    12.000000000000
           C         -0.965075127362     0.620279062522    -2.876693484815    12.000000000000
           C          1.140976553089    -0.533434760122    -2.828751370675    12.000000000000
           C         -1.008439264826     0.598124074358    -1.488807180910    12.000000000000
           C          1.095991327852    -0.555975972110    -1.440917060201    12.000000000000
           C          0.565674041858    -1.043347913468     1.437325584298    12.000000000000
           C         -0.655507890699     0.998752088884     1.429705922055    12.000000000000
           C          0.499169001578    -1.017524712009     2.821108217788    12.000000000000
           C         -0.668371559496     0.935520841705     2.813806558229    12.000000000000
           C          0.020935456000     0.008503938996    -0.754059536203    12.000000000000
           C         -0.024452813733    -0.012517593853     0.711616044011    12.000000000000
           N         -0.105378496247    -0.050610229881     3.524122876274    14.003074004780
           H          0.143253687828     0.071013349169    -4.629305341653     1.007825032070
           H         -1.771374278840     1.075576112722    -3.434216514302     1.007825032070
           H          1.980101186502    -0.973591781434    -3.348487275027     1.007825032070
           H         -1.855369380543     1.038259448137    -0.982203482898     1.007825032070
           H          1.909771780755    -1.012891009859    -0.896192763138     1.007825032070
           H          1.067324341009    -1.859539838979     0.940262303137     1.007825032070
           H         -1.126399227944     1.829398035824     0.926534337009     1.007825032070
           H          0.947713716781    -1.806881652254     3.409487518521     1.007825032070
           H         -1.149448179672     1.709527527124     3.397071905168     1.007825032070

  Running in c1 symmetry.

  Rotational constants: A =      0.09891  B =      0.01854  C =      0.01596 [cm^-1]
  Rotational constants: A =   2965.24613  B =    555.95179  C =    478.59163 [MHz]
  Nuclear repulsion =  606.074015777259888

  Charge       = 0
  Multiplicity = 1
  Electrons    = 82
  Nalpha       = 41
  Nbeta        = 41

  ==> Algorithm <==

  SCF Algorithm Type is DF.
  DIIS enabled.
  MOM disabled.
  Fractional occupation disabled.
  Guess Type is READ.
  Energy threshold   = 1.00e-10
  Density threshold  = 1.00e-10
  Integral threshold = 0.00e+00

  ==> Primary Basis <==

  Basis Set: AUG-CC-PVTZ
    Blend: AUG-CC-PVTZ
    Number of shells: 249
    Number of basis function: 759
    Number of Cartesian functions: 885
    Spherical Harmonics?: true
    Max angular momentum: 3

   => Loading Basis Set <=

    Name: (AUG-CC-PVTZ AUX)
    Role: JKFIT
    Keyword: DF_BASIS_SCF
    atoms 1-11  entry C          line   161 file /cbio/jclab/home/chayas/anaconda/envs/py35/share/psi4/basis/aug-cc-pvtz-jkfit.gbs 
    atoms 12    entry N          line   223 file /cbio/jclab/home/chayas/anaconda/envs/py35/share/psi4/basis/aug-cc-pvtz-jkfit.gbs 
    atoms 13-21 entry H          line    69 file /cbio/jclab/home/chayas/anaconda/envs/py35/share/psi4/basis/aug-cc-pvtz-jkfit.gbs 

  Reading orbitals from file 180, no projection.

  ==> Pre-Iterations <==

   -------------------------------------------------------
    Irrep   Nso     Nmo     Nalpha   Nbeta   Ndocc  Nsocc
   -------------------------------------------------------
     A        759     759       0       0       0       0
   -------------------------------------------------------
    Total     759     759      41      41      41       0
   -------------------------------------------------------

  ==> Integral Setup <==

  ==> DFJK: Density-Fitted J/K Matrices <==

    J tasked:                  Yes
    K tasked:                  Yes
    wK tasked:                  No
    OpenMP threads:              8
    Integrals threads:           8
    Memory (MB):               375
    Algorithm:                Disk
    Integral Cache:           NONE
    Schwarz Cutoff:          1E-12
    Fitting Condition:       1E-12

   => Auxiliary Basis Set <=

  Basis Set: (AUG-CC-PVTZ AUX)
    Blend: AUG-CC-PVTZ-JKFIT
    Number of shells: 486
    Number of basis function: 1662
    Number of Cartesian functions: 2067
    Spherical Harmonics?: true
    Max angular momentum: 4

  Minimum eigenvalue in the overlap matrix is 4.2349783241E-07.
  Using Symmetric Orthogonalization.

  SCF Guess: Orbitals guess was supplied from a previous computation.

  ==> Iterations <==

                           Total Energy        Delta E     RMS |[F,P]|

   @DF-RHF iter   0:  -476.58617120434604   -4.76586e+02   6.02244e-04 
   @DF-RHF iter   1:  -476.39817377295032    1.87997e-01   2.31723e-04 
   @DF-RHF iter   2:  -476.39957954803219   -1.40578e-03   1.72128e-04 DIIS
   @DF-RHF iter   3:  -476.40088993231313   -1.31038e-03   2.14214e-05 DIIS
   @DF-RHF iter   4:  -476.40090879340408   -1.88611e-05   5.01690e-06 DIIS
   @DF-RHF iter   5:  -476.40091120558350   -2.41218e-06   1.67191e-06 DIIS
   @DF-RHF iter   6:  -476.40091158585574   -3.80272e-07   1.07386e-06 DIIS
   @DF-RHF iter   7:  -476.40091173225420   -1.46398e-07   4.29119e-07 DIIS
   @DF-RHF iter   8:  -476.40091177535305   -4.30989e-08   1.50559e-07 DIIS
   @DF-RHF iter   9:  -476.40091178116609   -5.81304e-09   3.63972e-08 DIIS
   @DF-RHF iter  10:  -476.40091178167290   -5.06816e-10   1.22509e-08 DIIS
   @DF-RHF iter  11:  -476.40091178175834   -8.54357e-11   5.43390e-09 DIIS
   @DF-RHF iter  12:  -476.40091178174367    1.46656e-11   2.30645e-09 DIIS
   @DF-RHF iter  13:  -476.40091178172133    2.23395e-11   1.58692e-09 DIIS
   @DF-RHF iter  14:  -476.40091178176914   -4.78053e-11   6.64593e-10 DIIS
   @DF-RHF iter  15:  -476.40091178176323    5.91172e-12   2.60004e-10 DIIS
   @DF-RHF iter  16:  -476.40091178177522   -1.19940e-11   9.35673e-11 DIIS

  ==> Post-Iterations <==

    Orbital Energies (a.u.)
    -----------------------

    Doubly Occupied:                                                      

       1A    -15.562257     2A    -11.272870     3A    -11.272851  
       4A    -11.266699     5A    -11.254315     6A    -11.245305  
       7A    -11.245296     8A    -11.244241     9A    -11.243575  
      10A    -11.242633    11A    -11.237510    12A    -11.237475  
      13A     -1.256665    14A     -1.175460    15A     -1.108081  
      16A     -1.037691    17A     -1.025740    18A     -1.018779  
      19A     -0.881471    20A     -0.868765    21A     -0.828798  
      22A     -0.808645    23A     -0.735303    24A     -0.684576  
      25A     -0.673176    26A     -0.663813    27A     -0.631560  
      28A     -0.625661    29A     -0.606009    30A     -0.591050  
      31A     -0.582020    32A     -0.548440    33A     -0.526752  
      34A     -0.514430    35A     -0.510135    36A     -0.496840  
      37A     -0.419196    38A     -0.406112    39A     -0.350529  
      40A     -0.347451    41A     -0.323029  

    Virtual:                                                              

      42A      0.025011    43A      0.029053    44A      0.032455  
      45A      0.039475    46A      0.043320    47A      0.045353  
      48A      0.055237    49A      0.057009    50A      0.061290  
      51A      0.069458    52A      0.081681    53A      0.086654  
      54A      0.090572    55A      0.096267    56A      0.096535  
      57A      0.102470    58A      0.107980    59A      0.108076  
      60A      0.114656    61A      0.115235    62A      0.118408  
      63A      0.119645    64A      0.120777    65A      0.128983  
      66A      0.130252    67A      0.133752    68A      0.135299  
      69A      0.139630    70A      0.142322    71A      0.145195  
      72A      0.149995    73A      0.150130    74A      0.151518  
      75A      0.161028    76A      0.164425    77A      0.171387  
      78A      0.176262    79A      0.177397    80A      0.182070  
      81A      0.186253    82A      0.189299    83A      0.200898  
      84A      0.206045    85A      0.221007    86A      0.223535  
      87A      0.226114    88A      0.227532    89A      0.230347  
      90A      0.240406    91A      0.241361    92A      0.245861  
      93A      0.251328    94A      0.255469    95A      0.259056  
      96A      0.264575    97A      0.269945    98A      0.272509  
      99A      0.276038   100A      0.281223   101A      0.288497  
     102A      0.290805   103A      0.295278   104A      0.298043  
     105A      0.300461   106A      0.300596   107A      0.305520  
     108A      0.311971   109A      0.318155   110A      0.321849  
     111A      0.323016   112A      0.323633   113A      0.336360  
     114A      0.339841   115A      0.341599   116A      0.345291  
     117A      0.352129   118A      0.359864   119A      0.362129  
     120A      0.368581   121A      0.370457   122A      0.378433  
     123A      0.383698   124A      0.388617   125A      0.403604  
     126A      0.404713   127A      0.408484   128A      0.412936  
     129A      0.417150   130A      0.424176   131A      0.427786  
     132A      0.434045   133A      0.436925   134A      0.439908  
     135A      0.442760   136A      0.444614   137A      0.449404  
     138A      0.451426   139A      0.463181   140A      0.463373  
     141A      0.465885   142A      0.472296   143A      0.476888  
     144A      0.479585   145A      0.480886   146A      0.483168  
     147A      0.487004   148A      0.490513   149A      0.499273  
     150A      0.499470   151A      0.502019   152A      0.509049  
     153A      0.511039   154A      0.513687   155A      0.515114  
     156A      0.524958   157A      0.525459   158A      0.527146  
     159A      0.527943   160A      0.529849   161A      0.532292  
     162A      0.537768   163A      0.539883   164A      0.544848  
     165A      0.547706   166A      0.550916   167A      0.553145  
     168A      0.557424   169A      0.568721   170A      0.574885  
     171A      0.576687   172A      0.584970   173A      0.589719  
     174A      0.595041   175A      0.606436   176A      0.606834  
     177A      0.618359   178A      0.623370   179A      0.625468  
     180A      0.636368   181A      0.641954   182A      0.645950  
     183A      0.661057   184A      0.675323   185A      0.676631  
     186A      0.681242   187A      0.688783   188A      0.694175  
     189A      0.698637   190A      0.700520   191A      0.705167  
     192A      0.707505   193A      0.709307   194A      0.721748  
     195A      0.732799   196A      0.736527   197A      0.740521  
     198A      0.741974   199A      0.746401   200A      0.750866  
     201A      0.754420   202A      0.762751   203A      0.767324  
     204A      0.774446   205A      0.783535   206A      0.798477  
     207A      0.803828   208A      0.806535   209A      0.818106  
     210A      0.827512   211A      0.829995   212A      0.837187  
     213A      0.842992   214A      0.844748   215A      0.852815  
     216A      0.860359   217A      0.865274   218A      0.867017  
     219A      0.873623   220A      0.874683   221A      0.882377  
     222A      0.883883   223A      0.884624   224A      0.892018  
     225A      0.892997   226A      0.897729   227A      0.907240  
     228A      0.912025   229A      0.916376   230A      0.916831  
     231A      0.917392   232A      0.920392   233A      0.931517  
     234A      0.944944   235A      0.949128   236A      0.954587  
     237A      0.957035   238A      0.961961   239A      0.964868  
     240A      0.967338   241A      0.974582   242A      0.982180  
     243A      0.985406   244A      0.990470   245A      0.992709  
     246A      1.001940   247A      1.007993   248A      1.010130  
     249A      1.012958   250A      1.013915   251A      1.018017  
     252A      1.032071   253A      1.032424   254A      1.040804  
     255A      1.042069   256A      1.047184   257A      1.047343  
     258A      1.055655   259A      1.057577   260A      1.071622  
     261A      1.075183   262A      1.080636   263A      1.081637  
     264A      1.083906   265A      1.087120   266A      1.090553  
     267A      1.093373   268A      1.096793   269A      1.104727  
     270A      1.108447   271A      1.113628   272A      1.114768  
     273A      1.122015   274A      1.129244   275A      1.130365  
     276A      1.138886   277A      1.146379   278A      1.155978  
     279A      1.166760   280A      1.169583   281A      1.173701  
     282A      1.183081   283A      1.183934   284A      1.186114  
     285A      1.188251   286A      1.192857   287A      1.194949  
     288A      1.202534   289A      1.208929   290A      1.212185  
     291A      1.214205   292A      1.218951   293A      1.222957  
     294A      1.231038   295A      1.241454   296A      1.242086  
     297A      1.247318   298A      1.251616   299A      1.260637  
     300A      1.262692   301A      1.272989   302A      1.285075  
     303A      1.293964   304A      1.298070   305A      1.299601  
     306A      1.309808   307A      1.312495   308A      1.315493  
     309A      1.326395   310A      1.339144   311A      1.344352  
     312A      1.350995   313A      1.359759   314A      1.366705  
     315A      1.370587   316A      1.373489   317A      1.382427  
     318A      1.395976   319A      1.416991   320A      1.423021  
     321A      1.427099   322A      1.432206   323A      1.442907  
     324A      1.443821   325A      1.458404   326A      1.462498  
     327A      1.473845   328A      1.476031   329A      1.490222  
     330A      1.501646   331A      1.507665   332A      1.515846  
     333A      1.519740   334A      1.523419   335A      1.533518  
     336A      1.534010   337A      1.554547   338A      1.563781  
     339A      1.566314   340A      1.579031   341A      1.587478  
     342A      1.596760   343A      1.606122   344A      1.606663  
     345A      1.617935   346A      1.627031   347A      1.645192  
     348A      1.655264   349A      1.657950   350A      1.658555  
     351A      1.674699   352A      1.692855   353A      1.698493  
     354A      1.710554   355A      1.714468   356A      1.719749  
     357A      1.722429   358A      1.727788   359A      1.733607  
     360A      1.740776   361A      1.744912   362A      1.746155  
     363A      1.769195   364A      1.777267   365A      1.778767  
     366A      1.789610   367A      1.801679   368A      1.807106  
     369A      1.812285   370A      1.821476   371A      1.822736  
     372A      1.835744   373A      1.846383   374A      1.854445  
     375A      1.857476   376A      1.865925   377A      1.877838  
     378A      1.885605   379A      1.899413   380A      1.908590  
     381A      1.913160   382A      1.925878   383A      1.928472  
     384A      1.941591   385A      1.954649   386A      1.970024  
     387A      1.972762   388A      1.978435   389A      1.979435  
     390A      1.995083   391A      1.997024   392A      2.010995  
     393A      2.013756   394A      2.021477   395A      2.025087  
     396A      2.037846   397A      2.039980   398A      2.042210  
     399A      2.043723   400A      2.053947   401A      2.054519  
     402A      2.070152   403A      2.076031   404A      2.087559  
     405A      2.094612   406A      2.102962   407A      2.103880  
     408A      2.116145   409A      2.121781   410A      2.126224  
     411A      2.126732   412A      2.131980   413A      2.142912  
     414A      2.150855   415A      2.151820   416A      2.178870  
     417A      2.183141   418A      2.190416   419A      2.199300  
     420A      2.203793   421A      2.223888   422A      2.228040  
     423A      2.244432   424A      2.250115   425A      2.252562  
     426A      2.256219   427A      2.288285   428A      2.297116  
     429A      2.306737   430A      2.317210   431A      2.327072  
     432A      2.352499   433A      2.354143   434A      2.364786  
     435A      2.368572   436A      2.370158   437A      2.372230  
     438A      2.388345   439A      2.394307   440A      2.402967  
     441A      2.412224   442A      2.428513   443A      2.428642  
     444A      2.443634   445A      2.457897   446A      2.475893  
     447A      2.496931   448A      2.497918   449A      2.510661  
     450A      2.515305   451A      2.536001   452A      2.550455  
     453A      2.558389   454A      2.571379   455A      2.580864  
     456A      2.586248   457A      2.608827   458A      2.611190  
     459A      2.630066   460A      2.654120   461A      2.664660  
     462A      2.668352   463A      2.721618   464A      2.730405  
     465A      2.751420   466A      2.777761   467A      2.804268  
     468A      2.810180   469A      2.821003   470A      2.836873  
     471A      2.845746   472A      2.873252   473A      2.880364  
     474A      2.885533   475A      2.917290   476A      2.982441  
[...]
	 R(3,15)          =         2.039390	       1.079199
	 R(4,10)          =         2.636240	       1.395038
	 R(4,16)          =         2.040156	       1.079604
	 R(5,10)          =         2.636199	       1.395017
	 R(5,17)          =         2.040047	       1.079546
	 R(6,8)           =         2.618298	       1.385544
	 R(6,11)          =         2.631217	       1.392380
	 R(6,18)          =         2.039630	       1.079326
	 R(7,9)           =         2.618391	       1.385593
	 R(7,11)          =         2.631204	       1.392373
	 R(7,19)          =         2.039546	       1.079281
	 R(8,12)          =         2.522808	       1.335012
	 R(8,20)          =         2.043050	       1.081136
	 R(9,12)          =         2.522736	       1.334975
	 R(9,21)          =         2.043010	       1.081114
	 R(10,11)         =         2.765401	       1.463387
	 B(1,2,4)         =         2.096685	     120.131210
	 B(1,2,14)        =         2.095932	     120.088062
	 B(1,3,5)         =         2.096852	     120.140768
	 B(1,3,15)        =         2.095834	     120.082446
	 B(2,1,3)         =         2.087870	     119.626140
	 B(2,1,13)        =         2.097641	     120.185978
	 B(2,4,10)        =         2.108483	     120.807203
	 B(2,4,16)        =         2.087716	     119.617307
	 B(3,1,13)        =         2.097673	     120.187816
	 B(3,5,10)        =         2.108293	     120.796304
	 B(3,5,17)        =         2.087718	     119.617447
	 B(4,2,14)        =         2.090533	     119.778730
	 B(4,10,5)        =         2.068169	     118.497339
	 B(4,10,11)       =         2.107734	     120.764239
	 B(5,3,15)        =         2.090449	     119.773907
	 B(5,10,11)       =         2.107136	     120.730020
	 B(6,8,12)        =         2.159834	     123.749362
	 B(6,8,20)        =         2.094600	     120.011721
	 B(6,11,7)        =         2.033541	     116.513328
	 B(6,11,10)       =         2.125143	     121.761733
	 B(7,9,12)        =         2.159935	     123.755134
	 B(7,9,21)        =         2.094469	     120.004260
	 B(7,11,10)       =         2.124357	     121.716662
	 B(8,6,11)        =         2.089703	     119.731151
	 B(8,6,18)        =         2.087752	     119.619398
	 B(8,12,9)        =         2.033759	     116.525808
	 B(9,7,11)        =         2.089579	     119.724047
	 B(9,7,19)        =         2.087788	     119.621459
	 B(10,4,16)       =         2.086495	     119.547380
	 B(10,5,17)       =         2.086730	     119.560815
	 B(11,6,18)       =         2.105317	     120.625767
	 B(11,7,19)       =         2.105459	     120.633927
	 B(12,8,20)       =         2.028723	     116.237258
	 B(12,9,21)       =         2.028732	     116.237803
	 D(1,2,4,10)      =        -0.001763	      -0.100992
	 D(1,2,4,16)      =        -3.109544	    -178.163746
	 D(1,3,5,10)      =         0.002609	       0.149501
	 D(1,3,5,17)      =        -3.106826	    -178.008015
	 D(2,1,3,5)       =         0.001664	       0.095350
	 D(2,1,3,15)      =        -3.129133	    -179.286103
	 D(2,4,10,5)      =         0.005907	       0.338440
	 D(2,4,10,11)     =         3.129228	     179.291580
	 D(3,1,2,4)       =        -0.002084	      -0.119387
	 D(3,1,2,14)      =        -3.134683	    -179.604089
	 D(3,5,10,4)      =        -0.006329	      -0.362637
	 D(3,5,10,11)     =        -3.129657	    -179.316149
	 D(4,2,1,13)      =         3.141142	     179.974152
	 D(4,10,5,17)     =         3.103124	     177.795913
	 D(4,10,11,6)     =         2.615549	     149.859896
	 D(4,10,11,7)     =        -0.544951	     -31.223387
	 D(5,3,1,13)      =        -3.141561	    -179.998191
	 D(5,10,4,16)     =         3.113712	     178.402535
	 D(5,10,11,6)     =        -0.544725	     -31.210417
	 D(5,10,11,7)     =         2.577961	     147.706300
	 D(6,8,12,9)      =        -0.001699	      -0.097366
	 D(6,11,7,9)      =        -0.007174	      -0.411021
	 D(6,11,7,19)     =         3.105519	     177.933138
	 D(7,9,12,8)      =        -0.000557	      -0.031931
	 D(7,11,6,8)      =         0.005102	       0.292343
	 D(7,11,6,18)     =         3.115682	     178.515444
	 D(8,6,11,10)     =         3.128722	     179.262541
	 D(8,12,9,21)     =        -3.131491	    -179.421192
	 D(9,7,11,10)     =        -3.130802	    -179.381720
	 D(9,12,8,20)     =        -3.135092	    -179.627525
	 D(10,4,2,14)     =         3.130864	     179.385309
	 D(10,5,3,15)     =         3.133440	     179.532869
	 D(10,11,6,18)    =        -0.043884	      -2.514358
	 D(10,11,7,19)    =        -0.018109	      -1.037561
	 D(11,6,8,12)     =        -0.000693	      -0.039714
	 D(11,6,8,20)     =         3.132405	     179.473599
	 D(11,7,9,12)     =         0.005168	       0.296122
	 D(11,7,9,21)     =         3.135720	     179.663534
	 D(11,10,4,16)    =        -0.046152	      -2.644325
	 D(11,10,5,17)    =        -0.020204	      -1.157599
	 D(12,8,6,18)     =        -3.111588	    -178.280838
	 D(12,9,7,19)     =        -3.107819	    -178.064936
	 D(13,1,2,14)     =         0.008543	       0.489450
	 D(13,1,3,15)     =         0.010827	       0.620356
	 D(14,2,4,16)     =         0.023083	       1.322556
	 D(15,3,5,17)     =         0.024004	       1.375353
	 D(18,6,8,20)     =         0.021511	       1.232475
	 D(19,7,9,21)     =         0.022732	       1.302476

	Current energy   :      -478.5773612223

	Energy change for the previous step:
		Projected    :        -0.0000030667
		Actual       :        -0.0000006147

	Performing BFGS update.
	Previous computed or guess Hessian on step 1.
	Steps to be used in Hessian update: 4 3
	Adding user-defined constraint: Fragment 1; Coordinate 71:
		Value =     2.615549; Fixed value    =     2.617990
		Force =     0.001465; Force constant =     0.600000
	Removing off-diagonal coupling between coordinate 71 and others.
	Taking RFO optimization step.
	Going to follow RFO solution 1.
	Using RFO vector 1.
	Norm of target step-size    0.00644
	Projected energy change by RFO approximation:        -0.0000019396

	Back-transformation to cartesian coordinates...
	Successfully converged to displaced geometry.
	First geometry is closer to target in internal coordinates, so am using that one.
	First geometry has RMS(Delta(q)) = 6.17e-07

	--- Internal Coordinate Step in ANG or DEG, aJ/ANG or AJ/DEG ---
	 ---------------------------------------------------------------------------
	   Coordinate                Previous        Force       Change         New 
	   ----------                --------       ------       ------       ------
	    1 R(1,2)          =      1.388400    -0.000202    -0.000034     1.388367
	    2 R(1,3)          =      1.388381    -0.000283    -0.000044     1.388337
	    3 R(1,13)         =      1.079179    -0.000125    -0.000037     1.079142
	    4 R(2,4)          =      1.386302    -0.000484    -0.000064     1.386238
	    5 R(2,14)         =      1.079217    -0.000233    -0.000055     1.079162
	    6 R(3,5)          =      1.386349    -0.000461    -0.000063     1.386287
	    7 R(3,15)         =      1.079199    -0.000116    -0.000029     1.079169
	    8 R(4,10)         =      1.395038    -0.000174    -0.000063     1.394974
	    9 R(4,16)         =      1.079604    -0.000006    -0.000005     1.079600
	   10 R(5,10)         =      1.395017    -0.000065    -0.000049     1.394967
	   11 R(5,17)         =      1.079546     0.000010     0.000001     1.079547
	   12 R(6,8)          =      1.385544    -0.000623    -0.000098     1.385446
	   13 R(6,11)         =      1.392380    -0.000058    -0.000033     1.392347
	   14 R(6,18)         =      1.079326    -0.000150    -0.000033     1.079292
	   15 R(7,9)          =      1.385593    -0.000591    -0.000094     1.385499
	   16 R(7,11)         =      1.392373     0.000083    -0.000018     1.392355
	   17 R(7,19)         =      1.079281    -0.000192    -0.000041     1.079240
	   18 R(8,12)         =      1.335012     0.000165     0.000022     1.335034
	   19 R(8,20)         =      1.081136     0.000119     0.000021     1.081156
	   20 R(9,12)         =      1.334975     0.000142     0.000020     1.334994
	   21 R(9,21)         =      1.081114     0.000234     0.000045     1.081159
	   22 R(10,11)        =      1.463387     0.000291     0.000150     1.463537
	   23 B(1,2,4)        =    120.131210    -0.000000     0.000477   120.131687
	   24 B(1,2,14)       =    120.088062    -0.000001    -0.001885   120.086177
	   25 B(1,3,5)        =    120.140768    -0.000001    -0.001375   120.139393
	   26 B(1,3,15)       =    120.082446    -0.000001    -0.001641   120.080805
	   27 B(2,1,3)        =    119.626140     0.000001    -0.000975   119.625165
	   28 B(2,1,13)       =    120.185978    -0.000000     0.001103   120.187081
	   29 B(2,4,10)       =    120.807203    -0.000000     0.001172   120.808375
	   30 B(2,4,16)       =    119.617307     0.000001    -0.004822   119.612485
	   31 B(3,1,13)       =    120.187816    -0.000001    -0.000145   120.187671
	   32 B(3,5,10)       =    120.796304     0.000000     0.002889   120.799193
	   33 B(3,5,17)       =    119.617447     0.000001    -0.006313   119.611134
	   34 B(4,2,14)       =    119.778730     0.000001     0.001290   119.780021
	   35 B(4,10,5)       =    118.497339    -0.000000    -0.002185   118.495154
	   36 B(4,10,11)      =    120.764239     0.000001     0.001784   120.766023
	   37 B(5,3,15)       =    119.773907     0.000001     0.002843   119.776749
	   38 B(5,10,11)      =    120.730020    -0.000001     0.000693   120.730713
	   39 B(6,8,12)       =    123.749362    -0.000002    -0.009180   123.740182
	   40 B(6,8,20)       =    120.011721     0.000001     0.006717   120.018438
	   41 B(6,11,7)       =    116.513328     0.000000     0.002275   116.515604
	   42 B(6,11,10)      =    121.761733     0.000001    -0.000456   121.761276
	   43 B(7,9,12)       =    123.755134    -0.000003    -0.010494   123.744640
	   44 B(7,9,21)       =    120.004260     0.000001     0.008540   120.012800
	   45 B(7,11,10)      =    121.716662    -0.000001    -0.001615   121.715047
	   46 B(8,6,11)       =    119.731151     0.000001     0.002269   119.733421
	   47 B(8,6,18)       =    119.619398    -0.000001    -0.006334   119.613063
	   48 B(8,12,9)       =    116.525808     0.000003     0.011933   116.537741
	   49 B(9,7,11)       =    119.724047     0.000001     0.003331   119.727377
	   50 B(9,7,19)       =    119.621459    -0.000001    -0.006594   119.614865
	   51 B(10,4,16)      =    119.547380    -0.000001     0.003386   119.550766
	   52 B(10,5,17)      =    119.560815    -0.000001     0.003120   119.563935
	   53 B(11,6,18)      =    120.625767     0.000000     0.002943   120.628710
	   54 B(11,7,19)      =    120.633927    -0.000000     0.002392   120.636319
	   55 B(12,8,20)      =    116.237258     0.000002     0.003397   116.240655
	   56 B(12,9,21)      =    116.237803     0.000002     0.003285   116.241088
	   57 D(1,2,4,10)     =     -0.100992    -0.000000    -0.017029    -0.118021
	   58 D(1,2,4,16)     =   -178.163746     0.000000    -0.008029  -178.171775
	   59 D(1,3,5,10)     =      0.149501    -0.000000    -0.017998     0.131503
	   60 D(1,3,5,17)     =   -178.008015    -0.000000    -0.007093  -178.015108
	   61 D(2,1,3,5)      =      0.095350     0.000000     0.009862     0.105212
	   62 D(2,1,3,15)     =   -179.286103     0.000000     0.028220  -179.257883
	   63 D(2,4,10,5)     =      0.338440    -0.000000     0.008951     0.347391
	   64 D(2,4,10,11)    =    179.291580     0.000000     0.027280   179.318860
	   65 D(3,1,2,4)      =     -0.119387     0.000000     0.007492    -0.111895
	   66 D(3,1,2,14)     =   -179.604089     0.000000     0.022492  -179.581597
	   67 D(3,5,10,4)     =     -0.362637     0.000000     0.008536    -0.354101
	   68 D(3,5,10,11)    =   -179.316149    -0.000000    -0.009798  -179.325947
	   69 D(4,2,1,13)     =    179.974152     0.000000     0.018857   179.993009
	   70 D(4,10,5,17)    =    177.795913     0.000000    -0.002536   177.793377
	   71 D(4,10,11,6)    =    149.859896    -0.000000     0.022425   149.882321
	   72 D(4,10,11,7)    =    -31.223387    -0.000000     0.035896   -31.187491
	   73 D(5,3,1,13)     =   -179.998191    -0.000000    -0.001809  -180.000000
	   74 D(5,10,4,16)    =    178.402535    -0.000000    -0.000200   178.402335
	   75 D(5,10,11,6)    =    -31.210417    -0.000000     0.041135   -31.169282
	   76 D(5,10,11,7)    =    147.706300     0.000000     0.054606   147.760907
	   77 D(6,8,12,9)     =     -0.097366     0.000000     0.060751    -0.036615
	   78 D(6,11,7,9)     =     -0.411021     0.000001     0.058375    -0.352647
	   79 D(6,11,7,19)    =    177.933138     0.000000     0.023548   177.956686
	   80 D(7,9,12,8)     =     -0.031931     0.000001     0.079823     0.047892
	   81 D(7,11,6,8)     =      0.292343     0.000000     0.070680     0.363023
	   82 D(7,11,6,18)    =    178.515444     0.000000     0.028968   178.544413
	   83 D(8,6,11,10)    =    179.262541     0.000001     0.083448   179.345989
	   84 D(8,12,9,21)    =   -179.421192    -0.000001    -0.088355  -179.509547
	   85 D(9,7,11,10)    =   -179.381720     0.000000     0.045600  -179.336120
	   86 D(9,12,8,20)    =   -179.627525    -0.000001    -0.098496  -179.726022
	   87 D(10,4,2,14)    =    179.385309    -0.000000    -0.031999   179.353311
	   88 D(10,5,3,15)    =    179.532869    -0.000000    -0.036327   179.496541
	   89 D(10,11,6,18)   =     -2.514358     0.000000     0.041737    -2.472621
	   90 D(10,11,7,19)   =     -1.037561     0.000000     0.010774    -1.026788
	   91 D(11,6,8,12)    =     -0.039714    -0.000001    -0.137609    -0.177323
	   92 D(11,6,8,20)    =    179.473599     0.000001     0.027337   179.500936
	   93 D(11,7,9,12)    =      0.296122    -0.000001    -0.141174     0.154948
	   94 D(11,7,9,21)    =    179.663534     0.000001     0.032994   179.696528
	   95 D(11,10,4,16)   =     -2.644325     0.000000     0.018128    -2.626196
	   96 D(11,10,5,17)   =     -1.157599    -0.000000    -0.020870    -1.178468
	   97 D(12,8,6,18)    =   -178.280838    -0.000001    -0.096489  -178.377327
	   98 D(12,9,7,19)    =   -178.064936    -0.000001    -0.106854  -178.171790
	   99 D(13,1,2,14)    =      0.489450     0.000000     0.033857     0.523307
	  100 D(13,1,3,15)    =      0.620356     0.000000     0.016856     0.637212
	  101 D(14,2,4,16)    =      1.322556    -0.000000    -0.023000     1.299557
	  102 D(15,3,5,17)    =      1.375353    -0.000000    -0.025423     1.349930
	  103 D(18,6,8,20)    =      1.232475     0.000001     0.068457     1.300932
	  104 D(19,7,9,21)    =      1.302476     0.000001     0.067314     1.369790
	 ---------------------------------------------------------------------------
	Successfully symmetrized geometry.
	 Forces used to impose fixed constraints are not included.
	  Forces zeroed: 71 

  ==> Convergence Check <==

  Measures of convergence in internal coordinates in au.
  Criteria marked as inactive (o), active & met (*), and active & unmet ( ).
  ---------------------------------------------------------------------------------------------
   Step     Total Energy     Delta E     MAX Force     RMS Force      MAX Disp      RMS Disp   
  ---------------------------------------------------------------------------------------------
    Convergence Criteria    1.00e-06 *    3.00e-04 *             o    1.20e-03 *             o
  ---------------------------------------------------------------------------------------------
      5    -478.57736122   -6.15e-07 *    7.56e-05 *    2.49e-05 o    2.46e-03      6.32e-04 o  ~
  ---------------------------------------------------------------------------------------------


  **** Optimization is complete! (in 5 steps) ****

  ==> Optimization Summary <==

  Measures of convergence in internal coordinates in au.
  --------------------------------------------------------------------------------------------------------------- ~
   Step         Total Energy             Delta E       MAX Force       RMS Force        MAX Disp        RMS Disp  ~
  --------------------------------------------------------------------------------------------------------------- ~
      1    -478.574512321642   -478.574512321642      0.01886952      0.00429894      0.04008733      0.00979748  ~
      2    -478.577014664403     -0.002502342761      0.00385556      0.00099826      0.02816289      0.00979418  ~
      3    -478.577346748688     -0.000332084285      0.00096343      0.00019673      0.01159135      0.00332102  ~
      4    -478.577360607542     -0.000013858854      0.00019157      0.00005365      0.00509262      0.00143808  ~
      5    -478.577361222289     -0.000000614747      0.00007560      0.00002496      0.00246395      0.00063159  ~
  --------------------------------------------------------------------------------------------------------------- ~

	Writing optimization data to binary file.
	Final energy is   -478.5773612222889
	Final (previous) structure:
	Cartesian Geometry (in Angstrom)
	    C     0.1153358841   0.0625040268  -3.5515854650
	    C    -0.9645900068   0.6195424298  -2.8799277376
	    C     1.1451875544  -0.5237962384  -2.8282194764
	    C    -1.0142971832   0.5876429759  -1.4948847997
	    C     1.0935529183  -0.5540812407  -1.4431630316
	    C     0.5506065010  -1.0476666005   1.4440448790
	    C    -0.6460629856   0.9959055736   1.4327873869
	    C     0.4952219000  -1.0161088080   2.8281212778
	    C    -0.6543578725   0.9421136702   2.8173110327
	    C     0.0117242691  -0.0024839339  -0.7565346884
	    C    -0.0342340275  -0.0220088469   0.7060003738
	    N    -0.0960288257  -0.0427597529   3.5247360042
	    H     0.1547366956   0.0864744071  -4.6297782476
	    H    -1.7722632533   1.0715198921  -3.4349866266
	    H     1.9936138938  -0.9487373843  -3.3422892950
	    H    -1.8718735680   0.9966355543  -0.9822121292
	    H     1.9139468742  -0.9831565740  -0.8879439223
	    H     1.0221743359  -1.8821983352   0.9479354832
	    H    -1.0910068178   1.8403802772   0.9290657658
	    H     0.9403835879  -1.8144533189   3.4054700037
	    H    -1.1233581300   1.7327708518   3.3862642965
	Saving final (previous) structure.
			--------------------------
			 OPTKING Finished Execution 
			--------------------------

    Final optimized geometry and variables:
    Molecular point group: c1
    Full point group: C1

    Geometry (in Angstrom), charge = 0, multiplicity = 1:

    C            0.115335884092     0.062504026843    -3.551585465005
    C           -0.964590006840     0.619542429806    -2.879927737576
    C            1.145187554357    -0.523796238437    -2.828219476373
    C           -1.014297183238     0.587642975904    -1.494884799704
    C            1.093552918262    -0.554081240691    -1.443163031575
    C            0.550606500988    -1.047666600483     1.444044879042
    C           -0.646062985642     0.995905573646     1.432787386857
    C            0.495221899993    -1.016108808047     2.828121277823
    C           -0.654357872453     0.942113670194     2.817311032688
    C            0.011724269051    -0.002483933915    -0.756534688385
    C           -0.034234027524    -0.022008846926     0.706000373786
    N           -0.096028825724    -0.042759752929     3.524736004242
    H            0.154736695577     0.086474407131    -4.629778247561
    H           -1.772263253291     1.071519892063    -3.434986626608
    H            1.993613893846    -0.948737384271    -3.342289295006
    H           -1.871873568020     0.996635554252    -0.982212129249
    H            1.913946874163    -0.983156574038    -0.887943922289
    H            1.022174335901    -1.882198335218     0.947935483178
    H           -1.091006817804     1.840380277175     0.929065765806
    H            0.940383587914    -1.814453318876     3.405470003653
    H           -1.123358130022     1.732770851803     3.386264296511

	Cleaning optimization helper files.

*** Psi4 exiting successfully. Buy a developer a beer!
