
    -----------------------------------------------------------------------
          Psi4: An Open-Source Ab Initio Electronic Structure Package
                               Psi4 1.1 release

                         Git: Rev {HEAD} add49b9 


    R. M. Parrish, L. A. Burns, D. G. A. Smith, A. C. Simmonett,
    A. E. DePrince III, E. G. Hohenstein, U. Bozkaya, A. Yu. Sokolov,
    R. Di Remigio, R. M. Richard, J. F. Gonthier, A. M. James,
    H. R. McAlexander, A. Kumar, M. Saitow, X. Wang, B. P. Pritchard,
    P. Verma, H. F. Schaefer III, K. Patkowski, R. A. King, E. F. Valeev,
    F. A. Evangelista, J. M. Turney, T. D. Crawford, and C. D. Sherrill,
    J. Chem. Theory Comput. in press (2017).
    (doi: 10.1021/acs.jctc.7b00174)

    -----------------------------------------------------------------------


    Psi4 started on: Saturday, 11 November 2017 06:16PM

    Process ID:  31872
    PSIDATADIR: /cbio/jclab/home/chayas/anaconda/envs/py35/share/psi4
    Memory:     500.0 MiB
    Threads:    8
    
  ==> Input File <==

--------------------------------------------------------------------------

memory 5 Gb

molecule phepyrFOH_cation {
  symmetry C1
  1 1 
  C      1.885   -1.036   -0.112
  C      0.807   -0.463   0.561
  C      3.884   -3.449   -0.738
  C      5.267   -1.573   -0.128
  C      1.800   -1.079   2.676
  C      4.973   -3.995   -1.404
  C      6.320   -2.166   -0.810
  C      2.921   -1.631   0.608
  C      4.038   -2.225   -0.095
  C      0.764   -0.484   1.955
  C      2.878   -1.652   2.002
  N      6.145   -3.346   -1.420
  O      -0.289   0.076   2.612
  F      3.866   -2.220   2.709
  H      1.904   -1.012   -1.199
  H      0.002   -0.002   -0.006
  H      2.937   -3.980   -0.728
  H      5.415   -0.617   0.365
  H      1.772   -1.099   3.762
  H      4.945   -4.939   -1.930
  H      7.307   -1.733   -0.888
  H      6.932   -3.765   -1.914
  H      -0.175   -0.018   3.571
  units Angstrom
}

dih_string = "1 8 9 3 285"
set optking fixed_dihedral = $dih_string

optimize('MP2/aug-cc-PVTZ')
--------------------------------------------------------------------------

  Memory set to   4.657 GiB by Python driver.
gradient() will perform analytic gradient computation.

*** tstart() called on gpu-2-4.local
*** at Sat Nov 11 18:16:23 2017

    SCF Algorithm Type (re)set to DF.

*** tstart() called on gpu-2-4.local
*** at Sat Nov 11 18:16:23 2017

   => Loading Basis Set <=

    Name: AUG-CC-PVTZ
    Role: ORBITAL
    Keyword: BASIS
    atoms 1-11  entry C          line   221 file /cbio/jclab/home/chayas/anaconda/envs/py35/share/psi4/basis/aug-cc-pvtz.gbs 
    atoms 12    entry N          line   267 file /cbio/jclab/home/chayas/anaconda/envs/py35/share/psi4/basis/aug-cc-pvtz.gbs 
    atoms 13    entry O          line   313 file /cbio/jclab/home/chayas/anaconda/envs/py35/share/psi4/basis/aug-cc-pvtz.gbs 
    atoms 14    entry F          line   359 file /cbio/jclab/home/chayas/anaconda/envs/py35/share/psi4/basis/aug-cc-pvtz.gbs 
    atoms 15-23 entry H          line    34 file /cbio/jclab/home/chayas/anaconda/envs/py35/share/psi4/basis/aug-cc-pvtz.gbs 


         ---------------------------------------------------------
                                   SCF
            by Justin Turney, Rob Parrish, and Andy Simmonett
                              RHF Reference
                        8 Threads,   4768 MiB Core
         ---------------------------------------------------------

  ==> Geometry <==

    Molecular point group: c1
    Full point group: C1

    Geometry (in Angstrom), charge = 1, multiplicity = 1:

       Center              X                  Y                   Z               Mass       
    ------------   -----------------  -----------------  -----------------  -----------------
           C         -1.338077424542     0.764158749936    -0.788510036988    12.000000000000
           C         -2.416077424542     1.337158749936    -0.115510036988    12.000000000000
           C          0.660922575458    -1.648841250064    -1.414510036988    12.000000000000
           C          2.043922575458     0.227158749936    -0.804510036988    12.000000000000
           C         -1.423077424542     0.721158749936     1.999489963012    12.000000000000
           C          1.749922575458    -2.194841250064    -2.080510036988    12.000000000000
           C          3.096922575458    -0.365841250064    -1.486510036988    12.000000000000
           C         -0.302077424542     0.169158749936    -0.068510036988    12.000000000000
           C          0.814922575458    -0.424841250064    -0.771510036988    12.000000000000
           C         -2.459077424542     1.316158749936     1.278489963012    12.000000000000
           C         -0.345077424542     0.148158749936     1.325489963012    12.000000000000
           N          2.921922575458    -1.545841250064    -2.096510036988    14.003074004780
           O         -3.512077424542     1.876158749936     1.935489963012    15.994914619560
           F          0.642922575458    -0.419841250064     2.032489963012    18.998403224000
           H         -1.319077424542     0.788158749936    -1.875510036988     1.007825032070
           H         -3.221077424542     1.798158749936    -0.682510036988     1.007825032070
           H         -0.286077424542    -2.179841250064    -1.404510036988     1.007825032070
           H          2.191922575458     1.183158749936    -0.311510036988     1.007825032070
           H         -1.451077424542     0.701158749936     3.085489963012     1.007825032070
           H          1.721922575458    -3.138841250064    -2.606510036988     1.007825032070
           H          4.083922575458     0.067158749936    -1.564510036988     1.007825032070
           H          3.708922575458    -1.964841250064    -2.590510036988     1.007825032070
           H         -3.398077424542     1.782158749936     2.894489963012     1.007825032070

  Running in c1 symmetry.

  Rotational constants: A =      0.06291  B =      0.01269  C =      0.01167 [cm^-1]
  Rotational constants: A =   1886.05680  B =    380.29824  C =    349.76040 [MHz]
  Nuclear repulsion =  828.662456275017576

  Charge       = 1
  Multiplicity = 1
  Electrons    = 98
  Nalpha       = 49
  Nbeta        = 49

  ==> Algorithm <==

  SCF Algorithm Type is DF.
  DIIS enabled.
  MOM disabled.
  Fractional occupation disabled.
  Guess Type is SAD.
  Energy threshold   = 1.00e-10
  Density threshold  = 1.00e-10
  Integral threshold = 0.00e+00

  ==> Primary Basis <==

  Basis Set: AUG-CC-PVTZ
    Blend: AUG-CC-PVTZ
    Number of shells: 277
    Number of basis function: 851
    Number of Cartesian functions: 995
    Spherical Harmonics?: true
    Max angular momentum: 3

   => Loading Basis Set <=

    Name: (AUG-CC-PVTZ AUX)
    Role: JKFIT
    Keyword: DF_BASIS_SCF
    atoms 1-11  entry C          line   161 file /cbio/jclab/home/chayas/anaconda/envs/py35/share/psi4/basis/aug-cc-pvtz-jkfit.gbs 
    atoms 12    entry N          line   223 file /cbio/jclab/home/chayas/anaconda/envs/py35/share/psi4/basis/aug-cc-pvtz-jkfit.gbs 
    atoms 13    entry O          line   285 file /cbio/jclab/home/chayas/anaconda/envs/py35/share/psi4/basis/aug-cc-pvtz-jkfit.gbs 
    atoms 14    entry F          line   347 file /cbio/jclab/home/chayas/anaconda/envs/py35/share/psi4/basis/aug-cc-pvtz-jkfit.gbs 
    atoms 15-23 entry H          line    69 file /cbio/jclab/home/chayas/anaconda/envs/py35/share/psi4/basis/aug-cc-pvtz-jkfit.gbs 

  ==> Pre-Iterations <==

   -------------------------------------------------------
    Irrep   Nso     Nmo     Nalpha   Nbeta   Ndocc  Nsocc
   -------------------------------------------------------
     A        851     851       0       0       0       0
   -------------------------------------------------------
    Total     851     851      49      49      49       0
   -------------------------------------------------------

  ==> Integral Setup <==

  ==> DFJK: Density-Fitted J/K Matrices <==

    J tasked:                  Yes
    K tasked:                  Yes
    wK tasked:                  No
    OpenMP threads:              8
    Integrals threads:           8
    Memory (MB):              3576
    Algorithm:                Disk
    Integral Cache:           NONE
    Schwarz Cutoff:          1E-12
    Fitting Condition:       1E-12

   => Auxiliary Basis Set <=

  Basis Set: (AUG-CC-PVTZ AUX)
    Blend: AUG-CC-PVTZ-JKFIT
    Number of shells: 546
    Number of basis function: 1870
    Number of Cartesian functions: 2329
    Spherical Harmonics?: true
    Max angular momentum: 4

  Minimum eigenvalue in the overlap matrix is 6.9451071654E-07.
  Using Symmetric Orthogonalization.

  SCF Guess: Superposition of Atomic Densities via on-the-fly atomic UHF.

  ==> Iterations <==

                           Total Energy        Delta E     RMS |[F,P]|

   @DF-RHF iter   0:  -654.15724903562807   -6.54157e+02   2.43800e-02 
   @DF-RHF iter   1:  -650.18940497905987    3.96784e+00   2.19540e-03 
   @DF-RHF iter   2:  -650.48668648152898   -2.97282e-01   8.62517e-04 DIIS
   @DF-RHF iter   3:  -650.53928729766608   -5.26008e-02   4.29273e-04 DIIS
   @DF-RHF iter   4:  -650.55449480354480   -1.52075e-02   1.30477e-04 DIIS
   @DF-RHF iter   5:  -650.55653660664393   -2.04180e-03   5.55414e-05 DIIS
   @DF-RHF iter   6:  -650.55691174734307   -3.75141e-04   1.92083e-05 DIIS
   @DF-RHF iter   7:  -650.55695759531534   -4.58480e-05   7.05610e-06 DIIS
   @DF-RHF iter   8:  -650.55696331688728   -5.72157e-06   2.25620e-06 DIIS
   @DF-RHF iter   9:  -650.55696432627087   -1.00938e-06   9.12582e-07 DIIS
   @DF-RHF iter  10:  -650.55696459382250   -2.67552e-07   4.86457e-07 DIIS
   @DF-RHF iter  11:  -650.55696465158064   -5.77581e-08   1.65989e-07 DIIS
   @DF-RHF iter  12:  -650.55696465808774   -6.50709e-09   5.73482e-08 DIIS
   @DF-RHF iter  13:  -650.55696465889116   -8.03425e-10   2.05146e-08 DIIS
   @DF-RHF iter  14:  -650.55696465897381   -8.26503e-11   6.68882e-09 DIIS
   @DF-RHF iter  15:  -650.55696465900053   -2.67164e-11   2.70597e-09 DIIS
   @DF-RHF iter  16:  -650.55696465901326   -1.27329e-11   1.15549e-09 DIIS
   @DF-RHF iter  17:  -650.55696465899530    1.79625e-11   3.39555e-10 DIIS
   @DF-RHF iter  18:  -650.55696465898109    1.42109e-11   2.05485e-10 DIIS
   @DF-RHF iter  19:  -650.55696465899837   -1.72804e-11   1.12350e-10 DIIS
   @DF-RHF iter  20:  -650.55696465901008   -1.17097e-11   4.77036e-11 DIIS

  ==> Post-Iterations <==

    Orbital Energies (a.u.)
    -----------------------

    Doubly Occupied:                                                      

       1A    -26.441782     2A    -20.702273     3A    -15.847285  
       4A    -11.492337     5A    -11.491389     6A    -11.466417  
       7A    -11.453060     8A    -11.434417     9A    -11.423899  
      10A    -11.423316    11A    -11.381801    12A    -11.376216  
      13A    -11.359239    14A    -11.351874    15A     -1.759751  
      16A     -1.521482    17A     -1.517077    18A     -1.325337  
      19A     -1.269931    20A     -1.245207    21A     -1.162918  
      22A     -1.149354    23A     -1.074394    24A     -1.062179  
      25A     -0.989015    26A     -0.971131    27A     -0.962249  
      28A     -0.886432    29A     -0.877058    30A     -0.860275  
      31A     -0.854097    32A     -0.825714    33A     -0.823018  
      34A     -0.804849    35A     -0.801921    36A     -0.782719  
      37A     -0.755671    38A     -0.746920    39A     -0.726650  
      40A     -0.719374    41A     -0.702662    42A     -0.686514  
      43A     -0.651938    44A     -0.642513    45A     -0.610832  
      46A     -0.581099    47A     -0.542392    48A     -0.468344  
      49A     -0.445327  

    Virtual:                                                              

      50A     -0.105150    51A     -0.087772    52A     -0.070509  
      53A     -0.063401    54A     -0.059444    55A     -0.051256  
      56A     -0.041453    57A     -0.039955    58A     -0.035218  
      59A     -0.030751    60A     -0.024698    61A     -0.016277  
      62A     -0.011332    63A     -0.010897    64A     -0.006354  
      65A     -0.003364    66A      0.000524    67A      0.008674  
      68A      0.010711    69A      0.013443    70A      0.015996  
      71A      0.017520    72A      0.023856    73A      0.026811  
      74A      0.028689    75A      0.031705    76A      0.032505  
      77A      0.037569    78A      0.039810    79A      0.041316  
      80A      0.044698    81A      0.052059    82A      0.056926  
      83A      0.060493    84A      0.062866    85A      0.066906  
      86A      0.068820    87A      0.076844    88A      0.081707  
      89A      0.086655    90A      0.087824    91A      0.092171  
      92A      0.094550    93A      0.098794    94A      0.101126  
      95A      0.105583    96A      0.116572    97A      0.116954  
      98A      0.126717    99A      0.130422   100A      0.134065  
     101A      0.136205   102A      0.139931   103A      0.143319  
     104A      0.145085   105A      0.150691   106A      0.151758  
     107A      0.160570   108A      0.162099   109A      0.163786  
     110A      0.168400   111A      0.170333   112A      0.173282  
     113A      0.174256   114A      0.182345   115A      0.184953  
     116A      0.189196   117A      0.194375   118A      0.195366  
     119A      0.200279   120A      0.204853   121A      0.207652  
     122A      0.213039   123A      0.214726   124A      0.219430  
     125A      0.224538   126A      0.226224   127A      0.229377  
     128A      0.231578   129A      0.236325   130A      0.243319  
     131A      0.245328   132A      0.248712   133A      0.254541  
     134A      0.255756   135A      0.258039   136A      0.263293  
     137A      0.274467   138A      0.275482   139A      0.279515  
     140A      0.280443   141A      0.283448   142A      0.291077  
     143A      0.293760   144A      0.299659   145A      0.301507  
     146A      0.310191   147A      0.314736   148A      0.318238  
     149A      0.322574   150A      0.325577   151A      0.327099  
     152A      0.330854   153A      0.332904   154A      0.335829  
     155A      0.336631   156A      0.340922   157A      0.344165  
     158A      0.349527   159A      0.351066   160A      0.356679  
     161A      0.358385   162A      0.363387   163A      0.368680  
     164A      0.371565   165A      0.372457   166A      0.376015  
     167A      0.378317   168A      0.384358   169A      0.386289  
     170A      0.392384   171A      0.398782   172A      0.399730  
     173A      0.402386   174A      0.408385   175A      0.410488  
     176A      0.413231   177A      0.416111   178A      0.422501  
     179A      0.426359   180A      0.427870   181A      0.430076  
     182A      0.437060   183A      0.441458   184A      0.446717  
     185A      0.448145   186A      0.453097   187A      0.456036  
     188A      0.465711   189A      0.471096   190A      0.476276  
     191A      0.483108   192A      0.488856   193A      0.492088  
     194A      0.494026   195A      0.498933   196A      0.503068  
     197A      0.515797   198A      0.521865   199A      0.528102  
     200A      0.530415   201A      0.539667   202A      0.544343  
     203A      0.551944   204A      0.560842   205A      0.567215  
     206A      0.570621   207A      0.577012   208A      0.578111  
     209A      0.580552   210A      0.588003   211A      0.592177  
     212A      0.597782   213A      0.602939   214A      0.606400  
     215A      0.610690   216A      0.615603   217A      0.619677  
     218A      0.622039   219A      0.632483   220A      0.634563  
     221A      0.636915   222A      0.641510   223A      0.643530  
     224A      0.650890   225A      0.657479   226A      0.666412  
     227A      0.674618   228A      0.677936   229A      0.688042  
     230A      0.692738   231A      0.695943   232A      0.706185  
     233A      0.709424   234A      0.720498   235A      0.722828  
     236A      0.733037   237A      0.736969   238A      0.741380  
     239A      0.746001   240A      0.751290   241A      0.753231  
     242A      0.757921   243A      0.768729   244A      0.770076  
     245A      0.772725   246A      0.775738   247A      0.777641  
     248A      0.782360   249A      0.785163   250A      0.788905  
     251A      0.792796   252A      0.797214   253A      0.803677  
     254A      0.807405   255A      0.812246   256A      0.818579  
     257A      0.824115   258A      0.829453   259A      0.832918  
     260A      0.837153   261A      0.840379   262A      0.842861  
     263A      0.848604   264A      0.853223   265A      0.861593  
     266A      0.866310   267A      0.869240   268A      0.874191  
     269A      0.877049   270A      0.889649   271A      0.892399  
     272A      0.894195   273A      0.901457   274A      0.906435  
     275A      0.908669   276A      0.915788   277A      0.923190  
     278A      0.923494   279A      0.932083   280A      0.934702  
     281A      0.938628   282A      0.942659   283A      0.949711  
     284A      0.952354   285A      0.954916   286A      0.956240  
     287A      0.962625   288A      0.970809   289A      0.973737  
     290A      0.976506   291A      0.979328   292A      0.981626  
     293A      0.986751   294A      0.991140   295A      0.999494  
     296A      1.004444   297A      1.013986   298A      1.014643  
     299A      1.017082   300A      1.022297   301A      1.030986  
     302A      1.034142   303A      1.036435   304A      1.039302  
     305A      1.042360   306A      1.047650   307A      1.054678  
     308A      1.057915   309A      1.064036   310A      1.066239  
     311A      1.070247   312A      1.078995   313A      1.081638  
     314A      1.087536   315A      1.092864   316A      1.098425  
     317A      1.105714   318A      1.108276   319A      1.112521  
     320A      1.120407   321A      1.124098   322A      1.130043  
     323A      1.131764   324A      1.139376   325A      1.144107  
     326A      1.147439   327A      1.153221   328A      1.161032  
     329A      1.164692   330A      1.172375   331A      1.182241  
     332A      1.192326   333A      1.201961   334A      1.208486  
     335A      1.212507   336A      1.222272   337A      1.229726  
     338A      1.234010   339A      1.236178   340A      1.243529  
     341A      1.248530   342A      1.253888   343A      1.259136  
     344A      1.262036   345A      1.269834   346A      1.278374  
     347A      1.282379   348A      1.285953   349A      1.288668  
     350A      1.303135   351A      1.305115   352A      1.310413  
     353A      1.317663   354A      1.329385   355A      1.336127  
     356A      1.346005   357A      1.351989   358A      1.354191  
     359A      1.366081   360A      1.373929   361A      1.382150  
     362A      1.389454   363A      1.399197   364A      1.401265  
     365A      1.408120   366A      1.416035   367A      1.424124  
     368A      1.427404   369A      1.430702   370A      1.433538  
     371A      1.452695   372A      1.454528   373A      1.456974  
     374A      1.465603   375A      1.474457   376A      1.477144  
     377A      1.492692   378A      1.498488   379A      1.502434  
     380A      1.510118   381A      1.511049   382A      1.523092  
     383A      1.528785   384A      1.537369   385A      1.539009  
     386A      1.540470   387A      1.547623   388A      1.567313  
     389A      1.572454   390A      1.577961   391A      1.588533  
     392A      1.598618   393A      1.608495   394A      1.618590  
     395A      1.621933   396A      1.634946   397A      1.638618  
     398A      1.647179   399A      1.652501   400A      1.656968  
     401A      1.667505   402A      1.671952   403A      1.678833  
     404A      1.686405   405A      1.691339   406A      1.709058  
     407A      1.712437   408A      1.718050   409A      1.722230  
     410A      1.740230   411A      1.741317   412A      1.743594  
     413A      1.747320   414A      1.763003   415A      1.771822  
     416A      1.785238   417A      1.788959   418A      1.794728  
     419A      1.803421   420A      1.815789   421A      1.817330  
     422A      1.819801   423A      1.826078   424A      1.838421  
     425A      1.843186   426A      1.852499   427A      1.862877  
     428A      1.865194   429A      1.877691   430A      1.884616  
     431A      1.892431   432A      1.896194   433A      1.903342  
     434A      1.914363   435A      1.919311   436A      1.932451  
     437A      1.934485   438A      1.938547   439A      1.950967  
     440A      1.961170   441A      1.968073   442A      1.975488  
     443A      1.985388   444A      1.990444   445A      1.998947  
     446A      2.007779   447A      2.013797   448A      2.019534  
     449A      2.022866   450A      2.042387   451A      2.045666  
     452A      2.053229   453A      2.055655   454A      2.066497  
     455A      2.080615   456A      2.084926   457A      2.086894  
     458A      2.105351   459A      2.107660   460A      2.117722  
     461A      2.134751   462A      2.148795   463A      2.151119  
     464A      2.171682   465A      2.181778   466A      2.190305  
     467A      2.198201   468A      2.200209   469A      2.217103  
     470A      2.225353   471A      2.232904   472A      2.242155  
     473A      2.251196   474A      2.257813   475A      2.264448  
     476A      2.267390   477A      2.281588   478A      2.292661  
     479A      2.300265   480A      2.315082   481A      2.323844  
     482A      2.336493   483A      2.348261   484A      2.358968  
     485A      2.372084   486A      2.392710   487A      2.400611  
     488A      2.407759   489A      2.417342   490A      2.420262  
     491A      2.426320   492A      2.443337   493A      2.466459  
     494A      2.478068   495A      2.489084   496A      2.495950  
     497A      2.506942   498A      2.514142   499A      2.524978  
     500A      2.532297   501A      2.547203   502A      2.564122  
     503A      2.582929   504A      2.589785   505A      2.608826  
     506A      2.618412   507A      2.632081   508A      2.640923  
     509A      2.667415   510A      2.706025   511A      2.712797  
     512A      2.721538   513A      2.746492   514A      2.756680  
     515A      2.763838   516A      2.789157   517A      2.804210  
     518A      2.825536   519A      2.838630   520A      2.859385  
     521A      2.898627   522A      2.915003   523A      2.923112  
     524A      2.928345   525A      2.945865   526A      2.950447  
     527A      2.952338   528A      2.963016   529A      3.014681  
     530A      3.021120   531A      3.024113   532A      3.045025  
     533A      3.052242   534A      3.067233   535A      3.073239  
     536A      3.081435   537A      3.081930   538A      3.101295  
     539A      3.122725   540A      3.132198   541A      3.145739  
     542A      3.157024   543A      3.167889   544A      3.175241  
     545A      3.198239   546A      3.207412   547A      3.218549  
     548A      3.234379   549A      3.237927   550A      3.246378  
     551A      3.256644   552A      3.261310   553A      3.272192  
     554A      3.294646   555A      3.297918   556A      3.307534  
     557A      3.319950   558A      3.321756   559A      3.326153  
     560A      3.346103   561A      3.349076   562A      3.358414  
     563A      3.364696   564A      3.370978   565A      3.380606  
     566A      3.385282   567A      3.392387   568A      3.397172  
     569A      3.408740   570A      3.414415   571A      3.424954  
     572A      3.437960   573A      3.441995   574A      3.452353  
     575A      3.460903   576A      3.472854   577A      3.479873  
     578A      3.494436   579A      3.495188   580A      3.507964  
     581A      3.519660   582A      3.520756   583A      3.531655  
     584A      3.542716   585A      3.555557   586A      3.565990  
     587A      3.572729   588A      3.587648   589A      3.595572  
     590A      3.601556   591A      3.613767   592A      3.616881  
     593A      3.631264   594A      3.637252   595A      3.643340  
     596A      3.654203   597A      3.662545   598A      3.670466  
     599A      3.680050   600A      3.689360   601A      3.694741  
     602A      3.711502   603A      3.712139   604A      3.717599  
     605A      3.729389   606A      3.737368   607A      3.744134  
     608A      3.751568   609A      3.759446   610A      3.766831  
     611A      3.777704   612A      3.789432   613A      3.797380  
     614A      3.804493   615A      3.808538   616A      3.818524  
     617A      3.824887   618A      3.829551   619A      3.842721  
     620A      3.849839   621A      3.863136   622A      3.868280  
     623A      3.889163   624A      3.893938   625A      3.898983  
     626A      3.909574   627A      3.913224   628A      3.923609  
     629A      3.929936   630A      3.949040   631A      3.956524  
     632A      3.965657   633A      3.980410   634A      3.985164  
     635A      3.992130   636A      4.001646   637A      4.007906  
     638A      4.012981   639A      4.030149   640A      4.035940  
     641A      4.038281   642A      4.042946   643A      4.055591  
     644A      4.066103   645A      4.071617   646A      4.079692  
     647A      4.088014   648A      4.093808   649A      4.098998  
     650A      4.114003   651A      4.126472   652A      4.127582  
     653A      4.132468   654A      4.158830   655A      4.162927  
     656A      4.170404   657A      4.177190   658A      4.190313  
     659A      4.199815   660A      4.213634   661A      4.219214  
     662A      4.225871   663A      4.231947   664A      4.244350  
     665A      4.250771   666A      4.257931   667A      4.268073  
     668A      4.282665   669A      4.288438   670A      4.291381  
     671A      4.301880   672A      4.302903   673A      4.307976  
     674A      4.320536   675A      4.325565   676A      4.342159  
     677A      4.348473   678A      4.359486   679A      4.366806  
     680A      4.372140   681A      4.381576   682A      4.407160  
     683A      4.413934   684A      4.420610   685A      4.426555  
     686A      4.438583   687A      4.453784   688A      4.461855  
     689A      4.469035   690A      4.481952   691A      4.488085  
     692A      4.493767   693A      4.518451   694A      4.554559  
     695A      4.570096   696A      4.583950   697A      4.594089  
     698A      4.601122   699A      4.608012   700A      4.623986  
     701A      4.631037   702A      4.642307   703A      4.652052  
     704A      4.677757   705A      4.680510   706A      4.686222  
     707A      4.712682   708A      4.726416   709A      4.734240  
     710A      4.750701   711A      4.758261   712A      4.771449  
     713A      4.790906   714A      4.803799   715A      4.808214  
     716A      4.812340   717A      4.824155   718A      4.834080  
     719A      4.853096   720A      4.859603   721A      4.902207  
     722A      4.908125   723A      4.911549   724A      4.914725  
     725A      4.932405   726A      4.933593   727A      4.941841  
     728A      4.958748   729A      4.974191   730A      4.988671  
     731A      4.993243   732A      5.008113   733A      5.019798  
     734A      5.025902   735A      5.036460   736A      5.040009  
     737A      5.049189   738A      5.055187   739A      5.084833  
     740A      5.087165   741A      5.124185   742A      5.155147  
     743A      5.166054   744A      5.173045   745A      5.195500  
     746A      5.198319   747A      5.204017   748A      5.213143  
     749A      5.240612   750A      5.252982   751A      5.266820  
     752A      5.282796   753A      5.315410   754A      5.318901  
     755A      5.337775   756A      5.362311   757A      5.362638  
     758A      5.387832   759A      5.398039   760A      5.418222  
     761A      5.451037   762A      5.462092   763A      5.475271  
     764A      5.498473   765A      5.516832   766A      5.562935  
     767A      5.582868   768A      5.601876   769A      5.604785  
     770A      5.627645   771A      5.650709   772A      5.665214  
     773A      5.691799   774A      5.702571   775A      5.732348  
     776A      5.757294   777A      5.776600   778A      5.826538  
     779A      5.830382   780A      5.891963   781A      5.918840  
     782A      5.934069   783A      5.969785   784A      5.983361  
     785A      5.993975   786A      6.044876   787A      6.059347  
     788A      6.141118   789A      6.160089   790A      6.198037  
     791A      6.213069   792A      6.268719   793A      6.291959  
     794A      6.333974   795A      6.364196   796A      6.402957  
     797A      6.421783   798A      6.470287   799A      6.518768  
     800A      6.551874   801A      6.600014   802A      6.625591  
     803A      6.648131   804A      6.728107   805A      6.740952  
     806A      6.794310   807A      6.828460   808A      6.853335  
     809A      6.901035   810A      6.904444   811A      6.950270  
     812A      6.959909   813A      7.077722   814A      7.161708  
     815A      7.291825   816A      7.321927   817A      7.367361  
     818A      7.437728   819A      7.538385   820A      7.584141  
     821A      7.591400   822A      7.652547   823A      7.905490  
     824A      8.286442   825A      8.540013   826A      8.874253  
     827A      8.927917   828A      9.156345   829A      9.172145  
     830A      9.287880   831A      9.400102   832A      9.418486  
     833A      9.476577   834A      9.532725   835A      9.594118  
     836A      9.908030   837A      9.963884   838A     15.865610  
     839A     16.019975   840A     16.418068   841A     16.510866  
     842A     16.703497   843A     16.910112   844A     18.742370  
     845A     19.111376   846A     19.607839   847A     19.700754  
     848A     20.097685   849A     20.112280   850A     20.342049  
     851A     21.737815  

    Final Occupation by Irrep:
              A 
    DOCC [    49 ]

  Energy converged.

  @DF-RHF Final Energy:  -650.55696465901008

   => Energetics <=

    Nuclear Repulsion Energy =            828.6624562750175755
    One-Electron Energy =               -2517.5355361193887802
    Two-Electron Energy =                1038.3161151853612409
    DFT Exchange-Correlation Energy =       0.0000000000000000
    Empirical Dispersion Energy =           0.0000000000000000
    PCM Polarization Energy =               0.0000000000000000
    EFP Energy =                            0.0000000000000000
    Total Energy =                       -650.5569646590099637



Properties will be evaluated at   0.000000,   0.000000,   0.000000 Bohr

Properties computed using the SCF density matrix

  Nuclear Dipole Moment: (a.u.)
     X:     1.2724      Y:    -0.4938      Z:    -6.6414

  Electronic Dipole Moment: (a.u.)
     X:     1.8447      Y:    -1.1459      Z:     4.1962

  Dipole Moment: (a.u.)
     X:     3.1171      Y:    -1.6397      Z:    -2.4452     Total:     4.2876

  Dipole Moment: (Debye)
     X:     7.9229      Y:    -4.1676      Z:    -6.2151     Total:    10.8981


*** tstop() called on gpu-2-4.local at Sat Nov 11 18:25:55 2017
Module time:
	user time   =    1320.26 seconds =      22.00 minutes
	system time =      55.20 seconds =       0.92 minutes
	total time  =        572 seconds =       9.53 minutes
Total time:
	user time   =    1320.27 seconds =      22.00 minutes
	system time =      55.20 seconds =       0.92 minutes
	total time  =        572 seconds =       9.53 minutes

  //>>>>>>>>>>>>>>>>>>>>>>>>>>>>>>>>>>>//
  //               DFMP2               //
  //<<<<<<<<<<<<<<<<<<<<<<<<<<<<<<<<<<<//

   => Loading Basis Set <=

    Name: (AUG-CC-PVTZ AUX)
    Role: RIFIT
    Keyword: DF_BASIS_MP2
    atoms 1-11  entry C          line   147 file /cbio/jclab/home/chayas/anaconda/envs/py35/share/psi4/basis/aug-cc-pvtz-ri.gbs 
    atoms 12    entry N          line   205 file /cbio/jclab/home/chayas/anaconda/envs/py35/share/psi4/basis/aug-cc-pvtz-ri.gbs 
    atoms 13    entry O          line   263 file /cbio/jclab/home/chayas/anaconda/envs/py35/share/psi4/basis/aug-cc-pvtz-ri.gbs 
    atoms 14    entry F          line   321 file /cbio/jclab/home/chayas/anaconda/envs/py35/share/psi4/basis/aug-cc-pvtz-ri.gbs 
    atoms 15-23 entry H          line    29 file /cbio/jclab/home/chayas/anaconda/envs/py35/share/psi4/basis/aug-cc-pvtz-ri.gbs 

	 --------------------------------------------------------
	                          DF-MP2                         
	      2nd-Order Density-Fitted Moller-Plesset Theory     
	              RMP2 Wavefunction,   8 Threads             
	                                                         
	        Rob Parrish, Justin Turney, Andy Simmonett,      
	           Ed Hohenstein, and C. David Sherrill          
	 --------------------------------------------------------

   => Auxiliary Basis Set <=

  Basis Set: (AUG-CC-PVTZ AUX)
    Blend: AUG-CC-PVTZ-RI
    Number of shells: 518
    Number of basis function: 1898
    Number of Cartesian functions: 2399
    Spherical Harmonics?: true
    Max angular momentum: 4

	 --------------------------------------------------------
	                 NBF =   851, NAUX =  1898
	 --------------------------------------------------------
	   CLASS    FOCC     OCC    AOCC    AVIR     VIR    FVIR
	   PAIRS       0      49      49     802     802       0
	 --------------------------------------------------------


         ------------------------------------------------------------
                                     CPHF                           
                                  Rob Parrish                       
         ------------------------------------------------------------

  ==> Geometry <==

    Molecular point group: c1
    Full point group: C1

    Geometry (in Angstrom), charge = 1, multiplicity = 1:

       Center              X                  Y                   Z               Mass       
    ------------   -----------------  -----------------  -----------------  -----------------
           C         -1.338077424542     0.764158749936    -0.788510036988    12.000000000000
           C         -2.416077424542     1.337158749936    -0.115510036988    12.000000000000
           C          0.660922575458    -1.648841250064    -1.414510036988    12.000000000000
           C          2.043922575458     0.227158749936    -0.804510036988    12.000000000000
           C         -1.423077424542     0.721158749936     1.999489963012    12.000000000000
           C          1.749922575458    -2.194841250064    -2.080510036988    12.000000000000
           C          3.096922575458    -0.365841250064    -1.486510036988    12.000000000000
           C         -0.302077424542     0.169158749936    -0.068510036988    12.000000000000
           C          0.814922575458    -0.424841250064    -0.771510036988    12.000000000000
           C         -2.459077424542     1.316158749936     1.278489963012    12.000000000000
           C         -0.345077424542     0.148158749936     1.325489963012    12.000000000000
           N          2.921922575458    -1.545841250064    -2.096510036988    14.003074004780
           O         -3.512077424542     1.876158749936     1.935489963012    15.994914619560
           F          0.642922575458    -0.419841250064     2.032489963012    18.998403224000
           H         -1.319077424542     0.788158749936    -1.875510036988     1.007825032070
           H         -3.221077424542     1.798158749936    -0.682510036988     1.007825032070
           H         -0.286077424542    -2.179841250064    -1.404510036988     1.007825032070
           H          2.191922575458     1.183158749936    -0.311510036988     1.007825032070
           H         -1.451077424542     0.701158749936     3.085489963012     1.007825032070
           H          1.721922575458    -3.138841250064    -2.606510036988     1.007825032070
           H          4.083922575458     0.067158749936    -1.564510036988     1.007825032070
           H          3.708922575458    -1.964841250064    -2.590510036988     1.007825032070
           H         -3.398077424542     1.782158749936     2.894489963012     1.007825032070

  Nuclear repulsion =  828.662456275017576
  Reference energy  = -650.556964659010077

  ==> Basis Set <==

  Basis Set: AUG-CC-PVTZ
    Blend: AUG-CC-PVTZ
    Number of shells: 277
    Number of basis function: 851
    Number of Cartesian functions: 995
    Spherical Harmonics?: true
    Max angular momentum: 3

  ==> CGRSolver (by Rob Parrish) <==

   Number of roots    =         1
   Preconditioning    =    JACOBI
   Convergence cutoff =     1E-06
   Maximum iterations =       100

  ==> CPHFRHamiltonian (by Rob Parrish) <== 

  ==> DFJK: Density-Fitted J/K Matrices <==

    J tasked:                  Yes
    K tasked:                  Yes
    wK tasked:                  No
    OpenMP threads:              8
    Integrals threads:           8
    Memory (MB):              3576
    Algorithm:                Disk
    Integral Cache:           NONE
    Schwarz Cutoff:          1E-12
    Fitting Condition:       1E-12

   => Auxiliary Basis Set <=

  Basis Set: (AUG-CC-PVTZ AUX)
    Blend: AUG-CC-PVTZ-JKFIT
    Number of shells: 546
    Number of basis function: 1870
    Number of Cartesian functions: 2329
    Spherical Harmonics?: true
    Max angular momentum: 4

  ==> CPHF Iterations <==

  => Iterations <=

             Iter  Converged  Remaining    Residual
  CGR           1          0          1   1.187E-01
  CGR           2          0          1   4.672E-02
  CGR           3          0          1   2.740E-02
  CGR           4          0          1   8.909E-03
  CGR           5          0          1   3.564E-03
  CGR           6          0          1   1.396E-03
  CGR           7          0          1   4.437E-04
  CGR           8          0          1   1.839E-04
  CGR           9          0          1   8.185E-05
  CGR          10          0          1   3.530E-05
  CGR          11          0          1   1.493E-05
  CGR          12          0          1   4.835E-06
  CGR          13          0          1   1.778E-06
  CGR          14          1          0   6.542E-07

    CGRSolver converged.

  ==> DFCorrGrad: Density-Fitted Correlated Gradients <==

    OpenMP threads:              8
    Integrals threads:           8
    Memory (MB):              3576
    Schwarz Cutoff:          0E+00
    Fitting Condition:       1E-12

   => Auxiliary Basis Set <=

  Basis Set: (AUG-CC-PVTZ AUX)
    Blend: AUG-CC-PVTZ-JKFIT
    Number of shells: 546
    Number of basis function: 1870
    Number of Cartesian functions: 2329
    Spherical Harmonics?: true
    Max angular momentum: 4

	-----------------------------------------------------------
	 ==================> DF-MP2 Energies <==================== 
	-----------------------------------------------------------
	 Reference Energy          =    -650.5569646590100774 [Eh]
	 Singles Energy            =      -0.0000000000000001 [Eh]
	 Same-Spin Energy          =      -0.6688541126462266 [Eh]
	 Opposite-Spin Energy      =      -2.0140070144369071 [Eh]
	 Correlation Energy        =      -2.6828611270831337 [Eh]
	 Total Energy              =    -653.2398257860932063 [Eh]
	-----------------------------------------------------------
	 ================> DF-SCS-MP2 Energies <================== 
	-----------------------------------------------------------
	 SCS Same-Spin Scale       =       0.3333333333333333 [-]
	 SCS Opposite-Spin Scale   =       1.2000000000000000 [-]
	 SCS Same-Spin Energy      =      -0.2229513708820755 [Eh]
	 SCS Opposite-Spin Energy  =      -2.4168084173242885 [Eh]
	 SCS Correlation Energy    =      -2.6397597882063639 [Eh]
	 SCS Total Energy          =    -653.1967244472164111 [Eh]
	-----------------------------------------------------------


  -Total Gradient:
     Atom            X                  Y                   Z
    ------   -----------------  -----------------  -----------------
       1        0.011730178118    -0.002854531837    -0.010359428526
       2        0.001973151563    -0.001402175224     0.005819398229
       3       -0.012136360895     0.004298479563     0.008808971497
       4       -0.011369835506     0.008004668067     0.006083542386
       5       -0.009681447570     0.005417774981     0.002392803090
       6        0.009177431325     0.006225279276     0.001567626702
       7       -0.003150359170    -0.009415488279    -0.005040549760
       8        0.000812047784    -0.000159897532    -0.006070649725
       9       -0.000760895559     0.000370567875    -0.002189767253
      10       -0.001260816746     0.000948732449    -0.010939439533
      11        0.020832331754    -0.014515200346     0.001060588899
      12        0.002674051194    -0.001108262375    -0.001527907344
      13       -0.005593600551     0.002865055086     0.007077153551
      14       -0.000311797584     0.000006081244     0.004893599774
      15       -0.001647220647     0.000842846182    -0.005749082888
      16       -0.003768826902     0.001839127258    -0.005056119072
      17       -0.004855786887    -0.002945288350    -0.000583688089
      18        0.001239541600     0.005029057987     0.002453114732
      19       -0.001513833046     0.000978420651     0.004774547505
      20        0.000959149335    -0.001783083011    -0.001680819667
      21        0.002321676299    -0.000190123401    -0.000693427818
      22        0.004341948241    -0.002265219286    -0.002750920079
      23       -0.000010726162    -0.000186820970     0.007710453402


*** tstop() called on gpu-2-4.local at Sat Nov 11 19:07:46 2017
Module time:
	user time   =    6548.06 seconds =     109.13 minutes
	system time =     119.12 seconds =       1.99 minutes
	total time  =       3083 seconds =      51.38 minutes
Total time:
	user time   =    6548.07 seconds =     109.13 minutes
	system time =     119.12 seconds =       1.99 minutes
	total time  =       3083 seconds =      51.38 minutes

			-----------------------------------------
			 OPTKING 2.0: for geometry optimizations 
			  - R.A. King,  Bethel University        
			-----------------------------------------

	Internal coordinates to be generated automatically.
	Detected frag 1 with atoms:  1 2 3 4 5 6 7 8 9 10 11 12 13 14 15 16 17 18 19 20
	 21 22 23
	---Fragment 1 Bond Connectivity---
	 1 : 2 8 15
	 2 : 1 10 16
	 3 : 6 9 17
	 4 : 7 9 18
	 5 : 10 11 19
	 6 : 3 12 20
	 7 : 4 12 21
	 8 : 1 9 11
	 9 : 3 4 8
	 10 : 2 5 13
	 11 : 5 8 14
	 12 : 6 7 22
	 13 : 10 23
	 14 : 11
	 15 : 1
	 16 : 2
	 17 : 3
	 18 : 4
	 19 : 5
	 20 : 6
	 21 : 7
	 22 : 12
	 23 : 13

	Assuming in current code that numbering for constraints corresponds to unified fragment.
	Fixed dihedral atom list: 
	     1     8     9     3
	---Fragment 1 Geometry and Gradient---
	 C          -2.5285998770        1.4440507594       -1.4900680229
	 C          -4.5657246482        2.5268638336       -0.2182823355
	 C           1.2489626627       -3.1158583992       -2.6730365821
	 C           3.8624539044        0.4292678261       -1.5203036411
	 C          -2.6892265983        1.3627925357        3.7784884355
	 C           3.3068744214       -4.1476488678       -3.9315941866
	 C           5.8523355224       -0.6913397707       -2.8090968637
	 C          -0.5708436033        0.3196637104       -0.1294652073
	 C           1.5399804871       -0.8028336126       -1.4579426787
	 C          -4.6469828719        2.4871795848        2.4159958937
	 C          -0.6521018270        0.2799794616        2.5048130220
	 N           5.5216334491       -2.9212166075       -3.9618298048
	 O          -6.6368644899        3.5454262192        3.6575459630
	 F           1.2149475923       -0.7933849819        3.8408493979
	 H          -2.4926950805        1.4894041866       -3.5442003294
	 H          -6.0869541852        3.3980275808       -1.2897570529
	 H          -0.5406079852       -4.1193029758       -2.6541393208
	 H           4.1421333721        2.2358460091       -0.5886686576
	 H          -2.7421389300        1.3249980131        5.8307310159
	 H           3.2539620896       -5.9315503372       -4.9255901325
	 H           7.7174952155        0.1269116448       -2.9564955021
	 H           7.0088479157       -3.7130118572       -4.8953545144
	 H          -6.4214357107        3.3677919627        5.4697933245
	             0.0117301781       -0.0028545318       -0.0103594285
	             0.0019731516       -0.0014021752        0.0058193982
	            -0.0121363609        0.0042984796        0.0088089715
	            -0.0113698355        0.0080046681        0.0060835424
	            -0.0096814476        0.0054177750        0.0023928031
	             0.0091774313        0.0062252793        0.0015676267
	            -0.0031503592       -0.0094154883       -0.0050405498
	             0.0008120478       -0.0001598975       -0.0060706497
	            -0.0007608956        0.0003705679       -0.0021897673
	            -0.0012608167        0.0009487324       -0.0109394395
	             0.0208323318       -0.0145152003        0.0010605889
	             0.0026740512       -0.0011082624       -0.0015279073
	            -0.0055936006        0.0028650551        0.0070771536
	            -0.0003117976        0.0000060812        0.0048935998
	            -0.0016472206        0.0008428462       -0.0057490829
	            -0.0037688269        0.0018391273       -0.0050561191
	            -0.0048557869       -0.0029452883       -0.0005836881
	             0.0012395416        0.0050290580        0.0024531147
	            -0.0015138330        0.0009784207        0.0047745475
	             0.0009591493       -0.0017830830       -0.0016808197
	             0.0023216763       -0.0001901234       -0.0006934278
	             0.0043419482       -0.0022652193       -0.0027509201
	            -0.0000107262       -0.0001868210        0.0077104534

	Previous optimization step data not found.  Starting new optimization.

	---Fragment 1 Intrafragment Coordinates---
	 - Coordinate -           - BOHR/RAD -       - ANG/DEG -
	 R(1,2)           =         2.634350	       1.394038
	 R(1,8)           =         2.635962	       1.394891
	 R(1,15)          =         2.054947	       1.087431
	 R(2,10)          =         2.635830	       1.394821
	 R(2,16)          =         2.054537	       1.087214
	 R(3,6)           =         2.623654	       1.388378
	 R(3,9)           =         2.628921	       1.391165
	 R(3,17)          =         2.051785	       1.085758
	 R(4,7)           =         2.622285	       1.387653
	 R(4,9)           =         2.629800	       1.391630
	 R(4,18)          =         2.051801	       1.085767
	 R(5,10)          =         2.636938	       1.395407
	 R(5,11)          =         2.635263	       1.394521
	 R(5,19)          =         2.053272	       1.086545
	 R(6,12)          =         2.531839	       1.339791
	 R(6,20)          =         2.042825	       1.081016
	 R(7,12)          =         2.531898	       1.339823
	 R(7,21)          =         2.042078	       1.080621
	 R(8,9)           =         2.735038	       1.447320
	 R(8,11)          =         2.635830	       1.394821
	 R(10,13)         =         2.573123	       1.361638
	 R(11,14)         =         2.534359	       1.341125
	 R(12,22)         =         1.926192	       1.019297
	 R(13,23)         =         1.833631	       0.970316
	 B(1,2,10)        =         2.094553	     120.009056
	 B(1,2,16)        =         2.088723	     119.675016
	 B(1,8,9)         =         2.091569	     119.838095
	 B(1,8,11)        =         2.093692	     119.959722
	 B(2,1,8)         =         2.094940	     120.031219
	 B(2,1,15)        =         2.079469	     119.144799
	 B(2,10,5)        =         2.094306	     119.994870
	 B(2,10,13)       =         2.094247	     119.991510
	 B(3,6,12)        =         2.095974	     120.090440
	 B(3,6,20)        =         2.160980	     123.815013
	 B(3,9,4)         =         2.093263	     119.935136
	 B(3,9,8)         =         2.094588	     120.011060
	 B(4,7,12)        =         2.095563	     120.066929
	 B(4,7,21)        =         2.161968	     123.871639
	 B(4,9,8)         =         2.095334	     120.053797
	 B(5,10,13)       =         2.094633	     120.013619
	 B(5,11,8)        =         2.095181	     120.045019
	 B(5,11,14)       =         2.081414	     119.256220
	 B(6,3,9)         =         2.072475	     118.744043
	 B(6,3,17)        =         2.090031	     119.749973
	 B(6,12,7)        =         2.135825	     122.373785
	 B(6,12,22)       =         2.073813	     118.820707
	 B(7,4,9)         =         2.073269	     118.789587
	 B(7,4,18)        =         2.089769	     119.734962
	 B(7,12,22)       =         2.073547	     118.805509
	 B(8,1,15)        =         2.108776	     120.823969
	 B(8,11,14)       =         2.106591	     120.698759
	 B(9,3,17)        =         2.120679	     121.505976
	 B(9,4,18)        =         2.120146	     121.475426
	 B(9,8,11)        =         2.097924	     120.202184
	 B(10,2,16)       =         2.099909	     120.315896
	 B(10,5,11)       =         2.093699	     119.960108
	 B(10,5,19)       =         2.100355	     120.341451
	 B(10,13,23)      =         1.924294	     110.253909
	 B(11,5,19)       =         2.089132	     119.698439
	 B(12,6,20)       =         2.026232	     116.094545
	 B(12,7,21)       =         2.025653	     116.061366
	 D(1,2,10,5)      =        -0.000325	      -0.018609
	 D(1,2,10,13)     =         3.141388	     179.988267
	 D(1,8,9,3)       =        -1.309078	     -75.004654
	 D(1,8,9,4)       =         1.833040	     105.025448
	 D(1,8,11,5)      =         0.000325	       0.018608
	 D(1,8,11,14)     =        -3.141528	    -179.996269
	 D(2,1,8,9)       =         3.141277	     179.981897
	 D(2,1,8,11)      =        -0.000348	      -0.019945
	 D(2,10,5,11)     =         0.000301	       0.017261
	 D(2,10,5,19)     =        -3.141029	    -179.967685
	 D(2,10,13,23)    =         3.141285	     179.982383
	 D(3,6,12,7)      =        -0.001016	      -0.058225
	 D(3,6,12,22)     =         3.140523	     179.938708
	 D(3,9,4,7)       =         0.000899	       0.051481
	 D(3,9,4,18)      =         3.141469	     179.992890
	 D(3,9,8,11)      =         1.832547	     104.997192
	 D(4,7,12,6)      =         0.001845	       0.105730
	 D(4,7,12,22)     =        -3.139694	    -179.891204
	 D(4,9,3,6)       =        -0.000100	      -0.005748
	 D(4,9,3,17)      =         3.140890	     179.959756
	 D(4,9,8,11)      =        -1.308521	     -74.972706
	 D(5,10,2,16)     =         3.140149	     179.917291
	 D(5,10,13,23)    =        -0.000187	      -0.010740
	 D(5,11,8,9)      =        -3.141300	    -179.983240
	 D(6,3,9,8)       =        -3.141168	    -179.975682
	 D(6,12,7,21)     =        -3.141316	    -179.984163
	 D(7,4,9,8)       =        -3.141219	    -179.978598
	 D(7,12,6,20)     =         3.140382	     179.930616
	 D(8,1,2,10)      =         0.000348	       0.019955
	 D(8,1,2,16)      =        -3.140133	    -179.916358
	 D(8,9,3,17)      =        -0.000178	      -0.010178
	 D(8,9,4,18)      =        -0.000649	      -0.037189
	 D(8,11,5,10)     =        -0.000301	      -0.017270
	 D(8,11,5,19)     =         3.141030	     179.967774
	 D(9,3,6,12)      =         0.000127	       0.007254
	 D(9,3,6,20)      =        -3.141256	    -179.980683
	 D(9,4,7,12)      =        -0.001753	      -0.100440
	 D(9,4,7,21)      =         3.141537	     179.996818
	 D(9,8,1,15)      =         0.000403	       0.023110
	 D(9,8,11,14)     =         0.000033	       0.001883
	 D(10,2,1,15)     =         3.141234	     179.979432
	 D(10,5,11,14)    =         3.141547	     179.997392
	 D(11,5,10,13)    =        -3.141411	    -179.989616
	 D(11,8,1,15)     =        -3.141221	    -179.978731
	 D(12,6,3,17)     =        -3.140875	    -179.958870
	 D(12,7,4,18)     =         3.140844	     179.957107
	 D(13,10,2,16)    =        -0.001324	      -0.075833
	 D(13,10,5,19)    =         0.000444	       0.025437
	 D(14,11,5,19)    =        -0.000307	      -0.017564
	 D(15,1,2,16)     =         0.000753	       0.043120
	 D(17,3,6,20)     =         0.000928	       0.053193
	 D(18,4,7,21)     =         0.000949	       0.054366
	 D(20,6,12,22)    =        -0.001265	      -0.072452
	 D(21,7,12,22)    =         0.000330	       0.018904
	 R(4,14)          =         6.102961	       3.229548

	Current energy   :      -653.2398257861

	Generating empirical Hessian (Schlegel '84) for each fragment.
	Adding user-defined constraint: Fragment 1; Coordinate 64:
		Value =    -1.309078; Fixed value    =    -1.308997
		Force =     0.000041; Force constant =     0.500000
	Removing off-diagonal coupling between coordinate 64 and others.
	Taking RFO optimization step.
	Going to follow RFO solution 1.
	Using RFO vector 1.

	Determining step-restricting scale parameter for RS-RFO.
	Maximum step size allowed    0.10000

	 Iter      |step|        alpha        rfo_root  
	------------------------------------------------
	    0     0.18355       1.00000           1
	    1     0.14623       4.65913           1
	    2     0.12080      13.87573           1
	    3     0.10529      25.84106           1
	    4     0.10045      31.16588           1
	    5     0.10000      31.70838           1
	------------------------------------------------
	Norm of target step-size    0.10000
	Projected energy change by RFO approximation:        -0.0045199745

	Back-transformation to cartesian coordinates...
	Successfully converged to displaced geometry.
	First geometry is closer to target in internal coordinates, so am using that one.
	First geometry has RMS(Delta(q)) = 1.05e-04

	--- Internal Coordinate Step in ANG or DEG, aJ/ANG or AJ/DEG ---
	 ---------------------------------------------------------------------------
	   Coordinate                Previous        Force       Change         New 
	   ----------                --------       ------       ------       ------
	    1 R(1,2)          =      1.394038    -0.083620    -0.008727     1.385311
	    2 R(1,8)          =      1.394891    -0.015610    -0.001523     1.393368
	    3 R(1,15)         =      1.087431    -0.047262    -0.006128     1.081303
	    4 R(2,10)         =      1.394821    -0.061113    -0.006343     1.388478
	    5 R(2,16)         =      1.087214    -0.051139    -0.006563     1.080651
	    6 R(3,6)          =      1.388378    -0.088029    -0.009095     1.379282
	    7 R(3,9)          =      1.391165     0.020193     0.002123     1.393288
	    8 R(3,17)         =      1.085758    -0.046716    -0.006033     1.079725
	    9 R(4,7)          =      1.387653    -0.087029    -0.008959     1.378695
	   10 R(4,9)          =      1.391630     0.025076     0.002644     1.394274
	   11 R(4,18)         =      1.085767    -0.047050    -0.006076     1.079691
	   12 R(5,10)         =      1.395407    -0.031799    -0.003342     1.392065
	   13 R(5,11)         =      1.394521    -0.125132    -0.013146     1.381375
	   14 R(5,19)         =      1.086545    -0.039490    -0.005002     1.081543
	   15 R(6,12)         =      1.339791     0.010250     0.000957     1.340748
	   16 R(6,20)         =      1.081016    -0.019362    -0.002461     1.078555
	   17 R(7,12)         =      1.339823     0.013123     0.001237     1.341060
	   18 R(7,21)         =      1.080621    -0.017255    -0.002193     1.078428
	   19 R(8,9)          =      1.447320     0.120649     0.014585     1.461905
	   20 R(8,11)         =      1.394821    -0.067588    -0.007192     1.387629
	   21 R(10,13)        =      1.361638    -0.103566    -0.009498     1.352140
	   22 R(11,14)        =      1.341125    -0.016542    -0.001401     1.339725
	   23 R(12,22)        =      1.019297    -0.046275    -0.005048     1.014249
	   24 R(13,23)        =      0.970316    -0.062923    -0.005801     0.964515
	   25 B(1,2,10)       =    120.009056    -0.000148    -0.282329   119.726727
	   26 B(1,2,16)       =    119.675016     0.000240     0.554415   120.229431
	   27 B(1,8,9)        =    119.838095     0.000405     0.789194   120.627288
	   28 B(1,8,11)       =    119.959722    -0.000627    -1.207619   118.752103
	   29 B(2,1,8)        =    120.031219     0.000326     0.684901   120.716120
	   30 B(2,1,15)       =    119.144799    -0.000016     0.020943   119.165743
	   31 B(2,10,5)       =    119.994870     0.000058     0.122820   120.117691
	   32 B(2,10,13)      =    119.991510    -0.000929    -1.792406   118.199105
	   33 B(3,6,12)       =    120.090440    -0.000340    -0.719536   119.370904
	   34 B(3,6,20)       =    123.815013     0.000081     0.140134   123.955147
	   35 B(3,9,4)        =    119.935136    -0.000499    -0.969260   118.965876
	   36 B(3,9,8)        =    120.011060     0.000179     0.355223   120.366283
	   37 B(4,7,12)       =    120.066929    -0.000341    -0.713745   119.353183
	   38 B(4,7,21)       =    123.871639     0.000076     0.122149   123.993788
	   39 B(4,9,8)        =    120.053797     0.000320     0.613960   120.667757
	   40 B(5,10,13)      =    120.013619     0.000871     1.669585   121.683204
	   41 B(5,11,8)       =    120.045019     0.000615     1.162835   121.207854
	   42 B(5,11,14)      =    119.256220    -0.000022    -0.029592   119.226628
	   43 B(6,3,9)        =    118.744043     0.000425     0.859551   119.603594
	   44 B(6,3,17)       =    119.749973    -0.000173    -0.332403   119.417569
	   45 B(6,12,7)       =    122.373785     0.000349     0.714512   123.088297
	   46 B(6,12,22)      =    118.820707    -0.000176    -0.362826   118.457881
	   47 B(7,4,9)        =    118.789587     0.000407     0.828481   119.618068
	   48 B(7,4,18)       =    119.734962    -0.000166    -0.322828   119.412134
	   49 B(7,12,22)      =    118.805509    -0.000172    -0.351692   118.453816
	   50 B(8,1,15)       =    120.823969    -0.000310    -0.705891   120.118078
	   51 B(8,11,14)      =    120.698759    -0.000593    -1.133531   119.565228
	   52 B(9,3,17)       =    121.505976    -0.000253    -0.527185   120.978790
	   53 B(9,4,18)       =    121.475426    -0.000241    -0.505638   120.969787
	   54 B(9,8,11)       =    120.202184     0.000222     0.418281   120.620465
	   55 B(10,2,16)      =    120.315896    -0.000092    -0.272083   120.043813
	   56 B(10,5,11)      =    119.960108    -0.000223    -0.480793   119.479316
	   57 B(10,5,19)      =    120.341451     0.000247     0.575607   120.917058
	   58 B(10,13,23)     =    110.253909    -0.000150    -0.374839   109.879069
	   59 B(11,5,19)      =    119.698439    -0.000024    -0.094813   119.603626
	   60 B(12,6,20)      =    116.094545     0.000259     0.579325   116.673870
	   61 B(12,7,21)      =    116.061366     0.000266     0.591646   116.653012
	   62 D(1,2,10,5)     =     -0.018609     0.000003     0.062227     0.043618
	   63 D(1,2,10,13)    =    179.988267     0.000003     0.064618   180.052885
	   64 D(1,8,9,3)      =    -75.004654     0.000018     0.174557   -74.830097
	   65 D(1,8,9,4)      =    105.025448     0.000018     0.250874   105.276321
	   66 D(1,8,11,5)     =      0.018608     0.000003     0.101376     0.119984
	   67 D(1,8,11,14)    =   -179.996269    -0.000006    -0.081240  -180.077510
	   68 D(2,1,8,9)      =    179.981897     0.000006     0.155831   180.137728
	   69 D(2,1,8,11)     =     -0.019945     0.000003     0.019945     0.000000
	   70 D(2,10,5,11)    =      0.017261     0.000003     0.056956     0.074218
	   71 D(2,10,5,19)    =   -179.967685     0.000003     0.047817  -179.919868
	   72 D(2,10,13,23)   =    179.982383    -0.000001    -0.016775   179.965609
	   73 D(3,6,12,7)     =     -0.058225    -0.000002    -0.024191    -0.082416
	   74 D(3,6,12,22)    =    179.938708    -0.000002    -0.050949   179.887759
	   75 D(3,9,4,7)      =      0.051481    -0.000001     0.009069     0.060550
	   76 D(3,9,4,18)     =    179.992890    -0.000000     0.030482   180.023372
	   77 D(3,9,8,11)     =    104.997192     0.000021     0.312356   105.309547
	   78 D(4,7,12,6)     =      0.105730    -0.000001    -0.033228     0.072501
	   79 D(4,7,12,22)    =   -179.891204    -0.000001    -0.006472  -179.897675
	   80 D(4,9,3,6)      =     -0.005748    -0.000001    -0.064538    -0.070286
	   81 D(4,9,3,17)     =    179.959756    -0.000004    -0.109135   179.850621
	   82 D(4,9,8,11)     =    -74.972706     0.000021     0.388672   -74.584034
	   83 D(5,10,2,16)    =    179.917291     0.000003     0.065224   179.982515
	   84 D(5,10,13,23)   =     -0.010740    -0.000000    -0.014232    -0.024972
	   85 D(5,11,8,9)     =   -179.983240     0.000000    -0.033838  -180.017079
	   86 D(6,3,9,8)      =   -179.975682    -0.000002     0.010018  -179.965663
	   87 D(6,12,7,21)    =   -179.984163     0.000001     0.011676  -179.972487
	   88 D(7,4,9,8)      =   -179.978598    -0.000001    -0.065799  -180.044397
	   89 D(7,12,6,20)    =    179.930616     0.000004     0.084749   180.015365
	   90 D(8,1,2,10)     =      0.019955    -0.000006    -0.101245    -0.081290
	   91 D(8,1,2,16)     =   -179.916358    -0.000006    -0.103713  -180.020071
	   92 D(8,9,3,17)     =     -0.010178    -0.000004    -0.034579    -0.044757
	   93 D(8,9,4,18)     =     -0.037189     0.000000    -0.044386    -0.081575
	   94 D(8,11,5,10)    =     -0.017270    -0.000006    -0.140304    -0.157574
	   95 D(8,11,5,19)    =    179.967774    -0.000006    -0.131184   179.836590
	   96 D(9,3,6,12)     =      0.007254     0.000003     0.072688     0.079942
	   97 D(9,3,6,20)     =   -179.980683    -0.000003    -0.044712  -180.025395
	   98 D(9,4,7,12)     =     -0.100440     0.000003     0.040112    -0.060328
	   99 D(9,4,7,21)     =    179.996818     0.000000    -0.008651   179.988167
	  100 D(9,8,1,15)     =      0.023110    -0.000001     0.025157     0.048268
	  101 D(9,8,11,14)    =      0.001883    -0.000009    -0.216455    -0.214572
	  102 D(10,2,1,15)    =    179.979432     0.000001     0.027896   180.007328
	  103 D(10,5,11,14)   =    179.997392     0.000003     0.041871   180.039263
	  104 D(11,5,10,13)   =   -179.989616     0.000002     0.054237  -179.935379
	  105 D(11,8,1,15)    =   -179.978731    -0.000004    -0.110074  -180.088805
	  106 D(12,6,3,17)    =   -179.958870     0.000005     0.116661  -179.842208
	  107 D(12,7,4,18)    =    179.957107     0.000002     0.019159   179.976266
	  108 D(13,10,2,16)   =     -0.075833     0.000003     0.067614    -0.008219
	  109 D(13,10,5,19)   =      0.025437     0.000002     0.045098     0.070535
	  110 D(14,11,5,19)   =     -0.017564     0.000003     0.050991     0.033427
	  111 D(15,1,2,16)    =      0.043120     0.000001     0.025427     0.068547
	  112 D(17,3,6,20)    =      0.053193    -0.000000    -0.000739     0.052454
	  113 D(18,4,7,21)    =      0.054366    -0.000001    -0.029604     0.024762
	  114 D(20,6,12,22)   =     -0.072452     0.000003     0.057992    -0.014460
	  115 D(21,7,12,22)   =      0.018904     0.000002     0.038433     0.057337
	  116 R(4,14)         =      3.229548    -0.012253    -0.004667     3.224880
	 ---------------------------------------------------------------------------
	Successfully symmetrized geometry.
	 Forces used to impose fixed constraints are not included.
	  Forces zeroed: 64 

  ==> Convergence Check <==

  Measures of convergence in internal coordinates in au.
  Criteria marked as inactive (o), active & met (*), and active & unmet ( ).
  --------------------------------------------------------------------------------------------- ~
   Step     Total Energy     Delta E     MAX Force     RMS Force      MAX Disp      RMS Disp    ~
  --------------------------------------------------------------------------------------------- ~
    Convergence Criteria    1.00e-06 *    3.00e-04 *             o    1.20e-03 *             o  ~
  --------------------------------------------------------------------------------------------- ~
      1    -653.23982579   -6.53e+02      1.52e-02      4.36e-03 o    3.13e-02      9.27e-03 o  ~
  ---------------------------------------------------------------------------------------------

	Writing optimization data to binary file.
	Structure for next step:
	Cartesian Geometry (in Angstrom)
	    C    -1.3541070753   0.7681139121  -0.7687135531
	    C    -2.4241606814   1.3379024449  -0.0983315936
	    C     0.6763690795  -1.6503904007  -1.4231894236
	    C     2.0574517798   0.2165911091  -0.8117762062
	    C    -1.4211492326   0.7217779393   2.0039998877
	    C     1.7528713049  -2.2006470271  -2.0871026677
	    C     3.1084814924  -0.3674387018  -1.4863464902
	    C    -0.3092453677   0.1723629951  -0.0652801093
	    C     0.8204899461  -0.4257063261  -0.7746294543
	    C    -2.4584338384   1.3145799454   1.2895270762
	    C    -0.3597498503   0.1599508587   1.3213744421
	    N     2.9236723819  -1.5473886273  -2.0962685744
	    O    -3.5178987114   1.8787273850   1.9120648629
	    F     0.6354119379  -0.4099204264   2.0140228184
	    H    -1.3366268511   0.7914974811  -1.8496223377
	    H    -3.2301771951   1.7981576762  -0.6517841889
	    H    -0.2661425943  -2.1770560066  -1.4131590167
	    H     2.2052905663   1.1663763918  -0.3200612621
	    H    -1.4352545552   0.6951949770   3.0851240183
	    H     1.7200066699  -3.1428196649  -2.6110410493
	    H     4.0930487609   0.0663566999  -1.5602118464
	    H     3.7065518768  -1.9654610770  -2.5872019566
	    H    -3.4194806081   1.7948896906   2.8678757737
			--------------------------
			 OPTKING Finished Execution 
			--------------------------

    Structure for next step:
    Molecular point group: c1
    Full point group: C1

    Geometry (in Angstrom), charge = 1, multiplicity = 1:

    C           -1.353384652732     0.767173518751    -0.766646859292
    C           -2.423438258900     1.336962051518    -0.096264899787
    C            0.677091502044    -1.651330794052    -1.421122729757
    C            2.058174202371     0.215650715807    -0.809709512359
    C           -1.420426810095     0.720837545913     2.006066581494
    C            1.753593727446    -2.201587420399    -2.085035973841
    C            3.109203914924    -0.368379095149    -1.484279796409
    C           -0.308522945134     0.171422601781    -0.063213415452
    C            0.821212368632    -0.426646719465    -0.772562760428
    C           -2.457711415865     1.313639552103     1.291593770068
    C           -0.359027427718     0.159010465392     1.323441135952
    N            2.924394804490    -1.548329020639    -2.094201880616
    O           -3.517176288818     1.877786991649     1.914131556724
    F            0.636134360460    -0.410860819713     2.016089512204
    H           -1.335904428586     0.790557087748    -1.847555643834
    H           -3.229454772592     1.797217282891    -0.649717495112
    H           -0.265420171768    -2.177996399898    -1.411092322858
    H            2.206012988826     1.165435998498    -0.317994568257
    H           -1.434532132631     0.694254583623     3.087190712118
    H            1.720729092477    -3.143760058261    -2.608974355493
    H            4.093771183414     0.065416306604    -1.558145152574
    H            3.707274299320    -1.966401470319    -2.585135262729
    H           -3.418758185563     1.793949297306     2.869942467486

gradient() will perform analytic gradient computation.

*** tstart() called on gpu-2-4.local
*** at Sat Nov 11 19:07:48 2017

    SCF Algorithm Type (re)set to DF.

*** tstart() called on gpu-2-4.local
*** at Sat Nov 11 19:07:48 2017

   => Loading Basis Set <=

    Name: AUG-CC-PVTZ
    Role: ORBITAL
    Keyword: BASIS
    atoms 1-11  entry C          line   221 file /cbio/jclab/home/chayas/anaconda/envs/py35/share/psi4/basis/aug-cc-pvtz.gbs 
    atoms 12    entry N          line   267 file /cbio/jclab/home/chayas/anaconda/envs/py35/share/psi4/basis/aug-cc-pvtz.gbs 
    atoms 13    entry O          line   313 file /cbio/jclab/home/chayas/anaconda/envs/py35/share/psi4/basis/aug-cc-pvtz.gbs 
    atoms 14    entry F          line   359 file /cbio/jclab/home/chayas/anaconda/envs/py35/share/psi4/basis/aug-cc-pvtz.gbs 
    atoms 15-23 entry H          line    34 file /cbio/jclab/home/chayas/anaconda/envs/py35/share/psi4/basis/aug-cc-pvtz.gbs 


         ---------------------------------------------------------
                                   SCF
            by Justin Turney, Rob Parrish, and Andy Simmonett
                              RHF Reference
                        8 Threads,   4768 MiB Core
         ---------------------------------------------------------

  ==> Geometry <==

    Molecular point group: c1
    Full point group: C1

    Geometry (in Angstrom), charge = 1, multiplicity = 1:

       Center              X                  Y                   Z               Mass       
    ------------   -----------------  -----------------  -----------------  -----------------
           C         -1.353384652732     0.767173518751    -0.766646859292    12.000000000000
           C         -2.423438258900     1.336962051518    -0.096264899787    12.000000000000
           C          0.677091502044    -1.651330794052    -1.421122729757    12.000000000000
           C          2.058174202371     0.215650715807    -0.809709512359    12.000000000000
           C         -1.420426810095     0.720837545913     2.006066581494    12.000000000000
           C          1.753593727446    -2.201587420399    -2.085035973841    12.000000000000
           C          3.109203914924    -0.368379095149    -1.484279796409    12.000000000000
           C         -0.308522945134     0.171422601781    -0.063213415452    12.000000000000
           C          0.821212368632    -0.426646719465    -0.772562760428    12.000000000000
           C         -2.457711415865     1.313639552103     1.291593770068    12.000000000000
           C         -0.359027427718     0.159010465392     1.323441135952    12.000000000000
           N          2.924394804490    -1.548329020639    -2.094201880616    14.003074004780
           O         -3.517176288818     1.877786991649     1.914131556724    15.994914619560
           F          0.636134360460    -0.410860819713     2.016089512204    18.998403224000
           H         -1.335904428586     0.790557087748    -1.847555643834     1.007825032070
           H         -3.229454772592     1.797217282891    -0.649717495112     1.007825032070
           H         -0.265420171768    -2.177996399898    -1.411092322858     1.007825032070
           H          2.206012988826     1.165435998498    -0.317994568257     1.007825032070
           H         -1.434532132631     0.694254583623     3.087190712118     1.007825032070
           H          1.720729092477    -3.143760058261    -2.608974355493     1.007825032070
           H          4.093771183414     0.065416306604    -1.558145152574     1.007825032070
           H          3.707274299320    -1.966401470319    -2.585135262729     1.007825032070
           H         -3.418758185563     1.793949297306     2.869942467486     1.007825032070

  Running in c1 symmetry.

  Rotational constants: A =      0.06355  B =      0.01264  C =      0.01165 [cm^-1]
  Rotational constants: A =   1905.27249  B =    379.00821  C =    349.13844 [MHz]
  Nuclear repulsion =  829.757846433277791

  Charge       = 1
  Multiplicity = 1
  Electrons    = 98
  Nalpha       = 49
  Nbeta        = 49

  ==> Algorithm <==

  SCF Algorithm Type is DF.
  DIIS enabled.
  MOM disabled.
  Fractional occupation disabled.
  Guess Type is READ.
  Energy threshold   = 1.00e-10
  Density threshold  = 1.00e-10
  Integral threshold = 0.00e+00

  ==> Primary Basis <==

  Basis Set: AUG-CC-PVTZ
    Blend: AUG-CC-PVTZ
    Number of shells: 277
    Number of basis function: 851
    Number of Cartesian functions: 995
    Spherical Harmonics?: true
    Max angular momentum: 3

   => Loading Basis Set <=

    Name: (AUG-CC-PVTZ AUX)
    Role: JKFIT
    Keyword: DF_BASIS_SCF
    atoms 1-11  entry C          line   161 file /cbio/jclab/home/chayas/anaconda/envs/py35/share/psi4/basis/aug-cc-pvtz-jkfit.gbs 
    atoms 12    entry N          line   223 file /cbio/jclab/home/chayas/anaconda/envs/py35/share/psi4/basis/aug-cc-pvtz-jkfit.gbs 
    atoms 13    entry O          line   285 file /cbio/jclab/home/chayas/anaconda/envs/py35/share/psi4/basis/aug-cc-pvtz-jkfit.gbs 
    atoms 14    entry F          line   347 file /cbio/jclab/home/chayas/anaconda/envs/py35/share/psi4/basis/aug-cc-pvtz-jkfit.gbs 
    atoms 15-23 entry H          line    69 file /cbio/jclab/home/chayas/anaconda/envs/py35/share/psi4/basis/aug-cc-pvtz-jkfit.gbs 

  Reading orbitals from file 180, no projection.

  ==> Pre-Iterations <==

   -------------------------------------------------------
    Irrep   Nso     Nmo     Nalpha   Nbeta   Ndocc  Nsocc
   -------------------------------------------------------
     A        851     851       0       0       0       0
   -------------------------------------------------------
    Total     851     851      49      49      49       0
   -------------------------------------------------------

  ==> Integral Setup <==

  ==> DFJK: Density-Fitted J/K Matrices <==

    J tasked:                  Yes
    K tasked:                  Yes
    wK tasked:                  No
    OpenMP threads:              8
    Integrals threads:           8
    Memory (MB):              3576
    Algorithm:                Disk
    Integral Cache:           NONE
    Schwarz Cutoff:          1E-12
    Fitting Condition:       1E-12

   => Auxiliary Basis Set <=

  Basis Set: (AUG-CC-PVTZ AUX)
    Blend: AUG-CC-PVTZ-JKFIT
    Number of shells: 546
    Number of basis function: 1870
    Number of Cartesian functions: 2329
    Spherical Harmonics?: true
    Max angular momentum: 4

  Minimum eigenvalue in the overlap matrix is 6.6778133581E-07.
  Using Symmetric Orthogonalization.

  SCF Guess: Orbitals guess was supplied from a previous computation.

  ==> Iterations <==

                           Total Energy        Delta E     RMS |[F,P]|

   @DF-RHF iter   0:  -650.59871430714134   -6.50599e+02   4.38656e-04 
   @DF-RHF iter   1:  -650.56223432549825    3.64800e-02   6.18196e-05 
   @DF-RHF iter   2:  -650.56241325302688   -1.78928e-04   3.69773e-05 DIIS
   @DF-RHF iter   3:  -650.56247797576748   -6.47227e-05   8.17869e-06 DIIS
   @DF-RHF iter   4:  -650.56248300792572   -5.03216e-06   3.41243e-06 DIIS
   @DF-RHF iter   5:  -650.56248434191878   -1.33399e-06   1.32328e-06 DIIS
   @DF-RHF iter   6:  -650.56248465326439   -3.11346e-07   6.07386e-07 DIIS
   @DF-RHF iter   7:  -650.56248476023381   -1.06969e-07   2.71841e-07 DIIS
   @DF-RHF iter   8:  -650.56248478883583   -2.86020e-08   1.06079e-07 DIIS
   @DF-RHF iter   9:  -650.56248479141891   -2.58308e-09   3.97329e-08 DIIS
   @DF-RHF iter  10:  -650.56248479164890   -2.29988e-10   1.21480e-08 DIIS
   @DF-RHF iter  11:  -650.56248479165527   -6.36646e-12   3.24071e-09 DIIS
   @DF-RHF iter  12:  -650.56248479166493   -9.66338e-12   1.53848e-09 DIIS
   @DF-RHF iter  13:  -650.56248479167232   -7.38964e-12   5.22054e-10 DIIS
   @DF-RHF iter  14:  -650.56248479166175    1.05729e-11   2.64988e-10 DIIS
   @DF-RHF iter  15:  -650.56248479169324   -3.14913e-11   1.24756e-10 DIIS
   @DF-RHF iter  16:  -650.56248479169221    1.02318e-12   4.26443e-11 DIIS

  ==> Post-Iterations <==

    Orbital Energies (a.u.)
    -----------------------

    Doubly Occupied:                                                      

       1A    -26.439626     2A    -20.703261     3A    -15.845714  
       4A    -11.490972     5A    -11.490035     6A    -11.463195  
       7A    -11.455674     8A    -11.432617     9A    -11.421726  
      10A    -11.421313    11A    -11.378939    12A    -11.375196  
      13A    -11.356160    14A    -11.347102    15A     -1.759174  
      16A     -1.523751    17A     -1.520982    18A     -1.323555  
      19A     -1.273303    20A     -1.247705    21A     -1.163933  
      22A     -1.151851    23A     -1.073111    24A     -1.064351  
      25A     -0.991295    26A     -0.972186    27A     -0.962771  
      28A     -0.887905    29A     -0.877404    30A     -0.861940  
      31A     -0.854833    32A     -0.825168    33A     -0.822551  
      34A     -0.806374    35A     -0.803841    36A     -0.782492  
      37A     -0.756860    38A     -0.747481    39A     -0.727515  
      40A     -0.717503    41A     -0.706374    42A     -0.687964  
      43A     -0.655326    44A     -0.642922    45A     -0.612452  
      46A     -0.580917    47A     -0.544328    48A     -0.470053  
      49A     -0.445287  

    Virtual:                                                              

      50A     -0.106193    51A     -0.087305    52A     -0.068177  
      53A     -0.063246    54A     -0.059231    55A     -0.051140  
      56A     -0.041558    57A     -0.039779    58A     -0.035047  
      59A     -0.030543    60A     -0.024646    61A     -0.015686  
      62A     -0.011261    63A     -0.010657    64A     -0.005949  
      65A     -0.003005    66A      0.001655    67A      0.008898  
      68A      0.010832    69A      0.013615    70A      0.016414  
      71A      0.017915    72A      0.023988    73A      0.026827  
      74A      0.028933    75A      0.031705    76A      0.032784  
      77A      0.037851    78A      0.040101    79A      0.041343  
      80A      0.044610    81A      0.052445    82A      0.057211  
      83A      0.060291    84A      0.063085    85A      0.067173  
      86A      0.068979    87A      0.076774    88A      0.081835  
      89A      0.086796    90A      0.087960    91A      0.092112  
      92A      0.094572    93A      0.098875    94A      0.101558  
      95A      0.106367    96A      0.116868    97A      0.117454  
      98A      0.126772    99A      0.130408   100A      0.134276  
     101A      0.136319   102A      0.139880   103A      0.143664  
     104A      0.145279   105A      0.151027   106A      0.151748  
     107A      0.160980   108A      0.162158   109A      0.163966  
     110A      0.167897   111A      0.170689   112A      0.173033  
     113A      0.175302   114A      0.182325   115A      0.185016  
     116A      0.189481   117A      0.194717   118A      0.195713  
     119A      0.201029   120A      0.205102   121A      0.208571  
     122A      0.214159   123A      0.215794   124A      0.220416  
     125A      0.224195   126A      0.226770   127A      0.230042  
     128A      0.232675   129A      0.237022   130A      0.244372  
     131A      0.245422   132A      0.249158   133A      0.254685  
     134A      0.255733   135A      0.258571   136A      0.264380  
     137A      0.274186   138A      0.276591   139A      0.280086  
     140A      0.280649   141A      0.283658   142A      0.291297  
     143A      0.293554   144A      0.299959   145A      0.301543  
     146A      0.310021   147A      0.316409   148A      0.319304  
     149A      0.323454   150A      0.325714   151A      0.327755  
     152A      0.331013   153A      0.333879   154A      0.335741  
     155A      0.337888   156A      0.341758   157A      0.344461  
     158A      0.349951   159A      0.352247   160A      0.357485  
     161A      0.358665   162A      0.363288   163A      0.369070  
     164A      0.371383   165A      0.373192   166A      0.376300  
     167A      0.378437   168A      0.384508   169A      0.387140  
     170A      0.393280   171A      0.399930   172A      0.401399  
     173A      0.403645   174A      0.409343   175A      0.410948  
     176A      0.412929   177A      0.416540   178A      0.424635  
     179A      0.427310   180A      0.428780   181A      0.430888  
     182A      0.438135   183A      0.441251   184A      0.447151  
     185A      0.450208   186A      0.453220   187A      0.456025  
     188A      0.466288   189A      0.471914   190A      0.475232  
     191A      0.482753   192A      0.489736   193A      0.492047  
[...]
     128A      0.232945   129A      0.237218   130A      0.244099  
     131A      0.246678   132A      0.250476   133A      0.253495  
     134A      0.254357   135A      0.259594   136A      0.264196  
     137A      0.272415   138A      0.276815   139A      0.278881  
     140A      0.280283   141A      0.285249   142A      0.291702  
     143A      0.293656   144A      0.299517   145A      0.303110  
     146A      0.310446   147A      0.315705   148A      0.320523  
     149A      0.323558   150A      0.325816   151A      0.328823  
     152A      0.330367   153A      0.335549   154A      0.337739  
     155A      0.338112   156A      0.343704   157A      0.346266  
     158A      0.347723   159A      0.353050   160A      0.356458  
     161A      0.359993   162A      0.364102   163A      0.369542  
     164A      0.370907   165A      0.374229   166A      0.376169  
     167A      0.378535   168A      0.382727   169A      0.386721  
     170A      0.393361   171A      0.398158   172A      0.402357  
     173A      0.405126   174A      0.409473   175A      0.411025  
     176A      0.412943   177A      0.417552   178A      0.426477  
     179A      0.427641   180A      0.428380   181A      0.431775  
     182A      0.436535   183A      0.438987   184A      0.448292  
     185A      0.450660   186A      0.453591   187A      0.459178  
     188A      0.464883   189A      0.470327   190A      0.472666  
     191A      0.481290   192A      0.490276   193A      0.491489  
     194A      0.494799   195A      0.501482   196A      0.505070  
     197A      0.518437   198A      0.519851   199A      0.529136  
     200A      0.532338   201A      0.537072   202A      0.547919  
     203A      0.550016   204A      0.558376   205A      0.564949  
     206A      0.572069   207A      0.574707   208A      0.577348  
     209A      0.583595   210A      0.585353   211A      0.592111  
     212A      0.599727   213A      0.603537   214A      0.606318  
     215A      0.612848   216A      0.616682   217A      0.618655  
     218A      0.622186   219A      0.632933   220A      0.634352  
     221A      0.640196   222A      0.643501   223A      0.648603  
     224A      0.656560   225A      0.660221   226A      0.663676  
     227A      0.677724   228A      0.678574   229A      0.686469  
     230A      0.694646   231A      0.700995   232A      0.707347  
     233A      0.711796   234A      0.717333   235A      0.721185  
     236A      0.730052   237A      0.736290   238A      0.745945  
     239A      0.746960   240A      0.751030   241A      0.752656  
     242A      0.763053   243A      0.766508   244A      0.770971  
     245A      0.772160   246A      0.775183   247A      0.780954  
     248A      0.782711   249A      0.785236   250A      0.787078  
     251A      0.794357   252A      0.797387   253A      0.803344  
     254A      0.809733   255A      0.811005   256A      0.818542  
     257A      0.822126   258A      0.825370   259A      0.828363  
     260A      0.835208   261A      0.840447   262A      0.842620  
     263A      0.850616   264A      0.856394   265A      0.861032  
     266A      0.864792   267A      0.869719   268A      0.871229  
     269A      0.877369   270A      0.888062   271A      0.892615  
     272A      0.895343   273A      0.899734   274A      0.907749  
     275A      0.913145   276A      0.917964   277A      0.922062  
     278A      0.928237   279A      0.930565   280A      0.934425  
     281A      0.937722   282A      0.946145   283A      0.947220  
     284A      0.949860   285A      0.951471   286A      0.958939  
     287A      0.964502   288A      0.970831   289A      0.972848  
     290A      0.973898   291A      0.981732   292A      0.983639  
     293A      0.987974   294A      0.990347   295A      0.998985  
     296A      1.002086   297A      1.009446   298A      1.019976  
     299A      1.022380   300A      1.025200   301A      1.027221  
     302A      1.030981   303A      1.038622   304A      1.041204  
     305A      1.045365   306A      1.052278   307A      1.055277  
     308A      1.058006   309A      1.066399   310A      1.068370  
     311A      1.073004   312A      1.079989   313A      1.081728  
     314A      1.088939   315A      1.092804   316A      1.100549  
     317A      1.106694   318A      1.108890   319A      1.112865  
     320A      1.122600   321A      1.125213   322A      1.128087  
     323A      1.132760   324A      1.142351   325A      1.145503  
     326A      1.146061   327A      1.156815   328A      1.163528  
     329A      1.165262   330A      1.175893   331A      1.181148  
     332A      1.200422   333A      1.203606   334A      1.210221  
     335A      1.214942   336A      1.220569   337A      1.229938  
     338A      1.237652   339A      1.240670   340A      1.243267  
     341A      1.250591   342A      1.257836   343A      1.262251  
     344A      1.267191   345A      1.269310   346A      1.278988  
     347A      1.283137   348A      1.287216   349A      1.291470  
     350A      1.300493   351A      1.306469   352A      1.311990  
     353A      1.318634   354A      1.331317   355A      1.335683  
     356A      1.340468   357A      1.351715   358A      1.354676  
     359A      1.365068   360A      1.375425   361A      1.384444  
     362A      1.387856   363A      1.393033   364A      1.405586  
     365A      1.408948   366A      1.412543   367A      1.422461  
     368A      1.425579   369A      1.432122   370A      1.442227  
     371A      1.448066   372A      1.453708   373A      1.458409  
     374A      1.466038   375A      1.478291   376A      1.483628  
     377A      1.491220   378A      1.495575   379A      1.506093  
     380A      1.510304   381A      1.513327   382A      1.524936  
     383A      1.527357   384A      1.538768   385A      1.544037  
     386A      1.546530   387A      1.553924   388A      1.564608  
     389A      1.569002   390A      1.578792   391A      1.590414  
     392A      1.593768   393A      1.605874   394A      1.622036  
     395A      1.630864   396A      1.632519   397A      1.638470  
     398A      1.648778   399A      1.654078   400A      1.661645  
     401A      1.665166   402A      1.672974   403A      1.679295  
     404A      1.690887   405A      1.699828   406A      1.707596  
     407A      1.713569   408A      1.720393   409A      1.731584  
     410A      1.735401   411A      1.743538   412A      1.750861  
     413A      1.759101   414A      1.768804   415A      1.777669  
     416A      1.782819   417A      1.793054   418A      1.795641  
     419A      1.808190   420A      1.811239   421A      1.820036  
     422A      1.823942   423A      1.833690   424A      1.840074  
     425A      1.844747   426A      1.850262   427A      1.863562  
     428A      1.872479   429A      1.875009   430A      1.884533  
     431A      1.896754   432A      1.902355   433A      1.911611  
     434A      1.915827   435A      1.919727   436A      1.922644  
     437A      1.939686   438A      1.945986   439A      1.948080  
     440A      1.960121   441A      1.963664   442A      1.974644  
     443A      1.983993   444A      1.986107   445A      1.999193  
     446A      2.008370   447A      2.020794   448A      2.024600  
     449A      2.032789   450A      2.043251   451A      2.049359  
     452A      2.055667   453A      2.059882   454A      2.065305  
     455A      2.074405   456A      2.076323   457A      2.081867  
     458A      2.096273   459A      2.108851   460A      2.112472  
     461A      2.143080   462A      2.146442   463A      2.154919  
     464A      2.172365   465A      2.178258   466A      2.191810  
     467A      2.199663   468A      2.207686   469A      2.218078  
     470A      2.230697   471A      2.234666   472A      2.242540  
     473A      2.255687   474A      2.256699   475A      2.265346  
     476A      2.280552   477A      2.286480   478A      2.296183  
     479A      2.308834   480A      2.314706   481A      2.329200  
     482A      2.335760   483A      2.351631   484A      2.360216  
     485A      2.375784   486A      2.398606   487A      2.402770  
     488A      2.406644   489A      2.415788   490A      2.426270  
     491A      2.436062   492A      2.453502   493A      2.476597  
     494A      2.483152   495A      2.492841   496A      2.496977  
     497A      2.499762   498A      2.517053   499A      2.524411  
     500A      2.535045   501A      2.545236   502A      2.570364  
     503A      2.583661   504A      2.592909   505A      2.616389  
     506A      2.626421   507A      2.630767   508A      2.647995  
     509A      2.666452   510A      2.694236   511A      2.707963  
     512A      2.718801   513A      2.739087   514A      2.765814  
     515A      2.781729   516A      2.795648   517A      2.813956  
     518A      2.825807   519A      2.842716   520A      2.855646  
     521A      2.897995   522A      2.911360   523A      2.921135  
     524A      2.930659   525A      2.943760   526A      2.952051  
     527A      2.955939   528A      2.971791   529A      3.005115  
     530A      3.018436   531A      3.022028   532A      3.047062  
     533A      3.050395   534A      3.065675   535A      3.071815  
     536A      3.080284   537A      3.087668   538A      3.097179  
     539A      3.124750   540A      3.134021   541A      3.145201  
     542A      3.158631   543A      3.170249   544A      3.183180  
     545A      3.197068   546A      3.202140   547A      3.214887  
     548A      3.232258   549A      3.236995   550A      3.246750  
     551A      3.252364   552A      3.265792   553A      3.271934  
     554A      3.293296   555A      3.298404   556A      3.308518  
     557A      3.319269   558A      3.329545   559A      3.334487  
     560A      3.345357   561A      3.351593   562A      3.356035  
     563A      3.365129   564A      3.368347   565A      3.376602  
     566A      3.384949   567A      3.391323   568A      3.403554  
     569A      3.411084   570A      3.419726   571A      3.427340  
     572A      3.440408   573A      3.442107   574A      3.456586  
     575A      3.465867   576A      3.473839   577A      3.484406  
     578A      3.492873   579A      3.499131   580A      3.513256  
     581A      3.516013   582A      3.529227   583A      3.531884  
     584A      3.537454   585A      3.556710   586A      3.571078  
     587A      3.579691   588A      3.589031   589A      3.598992  
     590A      3.609486   591A      3.613136   592A      3.625643  
     593A      3.627837   594A      3.644757   595A      3.653283  
     596A      3.665223   597A      3.667211   598A      3.675653  
     599A      3.689644   600A      3.695657   601A      3.706295  
     602A      3.711250   603A      3.718916   604A      3.729314  
     605A      3.738726   606A      3.747056   607A      3.748864  
     608A      3.751708   609A      3.768454   610A      3.773968  
     611A      3.782763   612A      3.783424   613A      3.799373  
     614A      3.807623   615A      3.816061   616A      3.820329  
     617A      3.828345   618A      3.845712   619A      3.851988  
     620A      3.858410   621A      3.864056   622A      3.871555  
     623A      3.893505   624A      3.895415   625A      3.900402  
     626A      3.915752   627A      3.923616   628A      3.926499  
     629A      3.937772   630A      3.952500   631A      3.964227  
     632A      3.967786   633A      3.980137   634A      3.985711  
     635A      3.993455   636A      4.002537   637A      4.013193  
     638A      4.020495   639A      4.027404   640A      4.041732  
     641A      4.046892   642A      4.048852   643A      4.061913  
     644A      4.067336   645A      4.078713   646A      4.085841  
     647A      4.091628   648A      4.098703   649A      4.109464  
     650A      4.115627   651A      4.123210   652A      4.135234  
     653A      4.142174   654A      4.157400   655A      4.167099  
     656A      4.176899   657A      4.187778   658A      4.202160  
     659A      4.205766   660A      4.214477   661A      4.223207  
     662A      4.231591   663A      4.235900   664A      4.251134  
     665A      4.256561   666A      4.258737   667A      4.272916  
     668A      4.281317   669A      4.295073   670A      4.296596  
     671A      4.311164   672A      4.314897   673A      4.316152  
     674A      4.329838   675A      4.343000   676A      4.351762  
     677A      4.353801   678A      4.366494   679A      4.377497  
     680A      4.385883   681A      4.394795   682A      4.403207  
     683A      4.418753   684A      4.434722   685A      4.443326  
     686A      4.449249   687A      4.450123   688A      4.460831  
     689A      4.474756   690A      4.478527   691A      4.487339  
     692A      4.497202   693A      4.521524   694A      4.560669  
     695A      4.569786   696A      4.596547   697A      4.597434  
     698A      4.609595   699A      4.618678   700A      4.625626  
     701A      4.640981   702A      4.659454   703A      4.667788  
     704A      4.684385   705A      4.691738   706A      4.703998  
     707A      4.726060   708A      4.735322   709A      4.738217  
     710A      4.754918   711A      4.763446   712A      4.781236  
     713A      4.793845   714A      4.812218   715A      4.820387  
     716A      4.827730   717A      4.837185   718A      4.851573  
     719A      4.859754   720A      4.871134   721A      4.900323  
     722A      4.916968   723A      4.923588   724A      4.933623  
     725A      4.936515   726A      4.946755   727A      4.955532  
     728A      4.957300   729A      4.982688   730A      5.006010  
     731A      5.011296   732A      5.019919   733A      5.024109  
     734A      5.040488   735A      5.051373   736A      5.057153  
     737A      5.058527   738A      5.067586   739A      5.095329  
     740A      5.109684   741A      5.132361   742A      5.171450  
     743A      5.175632   744A      5.184398   745A      5.196694  
     746A      5.219518   747A      5.233662   748A      5.236246  
     749A      5.263590   750A      5.278092   751A      5.280583  
     752A      5.291771   753A      5.326673   754A      5.331833  
     755A      5.351783   756A      5.364070   757A      5.373096  
     758A      5.390778   759A      5.407567   760A      5.423002  
     761A      5.466416   762A      5.483443   763A      5.490831  
     764A      5.502317   765A      5.541881   766A      5.572487  
     767A      5.595395   768A      5.610119   769A      5.630222  
     770A      5.646414   771A      5.659158   772A      5.679923  
     773A      5.696279   774A      5.716423   775A      5.758123  
     776A      5.771506   777A      5.793102   778A      5.829249  
     779A      5.859100   780A      5.908571   781A      5.925228  
     782A      5.967778   783A      5.972703   784A      6.000375  
     785A      6.011565   786A      6.035779   787A      6.060036  
     788A      6.150686   789A      6.177894   790A      6.221970  
     791A      6.236651   792A      6.277530   793A      6.282987  
     794A      6.336634   795A      6.376595   796A      6.417029  
     797A      6.417752   798A      6.467348   799A      6.516635  
     800A      6.552130   801A      6.609594   802A      6.636743  
     803A      6.671245   804A      6.752173   805A      6.767014  
     806A      6.790266   807A      6.833867   808A      6.866468  
     809A      6.911352   810A      6.912038   811A      6.952638  
     812A      6.971984   813A      7.130338   814A      7.168749  
     815A      7.282376   816A      7.321982   817A      7.368789  
     818A      7.437241   819A      7.547030   820A      7.585496  
     821A      7.596410   822A      7.674259   823A      7.898646  
     824A      8.301577   825A      8.573667   826A      8.883070  
     827A      8.934581   828A      9.160422   829A      9.174425  
     830A      9.297075   831A      9.401315   832A      9.426724  
     833A      9.477955   834A      9.540234   835A      9.585970  
     836A      9.915585   837A      9.979908   838A     15.949134  
     839A     16.291740   840A     16.528356   841A     16.635054  
     842A     16.907886   843A     16.941050   844A     18.803260  
     845A     19.196169   846A     19.660242   847A     19.833191  
     848A     20.243080   849A     20.353235   850A     20.466562  
     851A     21.662355  

    Final Occupation by Irrep:
              A 
    DOCC [    49 ]

  Energy converged.

  @DF-RHF Final Energy:  -650.56255725652341

   => Energetics <=

    Nuclear Repulsion Energy =            830.7432824492713053
    One-Electron Energy =               -2521.7242578573800529
    Two-Electron Energy =                1040.4184181515854561
    DFT Exchange-Correlation Energy =       0.0000000000000000
    Empirical Dispersion Energy =           0.0000000000000000
    PCM Polarization Energy =               0.0000000000000000
    EFP Energy =                            0.0000000000000000
    Total Energy =                       -650.5625572565234052



Properties will be evaluated at   0.000000,   0.000000,   0.000000 Bohr

Properties computed using the SCF density matrix

  Nuclear Dipole Moment: (a.u.)
     X:     1.2384      Y:    -0.6120      Z:    -6.1657

  Electronic Dipole Moment: (a.u.)
     X:     1.7489      Y:    -0.9753      Z:     3.9176

  Dipole Moment: (a.u.)
     X:     2.9872      Y:    -1.5873      Z:    -2.2481     Total:     4.0616

  Dipole Moment: (Debye)
     X:     7.5928      Y:    -4.0345      Z:    -5.7140     Total:    10.3237


*** tstop() called on gpu-2-4.local at Sun Nov 12 17:54:49 2017
Module time:
	user time   =    1062.91 seconds =      17.72 minutes
	system time =      42.76 seconds =       0.71 minutes
	total time  =        433 seconds =       7.22 minutes
Total time:
	user time   =  180080.07 seconds =    3001.33 minutes
	system time =    3136.61 seconds =      52.28 minutes
	total time  =      85106 seconds =    1418.43 minutes

  //>>>>>>>>>>>>>>>>>>>>>>>>>>>>>>>>>>>//
  //               DFMP2               //
  //<<<<<<<<<<<<<<<<<<<<<<<<<<<<<<<<<<<//

   => Loading Basis Set <=

    Name: (AUG-CC-PVTZ AUX)
    Role: RIFIT
    Keyword: DF_BASIS_MP2
    atoms 1-11  entry C          line   147 file /cbio/jclab/home/chayas/anaconda/envs/py35/share/psi4/basis/aug-cc-pvtz-ri.gbs 
    atoms 12    entry N          line   205 file /cbio/jclab/home/chayas/anaconda/envs/py35/share/psi4/basis/aug-cc-pvtz-ri.gbs 
    atoms 13    entry O          line   263 file /cbio/jclab/home/chayas/anaconda/envs/py35/share/psi4/basis/aug-cc-pvtz-ri.gbs 
    atoms 14    entry F          line   321 file /cbio/jclab/home/chayas/anaconda/envs/py35/share/psi4/basis/aug-cc-pvtz-ri.gbs 
    atoms 15-23 entry H          line    29 file /cbio/jclab/home/chayas/anaconda/envs/py35/share/psi4/basis/aug-cc-pvtz-ri.gbs 

	 --------------------------------------------------------
	                          DF-MP2                         
	      2nd-Order Density-Fitted Moller-Plesset Theory     
	              RMP2 Wavefunction,   8 Threads             
	                                                         
	        Rob Parrish, Justin Turney, Andy Simmonett,      
	           Ed Hohenstein, and C. David Sherrill          
	 --------------------------------------------------------

   => Auxiliary Basis Set <=

  Basis Set: (AUG-CC-PVTZ AUX)
    Blend: AUG-CC-PVTZ-RI
    Number of shells: 518
    Number of basis function: 1898
    Number of Cartesian functions: 2399
    Spherical Harmonics?: true
    Max angular momentum: 4

	 --------------------------------------------------------
	                 NBF =   851, NAUX =  1898
	 --------------------------------------------------------
	   CLASS    FOCC     OCC    AOCC    AVIR     VIR    FVIR
	   PAIRS       0      49      49     802     802       0
	 --------------------------------------------------------

