
    -----------------------------------------------------------------------
          Psi4: An Open-Source Ab Initio Electronic Structure Package
                               Psi4 1.1 release

                         Git: Rev {HEAD} add49b9 


    R. M. Parrish, L. A. Burns, D. G. A. Smith, A. C. Simmonett,
    A. E. DePrince III, E. G. Hohenstein, U. Bozkaya, A. Yu. Sokolov,
    R. Di Remigio, R. M. Richard, J. F. Gonthier, A. M. James,
    H. R. McAlexander, A. Kumar, M. Saitow, X. Wang, B. P. Pritchard,
    P. Verma, H. F. Schaefer III, K. Patkowski, R. A. King, E. F. Valeev,
    F. A. Evangelista, J. M. Turney, T. D. Crawford, and C. D. Sherrill,
    J. Chem. Theory Comput. in press (2017).
    (doi: 10.1021/acs.jctc.7b00174)

    -----------------------------------------------------------------------


    Psi4 started on: Monday, 13 November 2017 10:56PM

    Process ID:  26878
    PSIDATADIR: /cbio/jclab/home/chayas/anaconda/envs/py35/share/psi4
    Memory:     500.0 MiB
    Threads:    8
    
  ==> Input File <==

--------------------------------------------------------------------------

memory 5 Gb

molecule phepyr {
  symmetry C1
  0 1 
  C      1.885   -1.036   -0.112
  C      0.807   -0.463   0.561
  C      2.921   -1.631   0.608
  C      0.764   -0.484   1.955
  C      2.878   -1.652   2.002
  C      2.888   -0.778   4.860
  C      0.578   -1.443   4.778
  C      2.793   -0.812   6.242
  C      0.586   -1.448   6.164
  C      1.800   -1.079   2.676
  C      1.755   -1.100   4.122
  N      1.667   -1.140   6.915
  H      1.917   -1.021   -1.198
  H      -0.001   -0.002   0.000
  H      3.760   -2.079   0.084
  H      -0.084   -0.033   2.466
  H      3.693   -2.120   2.550
  H      3.824   -0.504   4.384
  H      -0.325   -1.701   4.235
  H      3.648   -0.567   6.864
  H      -0.306   -1.709   6.723
  units Angstrom
}

dih_string = "4 10 11 6 225"
set optking { opt_coordinates = cartesian
              fixed_dihedral = $dih_string
              dynamic_level = 1
              geom_maxiter = 250
              print_trajectory_xyz_file = True }

optimize('MP2/aug-cc-PVTZ')
--------------------------------------------------------------------------

  Memory set to   4.657 GiB by Python driver.
gradient() will perform analytic gradient computation.

*** tstart() called on gpu-2-14.local
*** at Mon Nov 13 22:56:21 2017

    SCF Algorithm Type (re)set to DF.

*** tstart() called on gpu-2-14.local
*** at Mon Nov 13 22:56:21 2017

   => Loading Basis Set <=

    Name: AUG-CC-PVTZ
    Role: ORBITAL
    Keyword: BASIS
    atoms 1-11  entry C          line   221 file /cbio/jclab/home/chayas/anaconda/envs/py35/share/psi4/basis/aug-cc-pvtz.gbs 
    atoms 12    entry N          line   267 file /cbio/jclab/home/chayas/anaconda/envs/py35/share/psi4/basis/aug-cc-pvtz.gbs 
    atoms 13-21 entry H          line    34 file /cbio/jclab/home/chayas/anaconda/envs/py35/share/psi4/basis/aug-cc-pvtz.gbs 


         ---------------------------------------------------------
                                   SCF
            by Justin Turney, Rob Parrish, and Andy Simmonett
                              RHF Reference
                        8 Threads,   4768 MiB Core
         ---------------------------------------------------------

  ==> Geometry <==

    Molecular point group: c1
    Full point group: C1

    Geometry (in Angstrom), charge = 0, multiplicity = 1:

       Center              X                  Y                   Z               Mass       
    ------------   -----------------  -----------------  -----------------  -----------------
           C          0.108711258931     0.053081562273    -3.525965346062    12.000000000000
           C         -0.969288741069     0.626081562273    -2.852965346062    12.000000000000
           C          1.144711258931    -0.541918437727    -2.805965346062    12.000000000000
           C         -1.012288741069     0.605081562273    -1.458965346062    12.000000000000
           C          1.101711258931    -0.562918437727    -1.411965346062    12.000000000000
           C          1.111711258931     0.311081562273     1.446034653938    12.000000000000
           C         -1.198288741069    -0.353918437727     1.364034653938    12.000000000000
           C          1.016711258931     0.277081562273     2.828034653938    12.000000000000
           C         -1.190288741069    -0.358918437727     2.750034653938    12.000000000000
           C          0.023711258931     0.010081562273    -0.737965346062    12.000000000000
           C         -0.021288741069    -0.010918437727     0.708034653938    12.000000000000
           N         -0.109288741069    -0.050918437727     3.501034653938    14.003074004780
           H          0.140711258931     0.068081562273    -4.611965346062     1.007825032070
           H         -1.777288741069     1.087081562273    -3.413965346062     1.007825032070
           H          1.983711258931    -0.989918437727    -3.329965346062     1.007825032070
           H         -1.860288741069     1.056081562273    -0.947965346062     1.007825032070
           H          1.916711258931    -1.030918437727    -0.863965346062     1.007825032070
           H          2.047711258931     0.585081562273     0.970034653938     1.007825032070
           H         -2.101288741069    -0.611918437727     0.821034653938     1.007825032070
           H          1.871711258931     0.522081562273     3.450034653938     1.007825032070
           H         -2.082288741069    -0.619918437727     3.309034653938     1.007825032070

  Running in c1 symmetry.

  Rotational constants: A =      0.09740  B =      0.01861  C =      0.01639 [cm^-1]
  Rotational constants: A =   2920.09251  B =    557.79062  C =    491.38116 [MHz]
  Nuclear repulsion =  606.440516692114443

  Charge       = 0
  Multiplicity = 1
  Electrons    = 82
  Nalpha       = 41
  Nbeta        = 41

  ==> Algorithm <==

  SCF Algorithm Type is DF.
  DIIS enabled.
  MOM disabled.
  Fractional occupation disabled.
  Guess Type is SAD.
  Energy threshold   = 1.00e-10
  Density threshold  = 1.00e-10
  Integral threshold = 0.00e+00

  ==> Primary Basis <==

  Basis Set: AUG-CC-PVTZ
    Blend: AUG-CC-PVTZ
    Number of shells: 249
    Number of basis function: 759
    Number of Cartesian functions: 885
    Spherical Harmonics?: true
    Max angular momentum: 3

   => Loading Basis Set <=

    Name: (AUG-CC-PVTZ AUX)
    Role: JKFIT
    Keyword: DF_BASIS_SCF
    atoms 1-11  entry C          line   161 file /cbio/jclab/home/chayas/anaconda/envs/py35/share/psi4/basis/aug-cc-pvtz-jkfit.gbs 
    atoms 12    entry N          line   223 file /cbio/jclab/home/chayas/anaconda/envs/py35/share/psi4/basis/aug-cc-pvtz-jkfit.gbs 
    atoms 13-21 entry H          line    69 file /cbio/jclab/home/chayas/anaconda/envs/py35/share/psi4/basis/aug-cc-pvtz-jkfit.gbs 

  ==> Pre-Iterations <==

   -------------------------------------------------------
    Irrep   Nso     Nmo     Nalpha   Nbeta   Ndocc  Nsocc
   -------------------------------------------------------
     A        759     759       0       0       0       0
   -------------------------------------------------------
    Total     759     759      41      41      41       0
   -------------------------------------------------------

  ==> Integral Setup <==

  ==> DFJK: Density-Fitted J/K Matrices <==

    J tasked:                  Yes
    K tasked:                  Yes
    wK tasked:                  No
    OpenMP threads:              8
    Integrals threads:           8
    Memory (MB):              3576
    Algorithm:                Core
    Integral Cache:           NONE
    Schwarz Cutoff:          1E-12
    Fitting Condition:       1E-12

   => Auxiliary Basis Set <=

  Basis Set: (AUG-CC-PVTZ AUX)
    Blend: AUG-CC-PVTZ-JKFIT
    Number of shells: 486
    Number of basis function: 1662
    Number of Cartesian functions: 2067
    Spherical Harmonics?: true
    Max angular momentum: 4

  Minimum eigenvalue in the overlap matrix is 4.5693518562E-07.
  Using Symmetric Orthogonalization.

  SCF Guess: Superposition of Atomic Densities via on-the-fly atomic UHF.

  ==> Iterations <==

                           Total Energy        Delta E     RMS |[F,P]|

   @DF-RHF iter   0:  -484.48423189421510   -4.84484e+02   2.41776e-02 
   @DF-RHF iter   1:  -476.11949879023723    8.36473e+00   1.59895e-03 
   @DF-RHF iter   2:  -476.34639140758776   -2.26893e-01   7.93091e-04 DIIS
   @DF-RHF iter   3:  -476.38099804625176   -3.46066e-02   4.16316e-04 DIIS
   @DF-RHF iter   4:  -476.39518567706796   -1.41876e-02   1.25106e-04 DIIS
   @DF-RHF iter   5:  -476.39687990606399   -1.69423e-03   4.46163e-05 DIIS
   @DF-RHF iter   6:  -476.39712806224878   -2.48156e-04   1.62612e-05 DIIS
   @DF-RHF iter   7:  -476.39716113970678   -3.30775e-05   5.93189e-06 DIIS
   @DF-RHF iter   8:  -476.39716647188766   -5.33218e-06   2.86537e-06 DIIS
   @DF-RHF iter   9:  -476.39716827096322   -1.79908e-06   1.36064e-06 DIIS
   @DF-RHF iter  10:  -476.39716896321079   -6.92248e-07   4.83671e-07 DIIS
   @DF-RHF iter  11:  -476.39716902271164   -5.95008e-08   1.66711e-07 DIIS
   @DF-RHF iter  12:  -476.39716902811540   -5.40376e-09   6.41597e-08 DIIS
   @DF-RHF iter  13:  -476.39716902872885   -6.13454e-10   2.67907e-08 DIIS
   @DF-RHF iter  14:  -476.39716902887045   -1.41597e-10   1.39492e-08 DIIS
   @DF-RHF iter  15:  -476.39716902892303   -5.25802e-11   6.31194e-09 DIIS
   @DF-RHF iter  16:  -476.39716902893281   -9.77707e-12   2.41635e-09 DIIS
   @DF-RHF iter  17:  -476.39716902894105   -8.24230e-12   1.04531e-09 DIIS
   @DF-RHF iter  18:  -476.39716902892201    1.90425e-11   4.24085e-10 DIIS
   @DF-RHF iter  19:  -476.39716902896475   -4.27463e-11   2.02165e-10 DIIS
   @DF-RHF iter  20:  -476.39716902892320    4.15525e-11   8.51061e-11 DIIS

  ==> Post-Iterations <==

    Orbital Energies (a.u.)
    -----------------------

    Doubly Occupied:                                                      

       1A    -15.564655     2A    -11.275245     3A    -11.275186  
       4A    -11.263673     5A    -11.251290     6A    -11.246516  
       7A    -11.246381     8A    -11.245304     9A    -11.245132  
      10A    -11.243934    11A    -11.238479    12A    -11.238434  
      13A     -1.250308    14A     -1.174237    15A     -1.107248  
      16A     -1.037110    17A     -1.024136    18A     -1.015958  
      19A     -0.881453    20A     -0.864721    21A     -0.829243  
      22A     -0.805799    23A     -0.731613    24A     -0.682087  
      25A     -0.670656    26A     -0.660902    27A     -0.631072  
      28A     -0.628518    29A     -0.603637    30A     -0.593755  
      31A     -0.578407    32A     -0.542937    33A     -0.525935  
      34A     -0.510813    35A     -0.506669    36A     -0.500119  
      37A     -0.419288    38A     -0.397338    39A     -0.350486  
      40A     -0.347081    41A     -0.325885  

    Virtual:                                                              

      42A      0.025174    43A      0.029641    44A      0.032632  
      45A      0.038354    46A      0.043493    47A      0.045863  
      48A      0.052736    49A      0.055561    50A      0.060708  
      51A      0.074386    52A      0.083516    53A      0.087551  
      54A      0.092405    55A      0.095389    56A      0.098664  
      57A      0.102256    58A      0.105758    59A      0.109872  
      60A      0.111790    61A      0.114694    62A      0.114864  
      63A      0.120626    64A      0.120983    65A      0.127126  
      66A      0.129560    67A      0.132535    68A      0.132895  
      69A      0.136557    70A      0.144374    71A      0.144881  
      72A      0.147192    73A      0.151402    74A      0.152060  
      75A      0.155624    76A      0.159544    77A      0.167071  
      78A      0.172069    79A      0.177544    80A      0.180838  
      81A      0.183224    82A      0.190257    83A      0.202789  
      84A      0.206217    85A      0.218512    86A      0.224817  
      87A      0.226168    88A      0.233676    89A      0.235946  
      90A      0.236314    91A      0.242529    92A      0.247049  
      93A      0.250370    94A      0.255142    95A      0.259510  
      96A      0.267425    97A      0.269325    98A      0.270382  
      99A      0.272554   100A      0.279868   101A      0.283238  
     102A      0.289898   103A      0.294230   104A      0.296988  
     105A      0.297198   106A      0.301695   107A      0.306117  
     108A      0.310991   109A      0.318083   110A      0.321359  
     111A      0.322318   112A      0.325414   113A      0.333214  
     114A      0.333419   115A      0.337862   116A      0.347131  
     117A      0.349486   118A      0.360409   119A      0.363063  
     120A      0.368457   121A      0.369198   122A      0.374892  
     123A      0.378954   124A      0.385552   125A      0.394096  
     126A      0.400173   127A      0.410734   128A      0.410943  
     129A      0.414578   130A      0.421649   131A      0.429902  
     132A      0.434403   133A      0.436961   134A      0.440447  
     135A      0.440787   136A      0.445202   137A      0.446015  
     138A      0.448689   139A      0.464109   140A      0.466367  
     141A      0.471642   142A      0.472214   143A      0.477498  
     144A      0.477641   145A      0.480957   146A      0.481338  
     147A      0.483853   148A      0.484509   149A      0.496027  
     150A      0.496201   151A      0.500248   152A      0.506714  
     153A      0.510084   154A      0.513280   155A      0.515287  
     156A      0.516743   157A      0.522842   158A      0.524223  
     159A      0.526057   160A      0.529103   161A      0.531568  
     162A      0.536067   163A      0.540501   164A      0.544156  
     165A      0.548842   166A      0.552417   167A      0.553433  
     168A      0.560895   169A      0.564407   170A      0.574054  
     171A      0.581893   172A      0.582287   173A      0.585855  
     174A      0.595712   175A      0.601577   176A      0.604490  
     177A      0.611798   178A      0.619819   179A      0.629390  
     180A      0.635333   181A      0.638173   182A      0.647868  
     183A      0.664284   184A      0.672650   185A      0.674303  
     186A      0.674648   187A      0.686952   188A      0.693856  
     189A      0.696768   190A      0.702720   191A      0.710523  
     192A      0.710707   193A      0.713043   194A      0.715500  
     195A      0.723700   196A      0.725649   197A      0.729968  
     198A      0.746952   199A      0.748195   200A      0.749325  
     201A      0.753210   202A      0.755702   203A      0.763149  
     204A      0.772312   205A      0.777554   206A      0.789922  
     207A      0.799598   208A      0.802812   209A      0.812060  
     210A      0.816205   211A      0.826341   212A      0.835238  
     213A      0.835750   214A      0.842985   215A      0.848917  
     216A      0.859284   217A      0.861647   218A      0.865951  
     219A      0.867760   220A      0.878706   221A      0.880812  
     222A      0.882920   223A      0.886020   224A      0.890445  
     225A      0.891974   226A      0.894476   227A      0.901740  
     228A      0.912966   229A      0.916840   230A      0.917978  
     231A      0.926238   232A      0.926817   233A      0.935457  
     234A      0.942175   235A      0.945100   236A      0.945915  
     237A      0.949013   238A      0.951580   239A      0.957079  
     240A      0.961096   241A      0.969256   242A      0.982193  
     243A      0.984486   244A      0.987015   245A      0.996101  
     246A      0.999216   247A      1.001133   248A      1.008481  
     249A      1.010948   250A      1.018892   251A      1.022748  
     252A      1.027512   253A      1.029760   254A      1.041605  
     255A      1.043098   256A      1.047386   257A      1.057183  
     258A      1.064044   259A      1.068452   260A      1.071653  
     261A      1.074915   262A      1.075108   263A      1.077233  
     264A      1.079594   265A      1.083994   266A      1.089846  
     267A      1.095697   268A      1.101023   269A      1.105372  
     270A      1.109851   271A      1.123111   272A      1.124893  
     273A      1.131524   274A      1.131821   275A      1.140436  
     276A      1.148833   277A      1.149381   278A      1.151383  
     279A      1.159954   280A      1.161024   281A      1.170987  
     282A      1.173508   283A      1.175517   284A      1.179345  
     285A      1.183802   286A      1.188703   287A      1.197306  
     288A      1.205725   289A      1.211202   290A      1.212228  
     291A      1.216337   292A      1.224322   293A      1.225532  
     294A      1.238862   295A      1.241735   296A      1.246239  
     297A      1.251817   298A      1.259361   299A      1.260566  
     300A      1.263313   301A      1.282971   302A      1.284469  
     303A      1.286813   304A      1.292987   305A      1.293215  
     306A      1.314316   307A      1.315895   308A      1.321083  
     309A      1.323146   310A      1.340463   311A      1.342509  
     312A      1.347716   313A      1.356343   314A      1.370083  
     315A      1.374404   316A      1.383388   317A      1.384961  
     318A      1.393706   319A      1.407918   320A      1.411092  
     321A      1.415571   322A      1.424834   323A      1.435791  
     324A      1.443951   325A      1.451316   326A      1.456545  
     327A      1.465853   328A      1.475542   329A      1.491318  
     330A      1.494285   331A      1.503271   332A      1.503693  
     333A      1.517403   334A      1.517770   335A      1.531963  
     336A      1.534849   337A      1.555387   338A      1.570257  
     339A      1.571690   340A      1.581902   341A      1.582286  
     342A      1.590703   343A      1.600910   344A      1.604382  
     345A      1.620829   346A      1.627174   347A      1.641079  
     348A      1.649939   349A      1.657476   350A      1.659167  
     351A      1.671075   352A      1.675728   353A      1.692140  
     354A      1.694643   355A      1.710489   356A      1.713658  
     357A      1.713941   358A      1.725980   359A      1.726607  
     360A      1.733252   361A      1.742014   362A      1.745794  
     363A      1.748888   364A      1.759072   365A      1.765099  
     366A      1.773200   367A      1.783050   368A      1.805002  
     369A      1.811594   370A      1.817980   371A      1.819525  
     372A      1.825547   373A      1.833295   374A      1.846143  
     375A      1.848413   376A      1.856066   377A      1.882487  
     378A      1.882717   379A      1.899740   380A      1.904941  
     381A      1.912082   382A      1.915252   383A      1.930560  
     384A      1.931137   385A      1.938277   386A      1.951159  
     387A      1.953743   388A      1.969167   389A      1.969542  
     390A      1.992177   391A      1.994567   392A      1.999522  
     393A      2.004005   394A      2.011715   395A      2.017470  
     396A      2.019426   397A      2.022418   398A      2.029470  
     399A      2.036265   400A      2.049719   401A      2.055224  
     402A      2.066343   403A      2.071667   404A      2.072495  
     405A      2.088011   406A      2.092484   407A      2.096125  
     408A      2.110262   409A      2.118628   410A      2.127692  
     411A      2.129131   412A      2.137900   413A      2.149355  
     414A      2.157301   415A      2.169325   416A      2.173304  
     417A      2.175422   418A      2.197214   419A      2.203610  
     420A      2.206571   421A      2.207442   422A      2.218841  
     423A      2.242155   424A      2.258086   425A      2.260520  
     426A      2.267914   427A      2.286968   428A      2.290093  
     429A      2.310088   430A      2.313848   431A      2.338211  
     432A      2.339547   433A      2.340928   434A      2.351663  
     435A      2.357969   436A      2.364922   437A      2.369359  
     438A      2.373139   439A      2.390155   440A      2.396481  
     441A      2.414010   442A      2.416573   443A      2.424702  
     444A      2.434335   445A      2.462811   446A      2.474937  
     447A      2.475900   448A      2.502574   449A      2.520568  
     450A      2.521459   451A      2.536808   452A      2.544620  
     453A      2.569904   454A      2.571962   455A      2.574661  
     456A      2.579083   457A      2.607260   458A      2.612139  
     459A      2.636202   460A      2.639775   461A      2.645982  
     462A      2.662564   463A      2.717149   464A      2.731086  
     465A      2.764426   466A      2.769012   467A      2.772964  
     468A      2.776454   469A      2.803887   470A      2.807158  
     471A      2.829811   472A      2.855690   473A      2.864813  
     474A      2.871168   475A      2.887550   476A      2.967391  
     477A      2.975725   478A      3.006142   479A      3.065975  
     480A      3.066546   481A      3.086098   482A      3.130829  
     483A      3.180181   484A      3.188512   485A      3.192495  
     486A      3.203656   487A      3.208841   488A      3.227375  
     489A      3.230581   490A      3.248344   491A      3.272261  
     492A      3.282434   493A      3.300529   494A      3.336567  
     495A      3.345702   496A      3.347757   497A      3.364235  
     498A      3.369706   499A      3.375169   500A      3.382180  
     501A      3.397426   502A      3.401343   503A      3.422254  
     504A      3.435213   505A      3.437263   506A      3.441196  
     507A      3.445084   508A      3.450063   509A      3.468177  
     510A      3.477715   511A      3.491001   512A      3.493784  
     513A      3.500261   514A      3.511326   515A      3.534020  
     516A      3.536807   517A      3.537135   518A      3.544259  
     519A      3.553687   520A      3.566436   521A      3.569037  
     522A      3.581199   523A      3.582385   524A      3.590101  
     525A      3.592493   526A      3.609618   527A      3.618654  
     528A      3.623225   529A      3.644079   530A      3.660482  
     531A      3.669566   532A      3.672050   533A      3.689854  
     534A      3.693476   535A      3.697640   536A      3.721163  
     537A      3.725956   538A      3.729524   539A      3.751923  
     540A      3.754729   541A      3.780771   542A      3.782474  
     543A      3.787277   544A      3.800905   545A      3.817852  
     546A      3.823006   547A      3.824436   548A      3.837824  
     549A      3.841592   550A      3.851086   551A      3.856749  
     552A      3.861975   553A      3.865992   554A      3.885521  
     555A      3.890986   556A      3.897768   557A      3.917551  
     558A      3.927944   559A      3.929566   560A      3.938892  
     561A      3.943719   562A      3.947450   563A      3.947762  
     564A      3.976526   565A      3.992588   566A      3.995967  
     567A      4.010138   568A      4.011136   569A      4.023724  
     570A      4.025421   571A      4.028057   572A      4.029928  
     573A      4.038047   574A      4.057317   575A      4.058056  
     576A      4.070789   577A      4.081831   578A      4.089672  
     579A      4.105604   580A      4.111567   581A      4.128672  
     582A      4.135448   583A      4.139976   584A      4.146391  
     585A      4.155377   586A      4.155546   587A      4.169339  
     588A      4.174193   589A      4.191483   590A      4.203552  
     591A      4.214584   592A      4.222038   593A      4.233155  
     594A      4.234698   595A      4.254628   596A      4.272497  
     597A      4.274265   598A      4.305864   599A      4.310630  
     600A      4.315547   601A      4.317697   602A      4.334007  
     603A      4.339732   604A      4.346503   605A      4.359431  
     606A      4.361967   607A      4.371652   608A      4.380677  
     609A      4.387732   610A      4.392537   611A      4.416122  
     612A      4.419195   613A      4.432132   614A      4.439591  
     615A      4.446368   616A      4.448379   617A      4.454943  
     618A      4.471134   619A      4.489494   620A      4.498013  
     621A      4.500998   622A      4.505221   623A      4.518091  
     624A      4.520225   625A      4.527815   626A      4.533246  
     627A      4.549087   628A      4.592023   629A      4.595069  
     630A      4.618528   631A      4.636520   632A      4.660988  
     633A      4.674276   634A      4.693564   635A      4.710966  
     636A      4.715052   637A      4.734170   638A      4.741354  
     639A      4.749728   640A      4.759056   641A      4.768833  
     642A      4.773196   643A      4.806781   644A      4.813195  
     645A      4.830669   646A      4.866262   647A      4.875232  
     648A      4.885636   649A      4.907029   650A      4.920475  
     651A      4.955946   652A      4.957897   653A      4.972492  
     654A      4.975464   655A      4.988913   656A      4.992221  
     657A      5.001237   658A      5.029425   659A      5.032019  
     660A      5.042086   661A      5.047234   662A      5.061600  
     663A      5.065219   664A      5.083814   665A      5.096803  
     666A      5.102282   667A      5.117808   668A      5.125505  
     669A      5.155185   670A      5.161212   671A      5.162521  
     672A      5.166640   673A      5.176887   674A      5.180746  
     675A      5.198292   676A      5.199203   677A      5.223008  
     678A      5.228490   679A      5.232853   680A      5.243717  
     681A      5.278762   682A      5.287552   683A      5.323690  
     684A      5.332146   685A      5.339521   686A      5.347786  
     687A      5.358732   688A      5.380299   689A      5.382596  
     690A      5.401032   691A      5.426062   692A      5.450850  
     693A      5.461006   694A      5.461808   695A      5.482821  
     696A      5.490344   697A      5.519236   698A      5.519527  
     699A      5.556883   700A      5.576966   701A      5.589897  
     702A      5.652061   703A      5.661103   704A      5.701727  
     705A      5.750265   706A      5.755941   707A      5.773192  
     708A      5.791222   709A      5.795288   710A      5.820968  
     711A      5.830232   712A      5.860136   713A      5.863268  
     714A      5.880952   715A      5.910554   716A      5.979873  
     717A      5.999485   718A      6.081745   719A      6.141702  
     720A      6.173646   721A      6.191469   722A      6.227324  
     723A      6.254613   724A      6.256362   725A      6.291242  
     726A      6.303390   727A      6.364332   728A      6.369351  
     729A      6.411732   730A      6.484735   731A      6.511635  
     732A      6.560382   733A      6.590794   734A      6.622399  
     735A      6.703238   736A      6.716962   737A      6.733781  
     738A      6.782074   739A      6.873486   740A      6.902270  
     741A      6.931357   742A      7.008184   743A      7.031629  
     744A      7.093282   745A      7.177690   746A      7.350793  
     747A      7.431674   748A     15.615173   749A     16.234709  
     750A     16.583347   751A     16.691818   752A     18.418638  
     753A     18.727032   754A     18.997310   755A     19.238566  
     756A     19.945835   757A     20.117704   758A     20.227622  
     759A     21.981070  

    Final Occupation by Irrep:
              A 
    DOCC [    41 ]

  Energy converged.

  @DF-RHF Final Energy:  -476.39716902892320

   => Energetics <=

    Nuclear Repulsion Energy =            606.4405166921144428
    One-Electron Energy =               -1846.6120881461304180
    Two-Electron Energy =                 763.7744024250928305
    DFT Exchange-Correlation Energy =       0.0000000000000000
    Empirical Dispersion Energy =           0.0000000000000000
    PCM Polarization Energy =               0.0000000000000000
    EFP Energy =                            0.0000000000000000
    Total Energy =                       -476.3971690289231447



Properties will be evaluated at   0.000000,   0.000000,   0.000000 Bohr

Properties computed using the SCF density matrix

  Nuclear Dipole Moment: (a.u.)
     X:     0.1310      Y:     0.0618      Z:    -4.3391

  Electronic Dipole Moment: (a.u.)
     X:    -0.0973      Y:    -0.0469      Z:     3.2334

  Dipole Moment: (a.u.)
     X:     0.0337      Y:     0.0149      Z:    -1.1057     Total:     1.1063

  Dipole Moment: (Debye)
     X:     0.0856      Y:     0.0378      Z:    -2.8104     Total:     2.8119


*** tstop() called on gpu-2-14.local at Mon Nov 13 23:01:20 2017
Module time:
	user time   =     896.27 seconds =      14.94 minutes
	system time =       8.08 seconds =       0.13 minutes
	total time  =        299 seconds =       4.98 minutes
Total time:
	user time   =     896.27 seconds =      14.94 minutes
	system time =       8.08 seconds =       0.13 minutes
	total time  =        299 seconds =       4.98 minutes

  //>>>>>>>>>>>>>>>>>>>>>>>>>>>>>>>>>>>//
  //               DFMP2               //
  //<<<<<<<<<<<<<<<<<<<<<<<<<<<<<<<<<<<//

   => Loading Basis Set <=

    Name: (AUG-CC-PVTZ AUX)
    Role: RIFIT
    Keyword: DF_BASIS_MP2
    atoms 1-11  entry C          line   147 file /cbio/jclab/home/chayas/anaconda/envs/py35/share/psi4/basis/aug-cc-pvtz-ri.gbs 
    atoms 12    entry N          line   205 file /cbio/jclab/home/chayas/anaconda/envs/py35/share/psi4/basis/aug-cc-pvtz-ri.gbs 
    atoms 13-21 entry H          line    29 file /cbio/jclab/home/chayas/anaconda/envs/py35/share/psi4/basis/aug-cc-pvtz-ri.gbs 

	 --------------------------------------------------------
	                          DF-MP2                         
	      2nd-Order Density-Fitted Moller-Plesset Theory     
	              RMP2 Wavefunction,   8 Threads             
	                                                         
	        Rob Parrish, Justin Turney, Andy Simmonett,      
	           Ed Hohenstein, and C. David Sherrill          
	 --------------------------------------------------------

   => Auxiliary Basis Set <=

  Basis Set: (AUG-CC-PVTZ AUX)
    Blend: AUG-CC-PVTZ-RI
    Number of shells: 462
    Number of basis function: 1686
    Number of Cartesian functions: 2127
    Spherical Harmonics?: true
    Max angular momentum: 4

	 --------------------------------------------------------
	                 NBF =   759, NAUX =  1686
	 --------------------------------------------------------
	   CLASS    FOCC     OCC    AOCC    AVIR     VIR    FVIR
	   PAIRS       0      41      41     718     718       0
	 --------------------------------------------------------


         ------------------------------------------------------------
                                     CPHF                           
                                  Rob Parrish                       
         ------------------------------------------------------------

  ==> Geometry <==

    Molecular point group: c1
    Full point group: C1

    Geometry (in Angstrom), charge = 0, multiplicity = 1:

       Center              X                  Y                   Z               Mass       
    ------------   -----------------  -----------------  -----------------  -----------------
           C          0.108711258931     0.053081562273    -3.525965346062    12.000000000000
           C         -0.969288741069     0.626081562273    -2.852965346062    12.000000000000
           C          1.144711258931    -0.541918437727    -2.805965346062    12.000000000000
           C         -1.012288741069     0.605081562273    -1.458965346062    12.000000000000
           C          1.101711258931    -0.562918437727    -1.411965346062    12.000000000000
           C          1.111711258931     0.311081562273     1.446034653938    12.000000000000
           C         -1.198288741069    -0.353918437727     1.364034653938    12.000000000000
           C          1.016711258931     0.277081562273     2.828034653938    12.000000000000
           C         -1.190288741069    -0.358918437727     2.750034653938    12.000000000000
           C          0.023711258931     0.010081562273    -0.737965346062    12.000000000000
           C         -0.021288741069    -0.010918437727     0.708034653938    12.000000000000
           N         -0.109288741069    -0.050918437727     3.501034653938    14.003074004780
           H          0.140711258931     0.068081562273    -4.611965346062     1.007825032070
           H         -1.777288741069     1.087081562273    -3.413965346062     1.007825032070
           H          1.983711258931    -0.989918437727    -3.329965346062     1.007825032070
           H         -1.860288741069     1.056081562273    -0.947965346062     1.007825032070
           H          1.916711258931    -1.030918437727    -0.863965346062     1.007825032070
           H          2.047711258931     0.585081562273     0.970034653938     1.007825032070
           H         -2.101288741069    -0.611918437727     0.821034653938     1.007825032070
           H          1.871711258931     0.522081562273     3.450034653938     1.007825032070
           H         -2.082288741069    -0.619918437727     3.309034653938     1.007825032070

  Nuclear repulsion =  606.440516692114443
  Reference energy  = -476.397169028923201

  ==> Basis Set <==

  Basis Set: AUG-CC-PVTZ
    Blend: AUG-CC-PVTZ
    Number of shells: 249
    Number of basis function: 759
    Number of Cartesian functions: 885
    Spherical Harmonics?: true
    Max angular momentum: 3

  ==> CGRSolver (by Rob Parrish) <==

   Number of roots    =         1
   Preconditioning    =    JACOBI
   Convergence cutoff =     1E-06
   Maximum iterations =       100

  ==> CPHFRHamiltonian (by Rob Parrish) <== 

  ==> DFJK: Density-Fitted J/K Matrices <==

    J tasked:                  Yes
    K tasked:                  Yes
    wK tasked:                  No
    OpenMP threads:              8
    Integrals threads:           8
    Memory (MB):              3576
    Algorithm:                Core
    Integral Cache:           NONE
    Schwarz Cutoff:          1E-12
    Fitting Condition:       1E-12

   => Auxiliary Basis Set <=

  Basis Set: (AUG-CC-PVTZ AUX)
    Blend: AUG-CC-PVTZ-JKFIT
    Number of shells: 486
    Number of basis function: 1662
    Number of Cartesian functions: 2067
    Spherical Harmonics?: true
    Max angular momentum: 4

  ==> CPHF Iterations <==

  => Iterations <=

             Iter  Converged  Remaining    Residual
  CGR           1          0          1   8.233E-02
  CGR           2          0          1   3.100E-02
  CGR           3          0          1   2.139E-02
  CGR           4          0          1   9.045E-03
  CGR           5          0          1   2.570E-03
  CGR           6          0          1   9.308E-04
  CGR           7          0          1   3.945E-04
  CGR           8          0          1   1.515E-04
  CGR           9          0          1   7.809E-05
  CGR          10          0          1   3.375E-05
  CGR          11          0          1   7.994E-06
  CGR          12          0          1   3.026E-06
  CGR          13          1          0   8.283E-07

    CGRSolver converged.

  ==> DFCorrGrad: Density-Fitted Correlated Gradients <==

    OpenMP threads:              8
    Integrals threads:           8
    Memory (MB):              3576
    Schwarz Cutoff:          0E+00
    Fitting Condition:       1E-12

   => Auxiliary Basis Set <=

  Basis Set: (AUG-CC-PVTZ AUX)
    Blend: AUG-CC-PVTZ-JKFIT
    Number of shells: 486
    Number of basis function: 1662
    Number of Cartesian functions: 2067
    Spherical Harmonics?: true
    Max angular momentum: 4

	-----------------------------------------------------------
	 ==================> DF-MP2 Energies <==================== 
	-----------------------------------------------------------
	 Reference Energy          =    -476.3971690289232015 [Eh]
	 Singles Energy            =      -0.0000000000000004 [Eh]
	 Same-Spin Energy          =      -0.5349276941265176 [Eh]
	 Opposite-Spin Energy      =      -1.6428912261562685 [Eh]
	 Correlation Energy        =      -2.1778189202827867 [Eh]
	 Total Energy              =    -478.5749879492059904 [Eh]
	-----------------------------------------------------------
	 ================> DF-SCS-MP2 Energies <================== 
	-----------------------------------------------------------
	 SCS Same-Spin Scale       =       0.3333333333333333 [-]
	 SCS Opposite-Spin Scale   =       1.2000000000000000 [-]
	 SCS Same-Spin Energy      =      -0.1783092313755059 [Eh]
	 SCS Opposite-Spin Energy  =      -1.9714694713875220 [Eh]
	 SCS Correlation Energy    =      -2.1497787027630282 [Eh]
	 SCS Total Energy          =    -478.5469477316862026 [Eh]
	-----------------------------------------------------------


  -Total Gradient:
     Atom            X                  Y                   Z
    ------   -----------------  -----------------  -----------------
       1       -0.000428628019     0.000407081543     0.000256339062
       2       -0.000486233623     0.000867149564    -0.001628965497
       3        0.001471038550    -0.001121454015    -0.001448308410
       4        0.002358851419     0.001418258516     0.009640321569
       5       -0.003515652603    -0.001321947411     0.009586325743
       6        0.002659250083     0.003072011452    -0.008587641062
       7       -0.002751558625    -0.003192129655    -0.008884403908
       8        0.007896423750     0.002891043023    -0.010726289179
       9       -0.007327493791    -0.002626443865    -0.010487268510
      10        0.000321200342    -0.000577465612     0.007532599542
      11        0.000080285842     0.000196613147     0.003395032616
      12       -0.000711988098    -0.000280196770     0.016822391344
      13        0.000086545533     0.000027969213    -0.005066240344
      14       -0.003802119193     0.001713029525    -0.002545842257
      15        0.003676034132    -0.001712558156    -0.002226956179
      16       -0.006013118099     0.002104688497     0.000495653408
      17        0.005911870901    -0.002125608608     0.000775910223
      18        0.005120533076     0.000528292423    -0.000248356495
      19       -0.004793996797    -0.000358447460    -0.000627346328
      20        0.002015646232     0.000313111103     0.002219177393
      21       -0.001766891015    -0.000222996456     0.001753867264


*** tstop() called on gpu-2-14.local at Mon Nov 13 23:22:44 2017
Module time:
	user time   =    3956.19 seconds =      65.94 minutes
	system time =      28.72 seconds =       0.48 minutes
	total time  =       1583 seconds =      26.38 minutes
Total time:
	user time   =    3956.19 seconds =      65.94 minutes
	system time =      28.72 seconds =       0.48 minutes
	total time  =       1583 seconds =      26.38 minutes

			-----------------------------------------
			 OPTKING 2.0: for geometry optimizations 
			  - R.A. King,  Bethel University        
			-----------------------------------------
	At level 1: Red. Int., RFO, no backsteps, dynamic trust

	Internal coordinates to be generated automatically.
	Detected frag 1 with atoms:  1 2 3 4 5 6 7 8 9 10 11 12 13 14 15 16 17 18 19 20
	 21
	---Fragment 1 Bond Connectivity---
	 1 : 2 3 13
	 2 : 1 4 14
	 3 : 1 5 15
	 4 : 2 10 16
	 5 : 3 10 17
	 6 : 8 11 18
	 7 : 9 11 19
	 8 : 6 12 20
	 9 : 7 12 21
	 10 : 4 5 11
	 11 : 6 7 10
	 12 : 8 9
	 13 : 1
	 14 : 2
	 15 : 3
	 16 : 4
	 17 : 5
	 18 : 6
	 19 : 7
	 20 : 8
	 21 : 9

	Assuming in current code that numbering for constraints corresponds to unified fragment.
	Fixed dihedral atom list: 
	     4    10    11     6
	---Fragment 1 Geometry and Gradient---
	 C           0.2054345069        0.1003096154       -6.6631088581
	 C          -1.8316902643        1.1831226895       -5.3913231707
	 C           2.1631907806       -1.0240774337       -5.3025060424
	 C          -1.9129484880        1.1434384408       -2.7570449414
	 C           2.0819325569       -1.0637616825       -2.6682278132
	 C           2.1008298182        0.5878589577        2.7326094746
	 C          -2.2644375487       -0.6688089207        2.5776519317
	 C           1.9213058356        0.5236082692        5.3442109903
	 C          -2.2493197397       -0.6782575513        5.1968123519
	 C           0.0448077856        0.0190513917       -1.3945523996
	 C          -0.0402298903       -0.0206328571        1.3379915885
	 N          -0.2065257900       -0.0962219024        6.6159966777
	 H           0.2659057432        0.1286555074       -8.7153514384
	 H          -3.3585889797        2.0542864368       -6.4514595312
	 H           3.7486710061       -1.8706747412       -6.2927225361
	 H          -3.5154362487        1.9957049267       -1.7913948875
	 H           3.6220593552       -1.9481535126       -1.6326578924
	 H           3.8696134786        1.1056439181        1.8330998354
	 H          -3.9708602467       -1.1563582630        1.5515306416
	 H           3.5370216792        0.9865911717        6.5196206449
	 H          -3.9349554502       -1.1714760720        6.2531692602
	            -0.0004286280        0.0004070815        0.0002563391
	            -0.0004862336        0.0008671496       -0.0016289655
	             0.0014710385       -0.0011214540       -0.0014483084
	             0.0023588514        0.0014182585        0.0096403216
	            -0.0035156526       -0.0013219474        0.0095863257
	             0.0026592501        0.0030720115       -0.0085876411
	            -0.0027515586       -0.0031921297       -0.0088844039
	             0.0078964238        0.0028910430       -0.0107262892
	            -0.0073274938       -0.0026264439       -0.0104872685
	             0.0003212003       -0.0005774656        0.0075325995
	             0.0000802858        0.0001966131        0.0033950326
	            -0.0007119881       -0.0002801968        0.0168223913
	             0.0000865455        0.0000279692       -0.0050662403
	            -0.0038021192        0.0017130295       -0.0025458423
	             0.0036760341       -0.0017125582       -0.0022269562
	            -0.0060131181        0.0021046885        0.0004956534
	             0.0059118709       -0.0021256086        0.0007759102
	             0.0051205331        0.0005282924       -0.0002483565
	            -0.0047939968       -0.0003584475       -0.0006273463
	             0.0020156462        0.0003131111        0.0022191774
	            -0.0017668910       -0.0002229965        0.0017538673

	Previous optimization step data not found.  Starting new optimization.

	---Fragment 1 Intrafragment Coordinates---
	 - Coordinate -           - BOHR/RAD -       - ANG/DEG -
	 R(1,2)           =         2.634350	       1.394038
	 R(1,3)           =         2.635962	       1.394891
	 R(1,13)          =         2.053329	       1.086575
	 R(2,4)           =         2.635830	       1.394821
	 R(2,14)          =         2.052860	       1.086327
	 R(3,5)           =         2.635830	       1.394821
	 R(3,15)          =         2.052073	       1.085910
	 R(4,10)          =         2.636938	       1.395407
	 R(4,16)          =         2.055920	       1.087946
	 R(5,10)          =         2.635263	       1.394521
	 R(5,17)          =         2.055856	       1.087912
	 R(6,8)           =         2.618553	       1.385679
	 R(6,11)          =         2.626663	       1.389970
	 R(6,18)          =         2.050808	       1.085241
	 R(7,9)           =         2.619221	       1.386032
	 R(7,11)          =         2.627544	       1.390437
	 R(7,19)          =         2.050002	       1.084814
	 R(8,12)          =         2.555249	       1.352179
	 R(8,20)          =         2.050970	       1.085327
	 R(9,12)          =         2.554576	       1.351823
	 R(9,21)          =         2.049518	       1.084558
	 R(10,11)         =         2.734155	       1.446852
	 B(1,2,4)         =         2.094553	     120.009056
	 B(1,2,14)        =         2.094726	     120.018942
	 B(1,3,5)         =         2.093692	     119.959722
	 B(1,3,15)        =         2.095250	     120.048965
	 B(2,1,3)         =         2.094940	     120.031219
	 B(2,1,13)        =         2.093950	     119.974480
	 B(2,4,10)        =         2.094306	     119.994870
	 B(2,4,16)        =         2.079681	     119.156970
	 B(3,1,13)        =         2.094293	     119.994160
	 B(3,5,10)        =         2.095181	     120.045019
	 B(3,5,17)        =         2.079222	     119.130634
	 B(4,2,14)        =         2.093904	     119.971849
	 B(4,10,5)        =         2.093699	     119.960108
	 B(4,10,11)       =         2.093804	     119.966144
	 B(5,3,15)        =         2.094242	     119.991253
	 B(5,10,11)       =         2.095682	     120.073736
	 B(6,8,12)        =         2.164502	     124.016826
	 B(6,8,20)        =         2.108343	     120.799141
	 B(6,11,7)        =         2.090532	     119.778637
	 B(6,11,10)       =         2.096613	     120.127071
	 B(7,9,12)        =         2.164370	     124.009252
	 B(7,9,21)        =         2.107757	     120.765559
	 B(7,11,10)       =         2.096041	     120.094287
	 B(8,6,11)        =         2.057788	     117.902556
	 B(8,6,18)        =         2.097600	     120.183648
	 B(8,12,9)        =         2.031597	     116.401926
	 B(9,7,11)        =         2.057582	     117.890764
	 B(9,7,19)        =         2.099578	     120.296938
	 B(10,4,16)       =         2.109198	     120.848149
	 B(10,5,17)       =         2.108782	     120.824331
	 B(11,6,18)       =         2.127794	     121.913595
	 B(11,7,19)       =         2.126026	     121.812295
	 B(12,8,20)       =         2.010340	     115.183989
	 B(12,9,21)       =         2.011059	     115.225180
	 D(1,2,4,10)      =        -0.000325	      -0.018609
	 D(1,2,4,16)      =        -3.141283	    -179.982244
	 D(1,3,5,10)      =         0.000325	       0.018608
	 D(1,3,5,17)      =         3.141117	     179.972749
	 D(2,1,3,5)       =        -0.000348	      -0.019945
	 D(2,1,3,15)      =         3.139689	     179.890913
	 D(2,4,10,5)      =         0.000301	       0.017261
	 D(2,4,10,11)     =         3.141198	     179.977407
	 D(3,1,2,4)       =         0.000348	       0.019955
	 D(3,1,2,14)      =        -3.138767	    -179.838124
	 D(3,5,10,4)      =        -0.000301	      -0.017270
	 D(3,5,10,11)     =        -3.141198	    -179.977373
	 D(4,2,1,13)      =         3.139559	     179.883471
	 D(4,10,5,17)     =        -3.141080	    -179.970623
	 D(4,10,11,6)     =        -2.356578	    -135.021951
	 D(4,10,11,7)     =         0.785476	      45.004468
	 D(5,3,1,13)      =        -3.139558	    -179.883434
	 D(5,10,4,16)     =         3.141248	     179.980271
	 D(5,10,11,6)     =         0.784319	      44.938149
	 D(5,10,11,7)     =        -2.356813	    -135.035432
	 D(6,8,12,9)      =        -0.000176	      -0.010077
	 D(6,11,7,9)      =         0.000762	       0.043662
	 D(6,11,7,19)     =        -3.140450	    -179.934516
	 D(7,9,12,8)      =        -0.000393	      -0.022516
	 D(7,11,6,8)      =        -0.001272	      -0.072877
	 D(7,11,6,18)     =        -3.140023	    -179.910071
	 D(8,6,11,10)     =         3.140780	     179.953459
	 D(8,12,9,21)     =         3.140578	     179.941878
	 D(9,7,11,10)     =        -3.141290	    -179.982665
	 D(9,12,8,20)     =         3.140095	     179.914219
	 D(10,4,2,14)     =         3.138792	     179.839537
	 D(10,5,3,15)     =        -3.139713	    -179.892302
	 D(10,11,6,18)    =         0.002029	       0.116264
	 D(10,11,7,19)    =         0.000683	       0.039158
	 D(11,6,8,12)     =         0.001003	       0.057488
	 D(11,6,8,20)     =        -3.139197	    -179.862756
	 D(11,7,9,12)     =         0.000097	       0.005535
	 D(11,7,9,21)     =        -3.140842	    -179.956979
	 D(11,10,4,16)    =        -0.001040	      -0.059583
	 D(11,10,5,17)    =         0.001209	       0.069274
	 D(12,8,6,18)     =         3.139806	     179.897615
	 D(12,9,7,19)     =         3.141314	     179.984057
	 D(13,1,2,14)     =         0.000443	       0.025392
	 D(13,1,3,15)     =         0.000479	       0.027424
	 D(14,2,4,16)     =        -0.002166	      -0.124098
	 D(15,3,5,17)     =         0.001079	       0.061840
	 D(18,6,8,20)     =        -0.000395	      -0.022629
	 D(19,7,9,21)     =         0.000376	       0.021544

	Current energy   :      -478.5749879492

	Using model Hessian from Lindh (1995).
	 - Coordinate -           - BOHR/RAD -       - ANG/DEG -
	 R(1,2)           =         2.634350	       1.394038
	 R(1,3)           =         2.635962	       1.394891
	 R(1,13)          =         2.053329	       1.086575
	 R(2,4)           =         2.635830	       1.394821
	 R(2,14)          =         2.052860	       1.086327
	 R(3,5)           =         2.635830	       1.394821
	 R(3,15)          =         2.052073	       1.085910
	 R(4,10)          =         2.636938	       1.395407
	 R(4,16)          =         2.055920	       1.087946
	 R(5,10)          =         2.635263	       1.394521
	 R(5,17)          =         2.055856	       1.087912
	 R(6,8)           =         2.618553	       1.385679
	 R(6,11)          =         2.626663	       1.389970
	 R(6,18)          =         2.050808	       1.085241
	 R(7,9)           =         2.619221	       1.386032
	 R(7,11)          =         2.627544	       1.390437
	 R(7,19)          =         2.050002	       1.084814
	 R(8,12)          =         2.555249	       1.352179
	 R(8,20)          =         2.050970	       1.085327
	 R(9,12)          =         2.554576	       1.351823
	 R(9,21)          =         2.049518	       1.084558
	 R(10,11)         =         2.734155	       1.446852
	 R(12,20)         =         3.898194	       2.062836
	 R(12,21)         =         3.897307	       2.062366
	 B(1,2,4)         =         2.094553	     120.009056
	 B(1,2,14)        =         2.094726	     120.018942
	 B(1,3,5)         =         2.093692	     119.959722
	 B(1,3,15)        =         2.095250	     120.048965
	 B(2,1,3)         =         2.094940	     120.031219
	 B(2,1,13)        =         2.093950	     119.974480
	 B(2,4,10)        =         2.094306	     119.994870
	 B(2,4,16)        =         2.079681	     119.156970
	 B(3,1,13)        =         2.094293	     119.994160
	 B(3,5,10)        =         2.095181	     120.045019
	 B(3,5,17)        =         2.079222	     119.130634
	 B(4,2,14)        =         2.093904	     119.971849
	 B(4,10,5)        =         2.093699	     119.960108
	 B(4,10,11)       =         2.093804	     119.966144
	 B(5,3,15)        =         2.094242	     119.991253
	 B(5,10,11)       =         2.095682	     120.073736
	 B(6,8,12)        =         2.164502	     124.016826
	 B(6,8,20)        =         2.108343	     120.799141
	 B(6,11,7)        =         2.090532	     119.778637
	 B(6,11,10)       =         2.096613	     120.127071
	 B(7,9,12)        =         2.164370	     124.009252
	 B(7,9,21)        =         2.107757	     120.765559
	 B(7,11,10)       =         2.096041	     120.094287
	 B(8,6,11)        =         2.057788	     117.902556
	 B(8,6,18)        =         2.097600	     120.183648
	 B(8,12,9)        =         2.031597	     116.401926
	 B(8,12,20)       =         0.496240	      28.432447
	 B(8,12,21)       =         2.527393	     144.808951
	 B(8,20,12)       =         0.635013	      36.383564
	 B(9,7,11)        =         2.057582	     117.890764
	 B(9,7,19)        =         2.099578	     120.296938
	 B(9,12,20)       =         2.527836	     144.834326
	 B(9,12,21)       =         0.495796	      28.407047
	 B(9,21,12)       =         0.634737	      36.367774
	 B(10,4,16)       =         2.109198	     120.848149
	 B(10,5,17)       =         2.108782	     120.824331
	 B(11,6,18)       =         2.127794	     121.913595
	 B(11,7,19)       =         2.126026	     121.812295
	 B(12,8,20)       =         2.010340	     115.183989
	 B(12,9,21)       =         2.011059	     115.225180
	 B(20,12,21)      =         3.023632	     173.241369
	 D(1,2,4,10)      =        -0.000325	      -0.018609
	 D(1,2,4,16)      =        -3.141283	    -179.982244
	 D(1,3,5,10)      =         0.000325	       0.018608
	 D(1,3,5,17)      =         3.141117	     179.972749
	 D(2,1,3,5)       =        -0.000348	      -0.019945
	 D(2,1,3,15)      =         3.139689	     179.890913
	 D(2,4,10,5)      =         0.000301	       0.017261
	 D(2,4,10,11)     =         3.141198	     179.977407
	 D(3,1,2,4)       =         0.000348	       0.019955
	 D(3,1,2,14)      =        -3.138767	    -179.838124
	 D(3,5,10,4)      =        -0.000301	      -0.017270
	 D(3,5,10,11)     =        -3.141198	    -179.977373
	 D(4,2,1,13)      =         3.139559	     179.883471
	 D(4,10,5,17)     =        -3.141080	    -179.970623
	 D(4,10,11,6)     =        -2.356578	    -135.021951
	 D(4,10,11,7)     =         0.785476	      45.004468
	 D(5,3,1,13)      =        -3.139558	    -179.883434
	 D(5,10,4,16)     =         3.141248	     179.980271
	 D(5,10,11,6)     =         0.784319	      44.938149
	 D(5,10,11,7)     =        -2.356813	    -135.035432
	 D(6,8,12,9)      =        -0.000176	      -0.010077
	 D(6,8,12,20)     =        -3.140271	    -179.924296
	 D(6,8,12,21)     =         0.000662	       0.037902
	 D(6,8,20,12)     =         3.140318	     179.926948
	 D(6,11,7,9)      =         0.000762	       0.043662
	 D(6,11,7,19)     =        -3.140450	    -179.934516
	 D(7,9,12,8)      =        -0.000393	      -0.022516
	 D(7,9,12,20)     =         0.000845	       0.048398
	 D(7,9,12,21)     =        -3.140971	    -179.964394
	 D(7,9,21,12)     =         3.140993	     179.965650
	 D(7,11,6,8)      =        -0.001272	      -0.072877
	 D(7,11,6,18)     =        -3.140023	    -179.910071
	 D(8,6,11,10)     =         3.140780	     179.953459
	 D(8,12,9,21)     =         3.140578	     179.941878
	 D(8,12,21,9)     =        -0.001577	      -0.090334
	 D(8,20,12,9)     =        -0.002328	      -0.133406
	 D(8,20,12,21)    =        -0.003231	      -0.185115
	 D(9,7,11,10)     =        -3.141290	    -179.982665
	 D(9,12,8,20)     =         3.140095	     179.914219
	 D(9,21,12,20)    =         0.001093	       0.062601
	 D(10,4,2,14)     =         3.138792	     179.839537
	 D(10,5,3,15)     =        -3.139713	    -179.892302
	 D(10,11,6,18)    =         0.002029	       0.116264
	 D(10,11,7,19)    =         0.000683	       0.039158
	 D(11,6,8,12)     =         0.001003	       0.057488
	 D(11,6,8,20)     =        -3.139197	    -179.862756
	 D(11,7,9,12)     =         0.000097	       0.005535
	 D(11,7,9,21)     =        -3.140842	    -179.956979
	 D(11,10,4,16)    =        -0.001040	      -0.059583
	 D(11,10,5,17)    =         0.001209	       0.069274
	 D(12,8,6,18)     =         3.139806	     179.897615
	 D(12,9,7,19)     =         3.141314	     179.984057
	 D(13,1,2,14)     =         0.000443	       0.025392
	 D(13,1,3,15)     =         0.000479	       0.027424
	 D(14,2,4,16)     =        -0.002166	      -0.124098
	 D(15,3,5,17)     =         0.001079	       0.061840
	 D(18,6,8,20)     =        -0.000395	      -0.022629
	 D(19,7,9,21)     =         0.000376	       0.021544
	 D(20,8,12,21)    =         3.140933	     179.962198
	 D(20,12,9,21)    =        -3.141369	    -179.987208

	Adding user-defined constraint: Fragment 1; Coordinate 71:
		Value =    -2.356578; Fixed value    =    -2.356194
		Force =     0.000192; Force constant =     0.500000
	Removing off-diagonal coupling between coordinate 71 and others.
	Taking RFO optimization step.
	Going to follow RFO solution 1.
	Using RFO vector 1.

	Determining step-restricting scale parameter for RS-RFO.
	Maximum step size allowed    0.10000

	 Iter      |step|        alpha        rfo_root  
	------------------------------------------------
	    0     0.18230       1.00000           1
	    1     0.13419       3.37994           1
	    2     0.11163       6.28078           1
	    3     0.10244       8.55209           1
	    4     0.10016       9.31296           1
	    5     0.10000       9.36871           1
	------------------------------------------------
	Norm of target step-size    0.10000
	Projected energy change by RFO approximation:        -0.0032236949

	Back-transformation to cartesian coordinates...
	Could not converge backtransformation.
	Using first guess instead.

	--- Internal Coordinate Step in ANG or DEG, aJ/ANG or AJ/DEG ---
	 ---------------------------------------------------------------------------
	   Coordinate                Previous        Force       Change         New 
	   ----------                --------       ------       ------       ------
	    1 R(1,2)          =      1.394038    -0.046881    -0.004597     1.389441
	    2 R(1,3)          =      1.394891    -0.052390    -0.005140     1.389751
	    3 R(1,13)         =      1.086575    -0.041741    -0.005200     1.081375
	    4 R(2,4)          =      1.394821    -0.052202    -0.004957     1.389864
	    5 R(2,14)         =      1.086327    -0.040120    -0.004973     1.081354
	    6 R(3,5)          =      1.394821    -0.052193    -0.004970     1.389851
	    7 R(3,15)         =      1.085910    -0.038074    -0.004740     1.081170
	    8 R(4,10)         =      1.395407    -0.016357    -0.001340     1.394068
	    9 R(4,16)         =      1.087946    -0.047721    -0.005888     1.082058
	   10 R(5,10)         =      1.394521    -0.011302    -0.000824     1.393697
	   11 R(5,17)         =      1.087912    -0.047241    -0.005838     1.082074
	   12 R(6,8)          =      1.385679     0.002158     0.000194     1.385873
	   13 R(6,11)         =      1.389970    -0.004429     0.000369     1.390339
	   14 R(6,18)         =      1.085241    -0.038382    -0.004732     1.080509
	   15 R(7,9)          =      1.386032    -0.000022    -0.000021     1.386011
	   16 R(7,11)         =      1.390437    -0.007135     0.000215     1.390652
	   17 R(7,19)         =      1.084814    -0.036166    -0.004442     1.080372
	   18 R(8,12)         =      1.352179    -0.122178    -0.010761     1.341419
	   19 R(8,20)         =      1.085327    -0.024143    -0.002872     1.082455
	   20 R(9,12)         =      1.351823    -0.120013    -0.010579     1.341245
	   21 R(9,21)         =      1.084558    -0.019862    -0.002365     1.082193
	   22 R(10,11)        =      1.446852     0.126707     0.013891     1.460744
	   23 B(1,2,4)        =    120.009056     0.000039     0.051009   120.060066
	   24 B(1,2,14)       =    120.018942    -0.000017    -0.021352   119.997591
	   25 B(1,3,5)        =    119.959722     0.000048     0.071434   120.031156
	   26 B(1,3,15)       =    120.048965    -0.000024    -0.034537   120.014429
	   27 B(2,1,3)        =    120.031219    -0.000052    -0.205303   119.825916
	   28 B(2,1,13)       =    119.974480     0.000028     0.111117   120.085598
	   29 B(2,4,10)       =    119.994870     0.000194     0.501993   120.496863
	   30 B(2,4,16)       =    119.156970     0.000097     0.312864   119.469834
	   31 B(3,1,13)       =    119.994160     0.000023     0.094326   120.088486
	   32 B(3,5,10)       =    120.045019     0.000187     0.482771   120.527790
	   33 B(3,5,17)       =    119.130634     0.000101     0.323253   119.453887
	   34 B(4,2,14)       =    119.971849    -0.000021    -0.029964   119.941886
	   35 B(4,10,5)       =    119.960108    -0.000416    -0.902450   119.057658
	   36 B(4,10,11)      =    119.966144     0.000220     0.486640   120.452784
	   37 B(5,3,15)       =    119.991253    -0.000024    -0.037383   119.953870
	   38 B(5,10,11)      =    120.073736     0.000196     0.414823   120.488559
	   39 B(6,8,12)       =    124.016826     0.000006    -0.086452   123.930374
	   40 B(6,8,20)       =    120.799141    -0.000055    -0.110543   120.688598
	   41 B(6,11,7)       =    119.778637    -0.000979    -1.999107   117.779530
	   42 B(6,11,10)      =    120.127071     0.000486     0.983168   121.110239
	   43 B(7,9,12)       =    124.009252     0.000011    -0.083359   123.925894
	   44 B(7,9,21)       =    120.765559    -0.000052    -0.097280   120.668279
	   45 B(7,11,10)      =    120.094287     0.000494     1.015242   121.109529
	   46 B(8,6,11)       =    117.902556     0.000419     1.108305   119.010861
	   47 B(8,6,18)       =    120.183648    -0.000053    -0.114008   120.069640
	   48 B(8,12,9)       =    116.401926     0.000119    -0.053814   116.348112
	   49 B(9,7,11)       =    117.890764     0.000424     1.114329   119.005093
	   50 B(9,7,19)       =    120.296938    -0.000071    -0.158032   120.138905
	   51 B(10,4,16)      =    120.848149    -0.000292    -0.820740   120.027409
	   52 B(10,5,17)      =    120.824331    -0.000287    -0.812161   120.012170
	   53 B(11,6,18)      =    121.913595    -0.000366    -0.999613   120.913981
	   54 B(11,7,19)      =    121.812295    -0.000353    -0.961315   120.850980
	   55 B(12,8,20)      =    115.183989     0.000048     0.195031   115.379020
	   56 B(12,9,21)      =    115.225180     0.000041     0.179142   115.404321
	   57 D(1,2,4,10)     =     -0.018609     0.000002     0.142403     0.123794
	   58 D(1,2,4,16)     =   -179.982244    -0.000009    -0.776805  -180.759048
	   59 D(1,3,5,10)     =      0.018608     0.000003     0.226701     0.245308
	   60 D(1,3,5,17)     =    179.972749    -0.000008    -0.629665   179.343084
	   61 D(2,1,3,5)      =     -0.019945    -0.000001    -0.045132    -0.065077
	   62 D(2,1,3,15)     =    179.890913    -0.000003    -0.224690   179.666223
	   63 D(2,4,10,5)     =      0.017261    -0.000000     0.036633     0.053895
	   64 D(2,4,10,11)    =    179.977407    -0.000002    -0.285310   179.692097
	   65 D(3,1,2,4)      =      0.019955    -0.000002    -0.138246    -0.118292
	   66 D(3,1,2,14)     =   -179.838124    -0.000006    -0.526512  -180.364636
	   67 D(3,5,10,4)     =     -0.017270    -0.000002    -0.221060    -0.238330
	   68 D(3,5,10,11)    =   -179.977373     0.000000     0.100973  -179.876400
	   69 D(4,2,1,13)     =    179.883471    -0.000000     0.009408   179.892879
	   70 D(4,10,5,17)    =   -179.970623     0.000008     0.639552  -179.331071
	   71 D(4,10,11,6)    =   -135.021951    -0.000006    -0.079984  -135.101936
	   72 D(4,10,11,7)    =     45.004468    -0.000008    -0.417956    44.586511
	   73 D(5,3,1,13)     =   -179.883434    -0.000002    -0.192814  -180.076248
	   74 D(5,10,4,16)    =    179.980271     0.000011     0.961390   180.941661
	   75 D(5,10,11,6)    =     44.938149    -0.000008    -0.407089    44.531060
	   76 D(5,10,11,7)    =   -135.035432    -0.000011    -0.745061  -135.780493
	   77 D(6,8,12,9)     =     -0.010077    -0.000000    -0.040719    -0.050796
	   78 D(6,11,7,9)     =      0.043662    -0.000002    -0.176798    -0.133136
	   79 D(6,11,7,19)    =   -179.934516     0.000008     0.615504  -179.319012
	   80 D(7,9,12,8)     =     -0.022516     0.000000     0.000602    -0.021914
	   81 D(7,11,6,8)     =     -0.072877     0.000001     0.139980     0.067104
	   82 D(7,11,6,18)    =   -179.910071     0.000010     0.831172  -179.078899
	   83 D(8,6,11,10)    =    179.953459    -0.000001    -0.187848   179.765610
	   84 D(8,12,9,21)    =    179.941878    -0.000005    -0.408863   179.533015
	   85 D(9,7,11,10)    =   -179.982665     0.000001     0.151020  -179.831645
	   86 D(9,12,8,20)    =    179.914219    -0.000006    -0.478803   179.435415
	   87 D(10,4,2,14)    =    179.839537     0.000006     0.530463   180.370000
	   88 D(10,5,3,15)    =   -179.892302     0.000005     0.406146  -179.486156
	   89 D(10,11,6,18)   =      0.116264     0.000007     0.503343     0.619607
	   90 D(10,11,7,19)   =      0.039158     0.000011     0.943322     0.982479
	   91 D(11,6,8,12)    =      0.057488    -0.000000    -0.030241     0.027247
	   92 D(11,6,8,20)    =   -179.862756     0.000005     0.429804  -179.432952
	   93 D(11,7,9,12)    =      0.005535     0.000001     0.109997     0.115531
	   94 D(11,7,9,21)    =   -179.956979     0.000007     0.539919  -179.417060
	   95 D(11,10,4,16)   =     -0.059583     0.000009     0.639446     0.579863
	   96 D(11,10,5,17)   =      0.069274     0.000010     0.961585     1.030860
	   97 D(12,8,6,18)    =    179.897615    -0.000008    -0.716986   179.180629
	   98 D(12,9,7,19)    =    179.984057    -0.000009    -0.676712   179.307345
	   99 D(13,1,2,14)    =      0.025392    -0.000004    -0.378857    -0.353466
	  100 D(13,1,3,15)    =      0.027424    -0.000004    -0.372372    -0.344948
	  101 D(14,2,4,16)    =     -0.124098    -0.000004    -0.388744    -0.512842
	  102 D(15,3,5,17)    =      0.061840    -0.000005    -0.450219    -0.388380
	  103 D(18,6,8,20)    =     -0.022629    -0.000003    -0.256940    -0.279569
	  104 D(19,7,9,21)    =      0.021544    -0.000003    -0.246790    -0.225247
	 ---------------------------------------------------------------------------
	Successfully symmetrized geometry.
	 Forces used to impose fixed constraints are not included.
	  Forces zeroed: 71 

  ==> Convergence Check <==

  Measures of convergence in internal coordinates in au.
  Criteria marked as inactive (o), active & met (*), and active & unmet ( ).
  --------------------------------------------------------------------------------------------- ~
   Step     Total Energy     Delta E     MAX Force     RMS Force      MAX Disp      RMS Disp    ~
  --------------------------------------------------------------------------------------------- ~
    Convergence Criteria    1.00e-06 *    3.00e-04 *             o    1.20e-03 *             o  ~
  --------------------------------------------------------------------------------------------- ~
      1    -478.57498795   -4.79e+02      1.54e-02      3.77e-03 o    3.49e-02      9.81e-03 o  ~
  ---------------------------------------------------------------------------------------------

	Writing optimization data to binary file.
	Structure for next step:
	Cartesian Geometry (in Angstrom)
	    C     0.1103591324   0.0547719065  -3.5428685484
	    C    -0.9648247589   0.6217782773  -2.8697938716
	    C     1.1422638185  -0.5361508773  -2.8235703211
	    C    -1.0088549816   0.5955580437  -1.4808750421
	    C     1.0983256980  -0.5580300046  -1.4345862192
	    C     1.0997770143   0.3019835019   1.4657199386
	    C    -1.1892518622  -0.3487489167   1.3874713986
	    C     1.0079218529   0.2727483360   2.8482361878
	    C    -1.1829782400  -0.3515404711   2.7734650144
	    C     0.0219300732   0.0050023499  -0.7513881277
	    C    -0.0220752234  -0.0160860400   0.7085403529
	    N    -0.1093869387  -0.0477295871   3.5178022475
	    H     0.1441965089   0.0734075074  -4.6235535547
	    H    -1.7663746045   1.0875202861  -3.4265054030
	    H     1.9777320424  -0.9830415718  -3.3443491395
	    H    -1.8446335745   1.0508682395  -0.9660774901
	    H     1.9015591061  -1.0300199467  -0.8841993498
	    H     2.0289154876   0.5822170496   0.9906726349
	    H    -2.0870054683  -0.6148217149   0.8485397822
	    H     1.8618187977   0.5243387216   3.4640853275
	    H    -2.0734774425  -0.6153122818   3.3289619155
			--------------------------
			 OPTKING Finished Execution 
			--------------------------

    Structure for next step:
    Molecular point group: c1
    Full point group: C1

    Geometry (in Angstrom), charge = 0, multiplicity = 1:

    C            0.110596409488     0.055398598254    -3.542712085187
    C           -0.964587481831     0.622404969033    -2.869637408348
    C            1.142501095625    -0.535524185577    -2.823413857850
    C           -1.008617704505     0.596184735495    -1.480718578902
    C            1.098562975152    -0.557403312805    -1.434429755939
    C            1.100014291443     0.302610193617     1.465876401825
    C           -1.189014585124    -0.348122224927     1.387627861857
    C            1.008159129982     0.273375027731     2.848392651061
    C           -1.182740962851    -0.350913779344     2.773621477591
    C            0.022167350342     0.005629041675    -0.751231664459
    C           -0.021837946249    -0.015459348262     0.708696816103
    N           -0.109149661559    -0.047102895310     3.517958710699
    H            0.144433786012     0.074034199190    -4.623397091518
    H           -1.766137327381     1.088146977859    -3.426348939767
    H            1.977969319546    -0.982414880074    -3.344192676264
    H           -1.844396297369     1.051494931220    -0.965921026911
    H            1.901796383231    -1.029393254930    -0.884042886541
    H            2.029152764698     0.582843741392     0.990829098118
    H           -2.086768191210    -0.614195023103     0.848696245446
    H            1.862056074824     0.524965413382     3.464241790771
    H           -2.073240165423    -0.614685590080     3.329118378707

gradient() will perform analytic gradient computation.

*** tstart() called on gpu-2-14.local
*** at Mon Nov 13 23:22:45 2017

    SCF Algorithm Type (re)set to DF.

*** tstart() called on gpu-2-14.local
*** at Mon Nov 13 23:22:45 2017

   => Loading Basis Set <=

    Name: AUG-CC-PVTZ
    Role: ORBITAL
    Keyword: BASIS
    atoms 1-11  entry C          line   221 file /cbio/jclab/home/chayas/anaconda/envs/py35/share/psi4/basis/aug-cc-pvtz.gbs 
    atoms 12    entry N          line   267 file /cbio/jclab/home/chayas/anaconda/envs/py35/share/psi4/basis/aug-cc-pvtz.gbs 
    atoms 13-21 entry H          line    34 file /cbio/jclab/home/chayas/anaconda/envs/py35/share/psi4/basis/aug-cc-pvtz.gbs 


         ---------------------------------------------------------
                                   SCF
            by Justin Turney, Rob Parrish, and Andy Simmonett
                              RHF Reference
                        8 Threads,   4768 MiB Core
         ---------------------------------------------------------

  ==> Geometry <==

    Molecular point group: c1
    Full point group: C1

    Geometry (in Angstrom), charge = 0, multiplicity = 1:

       Center              X                  Y                   Z               Mass       
    ------------   -----------------  -----------------  -----------------  -----------------
           C          0.110596409488     0.055398598254    -3.542712085187    12.000000000000
           C         -0.964587481831     0.622404969033    -2.869637408348    12.000000000000
           C          1.142501095625    -0.535524185577    -2.823413857850    12.000000000000
           C         -1.008617704505     0.596184735495    -1.480718578902    12.000000000000
           C          1.098562975152    -0.557403312805    -1.434429755939    12.000000000000
           C          1.100014291443     0.302610193617     1.465876401825    12.000000000000
           C         -1.189014585124    -0.348122224927     1.387627861857    12.000000000000
           C          1.008159129982     0.273375027731     2.848392651061    12.000000000000
           C         -1.182740962851    -0.350913779344     2.773621477591    12.000000000000
           C          0.022167350342     0.005629041675    -0.751231664459    12.000000000000
           C         -0.021837946249    -0.015459348262     0.708696816103    12.000000000000
           N         -0.109149661559    -0.047102895310     3.517958710699    14.003074004780
           H          0.144433786012     0.074034199190    -4.623397091518     1.007825032070
           H         -1.766137327381     1.088146977859    -3.426348939767     1.007825032070
           H          1.977969319546    -0.982414880074    -3.344192676264     1.007825032070
           H         -1.844396297369     1.051494931220    -0.965921026911     1.007825032070
           H          1.901796383231    -1.029393254930    -0.884042886541     1.007825032070
           H          2.029152764698     0.582843741392     0.990829098118     1.007825032070
           H         -2.086768191210    -0.614195023103     0.848696245446     1.007825032070
           H          1.862056074824     0.524965413382     3.464241790771     1.007825032070
           H         -2.073240165423    -0.614685590080     3.329118378707     1.007825032070

  Running in c1 symmetry.

  Rotational constants: A =      0.09873  B =      0.01837  C =      0.01622 [cm^-1]
  Rotational constants: A =   2959.83285  B =    550.67198  C =    486.37163 [MHz]
  Nuclear repulsion =  606.082614183449323

  Charge       = 0
  Multiplicity = 1
  Electrons    = 82
  Nalpha       = 41
  Nbeta        = 41

  ==> Algorithm <==

  SCF Algorithm Type is DF.
  DIIS enabled.
  MOM disabled.
  Fractional occupation disabled.
  Guess Type is READ.
  Energy threshold   = 1.00e-10
  Density threshold  = 1.00e-10
  Integral threshold = 0.00e+00

  ==> Primary Basis <==

  Basis Set: AUG-CC-PVTZ
    Blend: AUG-CC-PVTZ
    Number of shells: 249
    Number of basis function: 759
    Number of Cartesian functions: 885
    Spherical Harmonics?: true
    Max angular momentum: 3

   => Loading Basis Set <=

    Name: (AUG-CC-PVTZ AUX)
    Role: JKFIT
    Keyword: DF_BASIS_SCF
    atoms 1-11  entry C          line   161 file /cbio/jclab/home/chayas/anaconda/envs/py35/share/psi4/basis/aug-cc-pvtz-jkfit.gbs 
    atoms 12    entry N          line   223 file /cbio/jclab/home/chayas/anaconda/envs/py35/share/psi4/basis/aug-cc-pvtz-jkfit.gbs 
    atoms 13-21 entry H          line    69 file /cbio/jclab/home/chayas/anaconda/envs/py35/share/psi4/basis/aug-cc-pvtz-jkfit.gbs 

  Reading orbitals from file 180, no projection.

  ==> Pre-Iterations <==

   -------------------------------------------------------
    Irrep   Nso     Nmo     Nalpha   Nbeta   Ndocc  Nsocc
   -------------------------------------------------------
     A        759     759       0       0       0       0
   -------------------------------------------------------
    Total     759     759      41      41      41       0
   -------------------------------------------------------

  ==> Integral Setup <==

  ==> DFJK: Density-Fitted J/K Matrices <==

    J tasked:                  Yes
    K tasked:                  Yes
    wK tasked:                  No
    OpenMP threads:              8
    Integrals threads:           8
    Memory (MB):              3576
    Algorithm:                Core
    Integral Cache:           NONE
    Schwarz Cutoff:          1E-12
    Fitting Condition:       1E-12

   => Auxiliary Basis Set <=

  Basis Set: (AUG-CC-PVTZ AUX)
    Blend: AUG-CC-PVTZ-JKFIT
    Number of shells: 486
    Number of basis function: 1662
    Number of Cartesian functions: 2067
    Spherical Harmonics?: true
    Max angular momentum: 4

  Minimum eigenvalue in the overlap matrix is 4.4890097628E-07.
  Using Symmetric Orthogonalization.

  SCF Guess: Orbitals guess was supplied from a previous computation.

  ==> Iterations <==

                           Total Energy        Delta E     RMS |[F,P]|

   @DF-RHF iter   0:  -476.53606438220851   -4.76536e+02   4.27819e-04 
   @DF-RHF iter   1:  -476.39994325339046    1.36121e-01   1.47828e-04 
   @DF-RHF iter   2:  -476.40069824621321   -7.54993e-04   1.22211e-04 DIIS
   @DF-RHF iter   3:  -476.40131667682010   -6.18431e-04   1.37081e-05 DIIS
   @DF-RHF iter   4:  -476.40132709053279   -1.04137e-05   3.53986e-06 DIIS
   @DF-RHF iter   5:  -476.40132864643806   -1.55591e-06   1.37145e-06 DIIS
   @DF-RHF iter   6:  -476.40132894878616   -3.02348e-07   7.84745e-07 DIIS
   @DF-RHF iter   7:  -476.40132908033024   -1.31544e-07   3.84584e-07 DIIS
   @DF-RHF iter   8:  -476.40132911696446   -3.66342e-08   1.25328e-07 DIIS
   @DF-RHF iter   9:  -476.40132912006669   -3.10223e-09   3.59425e-08 DIIS
   @DF-RHF iter  10:  -476.40132912026456   -1.97872e-10   1.26825e-08 DIIS
   @DF-RHF iter  11:  -476.40132912029867   -3.41061e-11   3.68696e-09 DIIS
   @DF-RHF iter  12:  -476.40132912031061   -1.19371e-11   1.63671e-09 DIIS
   @DF-RHF iter  13:  -476.40132912029202    1.85878e-11   1.00570e-09 DIIS
   @DF-RHF iter  14:  -476.40132912031584   -2.38174e-11   4.10407e-10 DIIS
   @DF-RHF iter  15:  -476.40132912031299    2.84217e-12   2.05898e-10 DIIS
   @DF-RHF iter  16:  -476.40132912031220    7.95808e-13   8.11759e-11 DIIS

  ==> Post-Iterations <==

    Orbital Energies (a.u.)
    -----------------------

    Doubly Occupied:                                                      

       1A    -15.563235     2A    -11.273339     3A    -11.273312  
       4A    -11.265027     5A    -11.252689     6A    -11.244871  
       7A    -11.244801     8A    -11.243842     9A    -11.243416  
      10A    -11.242318    11A    -11.237686    12A    -11.237649  
      13A     -1.256036    14A     -1.175126    15A     -1.108093  
      16A     -1.036549    17A     -1.025551    18A     -1.018468  
      19A     -0.881068    20A     -0.865726    21A     -0.831368  
      22A     -0.807836    23A     -0.733105    24A     -0.685258  
      25A     -0.671954    26A     -0.660148    27A     -0.632767  
      28A     -0.630059    29A     -0.602063    30A     -0.594005  
      31A     -0.582070    32A     -0.544835    33A     -0.525325  
      34A     -0.512282    35A     -0.509213    36A     -0.499594  
      37A     -0.419322    38A     -0.399144    39A     -0.349620  
      40A     -0.347663    41A     -0.327738  

    Virtual:                                                              

      42A      0.025162    43A      0.029797    44A      0.032621  
      45A      0.038398    46A      0.043435    47A      0.045968  
      48A      0.052958    49A      0.055588    50A      0.060736  
      51A      0.074776    52A      0.083560    53A      0.087472  
      54A      0.092475    55A      0.095249    56A      0.098775  
      57A      0.102277    58A      0.105998    59A      0.110036  
      60A      0.112024    61A      0.114913    62A      0.114932  
      63A      0.120306    64A      0.120952    65A      0.127240  
      66A      0.129718    67A      0.132332    68A      0.133084  
      69A      0.136847    70A      0.144383    71A      0.144700  
      72A      0.147041    73A      0.151407    74A      0.151909  
      75A      0.155975    76A      0.159397    77A      0.167032  
      78A      0.171886    79A      0.177350    80A      0.181173  
      81A      0.182979    82A      0.190201    83A      0.202728  
      84A      0.206260    85A      0.218693    86A      0.225027  
      87A      0.225838    88A      0.233212    89A      0.235184  
      90A      0.237360    91A      0.242128    92A      0.246564  
      93A      0.250135    94A      0.254917    95A      0.259290  
      96A      0.267342    97A      0.269243    98A      0.270527  
      99A      0.272525   100A      0.279791   101A      0.283625  
     102A      0.291501   103A      0.294713   104A      0.297486  
     105A      0.298376   106A      0.301838   107A      0.306652  
     108A      0.311361   109A      0.317996   110A      0.321524  
     111A      0.322640   112A      0.325504   113A      0.333363  
     114A      0.333452   115A      0.338332   116A      0.347396  
     117A      0.349002   118A      0.360326   119A      0.363983  
     120A      0.368475   121A      0.369600   122A      0.376163  
     123A      0.378316   124A      0.385656   125A      0.394742  
     126A      0.400874   127A      0.410289   128A      0.410861  
     129A      0.414518   130A      0.422385   131A      0.429101  
     132A      0.435583   133A      0.436120   134A      0.440626  
     135A      0.440677   136A      0.445104   137A      0.446457  
     138A      0.450081   139A      0.463597   140A      0.468591  
     141A      0.471560   142A      0.472428   143A      0.477261  
     144A      0.479282   145A      0.480919   146A      0.481600  
     147A      0.483615   148A      0.484172   149A      0.495664  
     150A      0.496370   151A      0.500473   152A      0.506702  
     153A      0.510936   154A      0.513875   155A      0.515954  
     156A      0.516731   157A      0.523147   158A      0.524392  
     159A      0.525788   160A      0.530505   161A      0.531209  
     162A      0.537424   163A      0.539896   164A      0.543375  
     165A      0.548815   166A      0.552005   167A      0.552683  
[...]
	 B(6,11,10)       =         2.120518	     121.496706
	 B(7,9,12)        =         2.158320	     123.662638
	 B(7,9,21)        =         2.096368	     120.113019
	 B(7,11,10)       =         2.121883	     121.574941
	 B(8,6,11)        =         2.085819	     119.508600
	 B(8,6,18)        =         2.096442	     120.117276
	 B(8,12,9)        =         2.037421	     116.735634
	 B(8,12,20)       =         0.491216	      28.144628
	 B(8,12,21)       =         2.528696	     144.883598
	 B(8,20,12)       =         0.621771	      35.624864
	 B(9,7,11)        =         2.085929	     119.514930
	 B(9,7,19)        =         2.096360	     120.112586
	 B(9,12,20)       =         2.528605	     144.878386
	 B(9,12,21)       =         0.491294	      28.149077
	 B(9,21,12)       =         0.621845	      35.629120
	 B(10,4,16)       =         2.083217	     119.359559
	 B(10,5,17)       =         2.082997	     119.346911
	 B(11,6,18)       =         2.100792	     120.366526
	 B(11,7,19)       =         2.100697	     120.361085
	 B(12,8,20)       =         2.028605	     116.230508
	 B(12,9,21)       =         2.028453	     116.221804
	 B(20,12,21)      =         3.019899	     173.027448
	 D(1,2,4,10)      =        -0.003655	      -0.209401
	 D(1,2,4,16)      =         3.118897	     178.699649
	 D(1,3,5,10)      =         0.003908	       0.223891
	 D(1,3,5,17)      =         3.121636	     178.856562
	 D(2,1,3,5)       =         0.002267	       0.129914
	 D(2,1,3,15)      =         3.135974	     179.678075
	 D(2,4,10,5)      =         0.009677	       0.554436
	 D(2,4,10,11)     =         3.126160	     179.115758
	 D(3,1,2,4)       =        -0.002393	      -0.137105
	 D(3,1,2,14)      =         3.130736	     179.377948
	 D(3,5,10,4)      =        -0.009804	      -0.561719
	 D(3,5,10,11)     =        -3.126262	    -179.121590
	 D(4,2,1,13)      =         3.140362	     179.929485
	 D(4,10,5,17)     =        -3.127701	    -179.204093
	 D(4,10,11,6)     =        -2.359023	    -135.162055
	 D(4,10,11,7)     =         0.756771	      43.359800
	 D(5,3,1,13)      =        -3.140487	    -179.936675
	 D(5,10,4,16)     =        -3.113009	    -178.362265
	 D(5,10,11,6)     =         0.757036	      43.374980
	 D(5,10,11,7)     =        -2.410355	    -138.103165
	 D(6,8,12,9)      =        -0.000984	      -0.056386
	 D(6,8,12,20)     =        -3.133118	    -179.514446
	 D(6,8,12,21)     =         0.004987	       0.285736
	 D(6,8,20,12)     =         3.133439	     179.532856
	 D(6,11,7,9)      =        -0.008154	      -0.467187
	 D(6,11,7,19)     =        -3.128336	    -179.240469
	 D(7,9,12,8)      =         0.002852	       0.163429
	 D(7,9,12,20)     =         0.010607	       0.607762
	 D(7,9,12,21)     =        -3.131459	    -179.419411
	 D(7,9,21,12)     =         3.131843	     179.441373
	 D(7,11,6,8)      =         0.009866	       0.565292
	 D(7,11,6,18)     =        -3.114248	    -178.433254
	 D(8,6,11,10)     =         3.126810	     179.153037
	 D(8,12,9,21)     =         3.134312	     179.582840
	 D(8,12,21,9)     =        -0.011304	      -0.647673
	 D(8,20,12,9)     =        -0.014683	      -0.841300
	 D(8,20,12,21)    =        -0.016527	      -0.946900
	 D(9,7,11,10)     =        -3.125077	    -179.053748
	 D(9,12,8,20)     =         3.132134	     179.458061
	 D(9,21,12,20)    =         0.002248	       0.128777
	 D(10,4,2,14)     =        -3.136803	    -179.725567
	 D(10,5,3,15)     =        -3.129817	    -179.325313
	 D(10,11,6,18)    =         0.002696	       0.154491
	 D(10,11,7,19)    =         0.037925	       2.172970
	 D(11,6,8,12)     =        -0.005557	      -0.318405
	 D(11,6,8,20)     =        -3.138363	    -179.814940
	 D(11,7,9,12)     =         0.001862	       0.106706
	 D(11,7,9,21)     =        -3.129222	    -179.291191
	 D(11,10,4,16)    =         0.003474	       0.199058
	 D(11,10,5,17)    =         0.039026	       2.236036
	 D(12,8,6,18)     =         3.118601	     178.682677
	 D(12,9,7,19)     =         3.122099	     178.883085
	 D(13,1,2,14)     =        -0.009695	      -0.555462
	 D(13,1,3,15)     =        -0.006781	      -0.388514
	 D(14,2,4,16)     =        -0.014251	      -0.816517
	 D(15,3,5,17)     =        -0.012089	      -0.692642
	 D(18,6,8,20)     =        -0.014204	      -0.813857
	 D(19,7,9,21)     =        -0.008985	      -0.514811
	 D(20,8,12,21)    =         3.138105	     179.800183
	 D(20,12,9,21)    =        -3.141118	    -179.972827

	Adding user-defined constraint: Fragment 1; Coordinate 71:
		Value =    -2.359023; Fixed value    =    -2.356194
		Force =     0.001414; Force constant =     0.500000
	Removing off-diagonal coupling between coordinate 71 and others.
	Taking RFO optimization step.
	Going to follow RFO solution 1.
	Using RFO vector 1.
	Norm of target step-size    0.03854
	Projected energy change by RFO approximation:        -0.0000240908

	Back-transformation to cartesian coordinates...
	Successfully converged to displaced geometry.

	--- Internal Coordinate Step in ANG or DEG, aJ/ANG or AJ/DEG ---
	 ---------------------------------------------------------------------------
	   Coordinate                Previous        Force       Change         New 
	   ----------                --------       ------       ------       ------
	    1 R(1,2)          =      1.388568    -0.000019     0.000002     1.388570
	    2 R(1,3)          =      1.388616    -0.000014    -0.000006     1.388610
	    3 R(1,13)         =      1.079087     0.000128     0.000024     1.079112
	    4 R(2,4)          =      1.386615     0.000154     0.000046     1.386660
	    5 R(2,14)         =      1.079187     0.000090     0.000032     1.079220
	    6 R(3,5)          =      1.386569     0.000215     0.000042     1.386611
	    7 R(3,15)         =      1.079196     0.000050     0.000028     1.079224
	    8 R(4,10)         =      1.394021     0.000162     0.000058     1.394078
	    9 R(4,16)         =      1.079934     0.000037     0.000022     1.079956
	   10 R(5,10)         =      1.393992     0.000060     0.000025     1.394017
	   11 R(5,17)         =      1.080024    -0.000137    -0.000016     1.080009
	   12 R(6,8)          =      1.385808     0.000261     0.000058     1.385867
	   13 R(6,11)         =      1.391399    -0.000035     0.000006     1.391405
	   14 R(6,18)         =      1.079670    -0.000181    -0.000009     1.079660
	   15 R(7,9)          =      1.385690     0.000531     0.000090     1.385780
	   16 R(7,11)         =      1.391336    -0.000035     0.000004     1.391340
	   17 R(7,19)         =      1.079750    -0.000336    -0.000041     1.079709
	   18 R(8,12)         =      1.334985     0.000271     0.000048     1.335032
	   19 R(8,20)         =      1.081093     0.000147     0.000033     1.081127
	   20 R(9,12)         =      1.335051     0.000184     0.000036     1.335087
	   21 R(9,21)         =      1.081192    -0.000252    -0.000032     1.081160
	   22 R(10,11)        =      1.462800    -0.000223    -0.000029     1.462770
	   23 B(1,2,4)        =    120.089195    -0.000001    -0.001218   120.087977
	   24 B(1,2,14)       =    120.068728    -0.000000    -0.006087   120.062641
	   25 B(1,3,5)        =    120.079325    -0.000000    -0.002789   120.076536
	   26 B(1,3,15)       =    120.074390    -0.000000    -0.003982   120.070408
	   27 B(2,1,3)        =    119.777436     0.000001     0.004820   119.782256
	   28 B(2,1,13)       =    120.111842    -0.000001    -0.001784   120.110058
	   29 B(2,4,10)       =    120.565564     0.000000    -0.001477   120.564087
	   30 B(2,4,16)       =    120.065997    -0.000001    -0.005105   120.060892
	   31 B(3,1,13)       =    120.110688    -0.000000    -0.003327   120.107361
	   32 B(3,5,10)       =    120.577146     0.000000     0.000850   120.577996
	   33 B(3,5,17)       =    120.061996    -0.000000    -0.002368   120.059629
	   34 B(4,2,14)       =    119.840305     0.000001     0.006251   119.846556
	   35 B(4,10,5)       =    118.908820    -0.000000     0.000502   118.909322
	   36 B(4,10,11)      =    120.488714    -0.000003    -0.001187   120.487527
	   37 B(5,3,15)       =    119.844747     0.000001     0.007845   119.852592
	   38 B(5,10,11)      =    120.586638     0.000003     0.001519   120.588157
	   39 B(6,8,12)       =    123.663047     0.000002     0.008193   123.671240
	   40 B(6,8,20)       =    120.104670    -0.000000    -0.001229   120.103441
	   41 B(6,11,7)       =    116.912819     0.000003     0.009936   116.922756
	   42 B(6,11,10)      =    121.496706    -0.000004    -0.010153   121.486553
	   43 B(7,9,12)       =    123.662638     0.000001     0.005124   123.667763
	   44 B(7,9,21)       =    120.113019    -0.000001     0.000566   120.113585
	   45 B(7,11,10)      =    121.574941     0.000001     0.001681   121.576622
	   46 B(8,6,11)       =    119.508600    -0.000002    -0.008229   119.500371
	   47 B(8,6,18)       =    120.117276    -0.000000    -0.001006   120.116270
	   48 B(8,12,9)       =    116.735634    -0.000002    -0.007182   116.728452
	   49 B(9,7,11)       =    119.514930    -0.000002    -0.007124   119.507806
	   50 B(9,7,19)       =    120.112586    -0.000000    -0.000573   120.112012
	   51 B(10,4,16)      =    119.359559     0.000000    -0.000747   119.358812
	   52 B(10,5,17)      =    119.346911     0.000000     0.000182   119.347093
	   53 B(11,6,18)      =    120.366526     0.000002     0.005342   120.371869
	   54 B(11,7,19)      =    120.361085     0.000002     0.006180   120.367265
	   55 B(12,8,20)      =    116.230508    -0.000002    -0.007345   116.223162
	   56 B(12,9,21)      =    116.221804    -0.000001    -0.003225   116.218579
	   57 D(1,2,4,10)     =     -0.209401     0.000002     0.211131     0.001731
	   58 D(1,2,4,16)     =    178.699649    -0.000001    -0.171782   178.527867
	   59 D(1,3,5,10)     =      0.223891     0.000000     0.102812     0.326703
	   60 D(1,3,5,17)     =    178.856562    -0.000000     0.038848   178.895410
	   61 D(2,1,3,5)      =      0.129914    -0.000001    -0.097740     0.032175
	   62 D(2,1,3,15)     =    179.678075    -0.000000     0.105858   179.783933
	   63 D(2,4,10,5)     =      0.554436    -0.000003    -0.204494     0.349942
	   64 D(2,4,10,11)    =    179.115758    -0.000000    -0.166049   178.949709
	   65 D(3,1,2,4)      =     -0.137105    -0.000000    -0.058291    -0.195395
	   66 D(3,1,2,14)     =    179.377948    -0.000000    -0.185798   179.192150
	   67 D(3,5,10,4)     =     -0.561719     0.000002     0.047603    -0.514116
	   68 D(3,5,10,11)    =   -179.121590    -0.000001     0.009158  -179.112432
	   69 D(4,2,1,13)     =    179.929485    -0.000000     0.082174   180.011659
	   70 D(4,10,5,17)    =   -179.204093     0.000002     0.111150  -179.092944
	   71 D(4,10,11,6)    =   -135.162055    -0.000004    -0.154305  -135.316360
	   72 D(4,10,11,7)    =     43.359800    -0.000001    -0.082809    43.276990
	   73 D(5,3,1,13)     =   -179.936675    -0.000001    -0.238199  -180.174874
	   74 D(5,10,4,16)    =   -178.362265     0.000000     0.175798  -178.186467
	   75 D(5,10,11,6)    =     43.374980    -0.000001    -0.115225    43.259755
	   76 D(5,10,11,7)    =   -138.103165     0.000001    -0.043730  -138.146895
	   77 D(6,8,12,9)     =     -0.056386     0.000000     0.044101    -0.012285
	   78 D(6,11,7,9)     =     -0.467187     0.000001    -0.011508    -0.478695
	   79 D(6,11,7,19)    =   -179.240469     0.000002     0.067606  -179.172863
	   80 D(7,9,12,8)     =      0.163429    -0.000002    -0.241670    -0.078241
	   81 D(7,11,6,8)     =      0.565292    -0.000003    -0.169608     0.395684
	   82 D(7,11,6,18)    =   -178.433254    -0.000000     0.060495  -178.372759
	   83 D(8,6,11,10)    =    179.153037     0.000000    -0.101395   179.051642
	   84 D(8,12,9,21)    =    179.582840     0.000001     0.438071   180.020911
	   85 D(9,7,11,10)    =   -179.053748    -0.000001    -0.079608  -179.133356
	   86 D(9,12,8,20)    =    179.458061     0.000000    -0.005490   179.452570
	   87 D(10,4,2,14)    =   -179.725567     0.000002     0.338422  -179.387145
	   88 D(10,5,3,15)    =   -179.325313    -0.000001    -0.100286  -179.425598
	   89 D(10,11,6,18)   =      0.154491     0.000002     0.128707     0.283199
	   90 D(10,11,7,19)   =      2.172970    -0.000001    -0.000494     2.172477
	   91 D(11,6,8,12)    =     -0.318405     0.000002     0.161806    -0.156599
	   92 D(11,6,8,20)    =   -179.814940     0.000002     0.213255  -179.601685
	   93 D(11,7,9,12)    =      0.106706     0.000001     0.228964     0.335670
	   94 D(11,7,9,21)    =   -179.291191    -0.000001    -0.475969  -179.767160
	   95 D(11,10,4,16)   =      0.199058     0.000003     0.214243     0.413301
	   96 D(11,10,5,17)   =      2.236036    -0.000000     0.072704     2.308741
	   97 D(12,8,6,18)    =    178.682677    -0.000000    -0.067634   178.615043
	   98 D(12,9,7,19)    =    178.883085     0.000000     0.150139   179.033224
	   99 D(13,1,2,14)    =     -0.555462    -0.000000    -0.045333    -0.600795
	  100 D(13,1,3,15)    =     -0.388514    -0.000000    -0.034602    -0.423117
	  101 D(14,2,4,16)    =     -0.816517    -0.000001    -0.044491    -0.861008
	  102 D(15,3,5,17)    =     -0.692642    -0.000001    -0.164250    -0.856891
	  103 D(18,6,8,20)    =     -0.813857    -0.000000    -0.016185    -0.830042
	  104 D(19,7,9,21)    =     -0.514811    -0.000002    -0.554794    -1.069605
	  105 R(1,X)          =      0.114605    -0.000043     0.000049     0.114654
	  106 R(1,Y)          =      0.065248    -0.000130    -0.002253     0.062995
	  107 R(1,Z)          =     -3.545050     0.000078     0.000026    -3.545023
	  108 R(2,X)          =     -0.967515    -0.000230    -0.001111    -0.968626
	  109 R(2,Y)          =      0.613966    -0.000365    -0.004005     0.609962
	  110 R(2,Z)          =     -2.869738    -0.000071    -0.000410    -2.870147
	  111 R(3,X)          =      1.151378     0.000053     0.000471     1.151848
	  112 R(3,Y)          =     -0.517471    -0.000087    -0.001127    -0.518599
	  113 R(3,Z)          =     -2.828254    -0.000051     0.000319    -2.827935
	  114 R(4,X)          =     -1.013563    -0.000433    -0.002441    -1.016004
	  115 R(4,Y)          =      0.577364    -0.000774    -0.005698     0.571665
	  116 R(4,Z)          =     -1.484371     0.000066    -0.000455    -1.484826
	  117 R(5,X)          =      1.104252     0.000396     0.000689     1.104941
	  118 R(5,Y)          =     -0.553326     0.000483     0.000051    -0.553274
	  119 R(5,Z)          =     -1.442950     0.000191     0.000399    -1.442551
	  120 R(6,X)          =      1.097253     0.000337    -0.000062     1.097191
	  121 R(6,Y)          =      0.284569    -0.000720     0.000866     0.285435
	  122 R(6,Z)          =      1.469145    -0.000297    -0.000688     1.468457
	  123 R(7,X)          =     -1.189469    -0.000387     0.000404    -1.189065
	  124 R(7,Y)          =     -0.340037     0.000470    -0.001491    -0.341528
	  125 R(7,Z)          =      1.397798    -0.000359     0.000581     1.398379
	  126 R(8,X)          =      1.007389     0.000023    -0.000340     1.007048
	  127 R(8,Y)          =      0.268956    -0.000332     0.004291     0.273247
	  128 R(8,Z)          =      2.851949    -0.000052    -0.000614     2.851335
	  129 R(9,X)          =     -1.185176     0.000019     0.001251    -1.183926
	  130 R(9,Y)          =     -0.327791    -0.000463    -0.001607    -0.329399
	  131 R(9,Z)          =      2.783427     0.000179     0.000670     2.784097
	  132 R(10,X)         =      0.018824     0.000583    -0.000490     0.018334
	  133 R(10,Y)         =     -0.011770     0.000893    -0.001792    -0.013562
	  134 R(10,Z)         =     -0.756090     0.000283     0.000036    -0.756054
	  135 R(11,X)         =     -0.022181    -0.000348    -0.000220    -0.022400
	  136 R(11,Y)         =     -0.032376     0.001053    -0.000340    -0.032715
	  137 R(11,Z)         =      0.705990     0.000036     0.000034     0.706024
	  138 R(12,X)         =     -0.110201    -0.000062     0.000228    -0.109973
	  139 R(12,Y)         =     -0.031340    -0.000062     0.003585    -0.027755
	  140 R(12,Z)         =      3.517530     0.000472     0.000117     3.517647
	  141 R(13,X)         =      0.150275     0.000072     0.001705     0.151980
	  142 R(13,Y)         =      0.092519     0.000088     0.000250     0.092769
	  143 R(13,Z)         =     -4.623202    -0.000040     0.000124    -4.623078
	  144 R(14,X)         =     -1.771043    -0.000101     0.000049    -1.770993
	  145 R(14,Y)         =      1.076939    -0.000104    -0.002243     1.074696
	  146 R(14,Z)         =     -3.421684    -0.000217    -0.000681    -3.422365
	  147 R(15,X)         =      1.992234     0.000064     0.002143     1.994377
	  148 R(15,Y)         =     -0.949993     0.000009     0.001784    -0.948209
	  149 R(15,Z)         =     -3.348398    -0.000217     0.000556    -3.347842
	  150 R(16,X)         =     -1.845138    -0.000326    -0.002028    -1.847166
	  151 R(16,Y)         =      1.022809    -0.000402    -0.004586     1.018223
	  152 R(16,Z)         =     -0.958711    -0.000004    -0.000701    -0.959412
	  153 R(17,X)         =      1.901862     0.000267     0.001321     1.903183
	  154 R(17,Y)         =     -1.022988     0.000390     0.001481    -1.021506
	  155 R(17,Z)         =     -0.886454     0.000033     0.000668    -0.885787
	  156 R(18,X)         =      2.025517     0.000209    -0.000875     2.024642
	  157 R(18,Y)         =      0.556718    -0.000575     0.002713     0.559431
	  158 R(18,Z)         =      0.989618    -0.000055    -0.001188     0.988430
	  159 R(19,X)         =     -2.087890    -0.000154     0.000705    -2.087185
	  160 R(19,Y)         =     -0.606045     0.000423    -0.003488    -0.609533
	  161 R(19,Z)         =      0.861197    -0.000049     0.001153     0.862350
	  162 R(20,X)         =      1.870348     0.000069    -0.001215     1.869133
	  163 R(20,Y)         =      0.516517    -0.000142     0.008592     0.525109
	  164 R(20,Z)         =      3.454259     0.000068    -0.001085     3.453174
	  165 R(21,X)         =     -2.083746    -0.000006    -0.000233    -2.083979
	  166 R(21,Y)         =     -0.576487     0.000347     0.005018    -0.571469
	  167 R(21,Z)         =      3.330875     0.000007     0.001139     3.332014
	 ---------------------------------------------------------------------------
	Successfully symmetrized geometry.
	 Forces used to impose fixed constraints are not included.
	  Forces zeroed: 71 

  ==> Convergence Check <==

  Measures of convergence in internal coordinates in au.
  Criteria marked as inactive (o), active & met (*), and active & unmet ( ).
  --------------------------------------------------------------------------------------------- ~
   Step     Total Energy     Delta E     MAX Force     RMS Force      MAX Disp      RMS Disp    ~
  --------------------------------------------------------------------------------------------- ~
    Convergence Criteria    1.00e-06 *    3.00e-04 *             o    1.20e-03 *             o  ~
  --------------------------------------------------------------------------------------------- ~
      1    -478.57724639   -4.79e+02      1.51e-04 *    4.79e-05 o    1.62e-02      2.98e-03 o  ~
  ---------------------------------------------------------------------------------------------

	Writing optimization data to binary file.
	
Fatal Error: PSIO Error
Error occurred in file: /scratch/psilocaluser/conda-builds/psi4_1495011512596/work/psi4/src/psi4/libpsio/error.cc on line: 129
The most recent 5 function calls were:

psi::PsiException::PsiException(std::__cxx11::basic_string<char, std::char_traits<char>, std::allocator<char> >, char const*, int)
psi::psio_error(unsigned int, unsigned int)
psi::PSIO::write(unsigned int, char const*, char*, unsigned long, psi::psio_address, psi::psio_address*)
psi::PSIO::write_entry(unsigned int, char const*, char*, unsigned long)
psi::psio_write_entry(unsigned int, char const*, char*, unsigned long)
