
    -----------------------------------------------------------------------
          Psi4: An Open-Source Ab Initio Electronic Structure Package
                               Psi4 1.1 release

                         Git: Rev {HEAD} add49b9 


    R. M. Parrish, L. A. Burns, D. G. A. Smith, A. C. Simmonett,
    A. E. DePrince III, E. G. Hohenstein, U. Bozkaya, A. Yu. Sokolov,
    R. Di Remigio, R. M. Richard, J. F. Gonthier, A. M. James,
    H. R. McAlexander, A. Kumar, M. Saitow, X. Wang, B. P. Pritchard,
    P. Verma, H. F. Schaefer III, K. Patkowski, R. A. King, E. F. Valeev,
    F. A. Evangelista, J. M. Turney, T. D. Crawford, and C. D. Sherrill,
    J. Chem. Theory Comput. in press (2017).
    (doi: 10.1021/acs.jctc.7b00174)

    -----------------------------------------------------------------------


    Psi4 started on: Saturday, 11 November 2017 09:40AM

    Process ID:  28955
    PSIDATADIR: /cbio/jclab/home/chayas/anaconda/envs/py35/share/psi4
    Memory:     500.0 MiB
    Threads:    8
    
  ==> Input File <==

--------------------------------------------------------------------------

molecule phepyr {
  symmetry C1
  0 1 
  C      1.885   -1.036   -0.112
  C      0.807   -0.463   0.561
  C      2.921   -1.631   0.608
  C      0.764   -0.484   1.955
  C      2.878   -1.652   2.002
  C      2.888   -0.778   4.860
  C      0.578   -1.443   4.778
  C      2.793   -0.812   6.242
  C      0.586   -1.448   6.164
  C      1.800   -1.079   2.676
  C      1.755   -1.100   4.122
  N      1.667   -1.140   6.915
  H      1.917   -1.021   -1.198
  H      -0.001   -0.002   0.000
  H      3.760   -2.079   0.084
  H      -0.084   -0.033   2.466
  H      3.693   -2.120   2.550
  H      3.824   -0.504   4.384
  H      -0.325   -1.701   4.235
  H      3.648   -0.567   6.864
  H      -0.306   -1.709   6.723
  units Angstrom
}

dih_string = "4 10 11 6 225"
set optking fixed_dihedral = $dih_string

optimize('MP2/aug-cc-PVTZ')
--------------------------------------------------------------------------
gradient() will perform analytic gradient computation.

*** tstart() called on gpu-1-16.local
*** at Sat Nov 11 09:40:32 2017

    SCF Algorithm Type (re)set to DF.

*** tstart() called on gpu-1-16.local
*** at Sat Nov 11 09:40:32 2017

   => Loading Basis Set <=

    Name: AUG-CC-PVTZ
    Role: ORBITAL
    Keyword: BASIS
    atoms 1-11  entry C          line   221 file /cbio/jclab/home/chayas/anaconda/envs/py35/share/psi4/basis/aug-cc-pvtz.gbs 
    atoms 12    entry N          line   267 file /cbio/jclab/home/chayas/anaconda/envs/py35/share/psi4/basis/aug-cc-pvtz.gbs 
    atoms 13-21 entry H          line    34 file /cbio/jclab/home/chayas/anaconda/envs/py35/share/psi4/basis/aug-cc-pvtz.gbs 


         ---------------------------------------------------------
                                   SCF
            by Justin Turney, Rob Parrish, and Andy Simmonett
                              RHF Reference
                        8 Threads,    500 MiB Core
         ---------------------------------------------------------

  ==> Geometry <==

    Molecular point group: c1
    Full point group: C1

    Geometry (in Angstrom), charge = 0, multiplicity = 1:

       Center              X                  Y                   Z               Mass       
    ------------   -----------------  -----------------  -----------------  -----------------
           C          0.108711258931     0.053081562273    -3.525965346062    12.000000000000
           C         -0.969288741069     0.626081562273    -2.852965346062    12.000000000000
           C          1.144711258931    -0.541918437727    -2.805965346062    12.000000000000
           C         -1.012288741069     0.605081562273    -1.458965346062    12.000000000000
           C          1.101711258931    -0.562918437727    -1.411965346062    12.000000000000
           C          1.111711258931     0.311081562273     1.446034653938    12.000000000000
           C         -1.198288741069    -0.353918437727     1.364034653938    12.000000000000
           C          1.016711258931     0.277081562273     2.828034653938    12.000000000000
           C         -1.190288741069    -0.358918437727     2.750034653938    12.000000000000
           C          0.023711258931     0.010081562273    -0.737965346062    12.000000000000
           C         -0.021288741069    -0.010918437727     0.708034653938    12.000000000000
           N         -0.109288741069    -0.050918437727     3.501034653938    14.003074004780
           H          0.140711258931     0.068081562273    -4.611965346062     1.007825032070
           H         -1.777288741069     1.087081562273    -3.413965346062     1.007825032070
           H          1.983711258931    -0.989918437727    -3.329965346062     1.007825032070
           H         -1.860288741069     1.056081562273    -0.947965346062     1.007825032070
           H          1.916711258931    -1.030918437727    -0.863965346062     1.007825032070
           H          2.047711258931     0.585081562273     0.970034653938     1.007825032070
           H         -2.101288741069    -0.611918437727     0.821034653938     1.007825032070
           H          1.871711258931     0.522081562273     3.450034653938     1.007825032070
           H         -2.082288741069    -0.619918437727     3.309034653938     1.007825032070

  Running in c1 symmetry.

  Rotational constants: A =      0.09740  B =      0.01861  C =      0.01639 [cm^-1]
  Rotational constants: A =   2920.09251  B =    557.79062  C =    491.38116 [MHz]
  Nuclear repulsion =  606.440516692114443

  Charge       = 0
  Multiplicity = 1
  Electrons    = 82
  Nalpha       = 41
  Nbeta        = 41

  ==> Algorithm <==

  SCF Algorithm Type is DF.
  DIIS enabled.
  MOM disabled.
  Fractional occupation disabled.
  Guess Type is SAD.
  Energy threshold   = 1.00e-10
  Density threshold  = 1.00e-10
  Integral threshold = 0.00e+00

  ==> Primary Basis <==

  Basis Set: AUG-CC-PVTZ
    Blend: AUG-CC-PVTZ
    Number of shells: 249
    Number of basis function: 759
    Number of Cartesian functions: 885
    Spherical Harmonics?: true
    Max angular momentum: 3

   => Loading Basis Set <=

    Name: (AUG-CC-PVTZ AUX)
    Role: JKFIT
    Keyword: DF_BASIS_SCF
    atoms 1-11  entry C          line   161 file /cbio/jclab/home/chayas/anaconda/envs/py35/share/psi4/basis/aug-cc-pvtz-jkfit.gbs 
    atoms 12    entry N          line   223 file /cbio/jclab/home/chayas/anaconda/envs/py35/share/psi4/basis/aug-cc-pvtz-jkfit.gbs 
    atoms 13-21 entry H          line    69 file /cbio/jclab/home/chayas/anaconda/envs/py35/share/psi4/basis/aug-cc-pvtz-jkfit.gbs 

  ==> Pre-Iterations <==

   -------------------------------------------------------
    Irrep   Nso     Nmo     Nalpha   Nbeta   Ndocc  Nsocc
   -------------------------------------------------------
     A        759     759       0       0       0       0
   -------------------------------------------------------
    Total     759     759      41      41      41       0
   -------------------------------------------------------

  ==> Integral Setup <==

  ==> DFJK: Density-Fitted J/K Matrices <==

    J tasked:                  Yes
    K tasked:                  Yes
    wK tasked:                  No
    OpenMP threads:              8
    Integrals threads:           8
    Memory (MB):               375
    Algorithm:                Disk
    Integral Cache:           NONE
    Schwarz Cutoff:          1E-12
    Fitting Condition:       1E-12

   => Auxiliary Basis Set <=

  Basis Set: (AUG-CC-PVTZ AUX)
    Blend: AUG-CC-PVTZ-JKFIT
    Number of shells: 486
    Number of basis function: 1662
    Number of Cartesian functions: 2067
    Spherical Harmonics?: true
    Max angular momentum: 4

  Minimum eigenvalue in the overlap matrix is 4.5693518562E-07.
  Using Symmetric Orthogonalization.

  SCF Guess: Superposition of Atomic Densities via on-the-fly atomic UHF.

  ==> Iterations <==

                           Total Energy        Delta E     RMS |[F,P]|

   @DF-RHF iter   0:  -484.48423189421521   -4.84484e+02   1.98595e-02 
   @DF-RHF iter   1:  -476.11949879022768    8.36473e+00   1.45306e-03 
   @DF-RHF iter   2:  -476.34639140761527   -2.26893e-01   6.55876e-04 DIIS
   @DF-RHF iter   3:  -476.38099804625512   -3.46066e-02   3.80733e-04 DIIS
   @DF-RHF iter   4:  -476.39518567705079   -1.41876e-02   1.02859e-04 DIIS
   @DF-RHF iter   5:  -476.39687990606876   -1.69423e-03   4.00859e-05 DIIS
   @DF-RHF iter   6:  -476.39712806225600   -2.48156e-04   1.35301e-05 DIIS
   @DF-RHF iter   7:  -476.39716113971241   -3.30775e-05   5.23776e-06 DIIS
   @DF-RHF iter   8:  -476.39716647187913   -5.33217e-06   2.52090e-06 DIIS
   @DF-RHF iter   9:  -476.39716827099221   -1.79911e-06   1.27810e-06 DIIS
   @DF-RHF iter  10:  -476.39716896322437   -6.92232e-07   4.51487e-07 DIIS
   @DF-RHF iter  11:  -476.39716902273312   -5.95087e-08   1.49111e-07 DIIS
   @DF-RHF iter  12:  -476.39716902813160   -5.39848e-09   5.61060e-08 DIIS
   @DF-RHF iter  13:  -476.39716902871942   -5.87818e-10   2.42566e-08 DIIS
   @DF-RHF iter  14:  -476.39716902887795   -1.58536e-10   1.09387e-08 DIIS
   @DF-RHF iter  15:  -476.39716902893008   -5.21254e-11   5.03719e-09 DIIS
   @DF-RHF iter  16:  -476.39716902893554   -5.45697e-12   2.15352e-09 DIIS
   @DF-RHF iter  17:  -476.39716902894287   -7.33280e-12   1.23000e-09 DIIS
   @DF-RHF iter  18:  -476.39716902893718    5.68434e-12   3.90295e-10 DIIS
   @DF-RHF iter  19:  -476.39716902894645   -9.26548e-12   1.69402e-10 DIIS
   @DF-RHF iter  20:  -476.39716902891934    2.71143e-11   9.11594e-11 DIIS

  ==> Post-Iterations <==

    Orbital Energies (a.u.)
    -----------------------

    Doubly Occupied:                                                      

       1A    -15.564655     2A    -11.275245     3A    -11.275186  
       4A    -11.263673     5A    -11.251290     6A    -11.246516  
       7A    -11.246381     8A    -11.245304     9A    -11.245132  
      10A    -11.243934    11A    -11.238479    12A    -11.238434  
      13A     -1.250308    14A     -1.174237    15A     -1.107248  
      16A     -1.037110    17A     -1.024136    18A     -1.015958  
      19A     -0.881453    20A     -0.864721    21A     -0.829243  
      22A     -0.805799    23A     -0.731613    24A     -0.682087  
      25A     -0.670656    26A     -0.660902    27A     -0.631072  
      28A     -0.628518    29A     -0.603637    30A     -0.593755  
      31A     -0.578407    32A     -0.542937    33A     -0.525935  
      34A     -0.510813    35A     -0.506669    36A     -0.500119  
      37A     -0.419288    38A     -0.397338    39A     -0.350486  
      40A     -0.347081    41A     -0.325885  

    Virtual:                                                              

      42A      0.025174    43A      0.029641    44A      0.032632  
      45A      0.038354    46A      0.043493    47A      0.045863  
      48A      0.052736    49A      0.055561    50A      0.060708  
      51A      0.074386    52A      0.083516    53A      0.087551  
      54A      0.092405    55A      0.095389    56A      0.098664  
      57A      0.102256    58A      0.105758    59A      0.109872  
      60A      0.111790    61A      0.114694    62A      0.114864  
      63A      0.120626    64A      0.120983    65A      0.127126  
      66A      0.129560    67A      0.132535    68A      0.132895  
      69A      0.136557    70A      0.144374    71A      0.144881  
      72A      0.147192    73A      0.151402    74A      0.152060  
      75A      0.155624    76A      0.159544    77A      0.167071  
      78A      0.172069    79A      0.177544    80A      0.180838  
      81A      0.183224    82A      0.190257    83A      0.202789  
      84A      0.206217    85A      0.218512    86A      0.224817  
      87A      0.226168    88A      0.233676    89A      0.235946  
      90A      0.236314    91A      0.242529    92A      0.247049  
      93A      0.250370    94A      0.255142    95A      0.259510  
      96A      0.267425    97A      0.269325    98A      0.270382  
      99A      0.272554   100A      0.279868   101A      0.283238  
     102A      0.289898   103A      0.294230   104A      0.296988  
     105A      0.297198   106A      0.301695   107A      0.306117  
     108A      0.310991   109A      0.318083   110A      0.321359  
     111A      0.322318   112A      0.325414   113A      0.333214  
     114A      0.333419   115A      0.337862   116A      0.347131  
     117A      0.349486   118A      0.360409   119A      0.363063  
     120A      0.368457   121A      0.369198   122A      0.374892  
     123A      0.378954   124A      0.385552   125A      0.394096  
     126A      0.400173   127A      0.410734   128A      0.410943  
     129A      0.414578   130A      0.421649   131A      0.429902  
     132A      0.434403   133A      0.436961   134A      0.440447  
     135A      0.440787   136A      0.445202   137A      0.446015  
     138A      0.448689   139A      0.464109   140A      0.466367  
     141A      0.471642   142A      0.472214   143A      0.477498  
     144A      0.477641   145A      0.480957   146A      0.481338  
     147A      0.483853   148A      0.484509   149A      0.496027  
     150A      0.496201   151A      0.500248   152A      0.506714  
     153A      0.510084   154A      0.513280   155A      0.515287  
     156A      0.516743   157A      0.522842   158A      0.524223  
     159A      0.526057   160A      0.529103   161A      0.531568  
     162A      0.536067   163A      0.540501   164A      0.544156  
     165A      0.548842   166A      0.552417   167A      0.553433  
     168A      0.560895   169A      0.564407   170A      0.574054  
     171A      0.581893   172A      0.582287   173A      0.585855  
     174A      0.595712   175A      0.601577   176A      0.604490  
     177A      0.611798   178A      0.619819   179A      0.629390  
     180A      0.635333   181A      0.638173   182A      0.647868  
     183A      0.664284   184A      0.672650   185A      0.674303  
     186A      0.674648   187A      0.686952   188A      0.693856  
     189A      0.696768   190A      0.702720   191A      0.710523  
     192A      0.710707   193A      0.713043   194A      0.715500  
     195A      0.723700   196A      0.725649   197A      0.729968  
     198A      0.746952   199A      0.748195   200A      0.749325  
     201A      0.753210   202A      0.755702   203A      0.763149  
     204A      0.772312   205A      0.777554   206A      0.789922  
     207A      0.799598   208A      0.802812   209A      0.812060  
     210A      0.816205   211A      0.826341   212A      0.835238  
     213A      0.835750   214A      0.842985   215A      0.848917  
     216A      0.859284   217A      0.861647   218A      0.865951  
     219A      0.867760   220A      0.878706   221A      0.880812  
     222A      0.882920   223A      0.886020   224A      0.890445  
     225A      0.891974   226A      0.894476   227A      0.901740  
     228A      0.912966   229A      0.916840   230A      0.917978  
     231A      0.926238   232A      0.926817   233A      0.935457  
     234A      0.942175   235A      0.945100   236A      0.945915  
     237A      0.949013   238A      0.951580   239A      0.957079  
     240A      0.961096   241A      0.969256   242A      0.982193  
     243A      0.984486   244A      0.987015   245A      0.996101  
     246A      0.999216   247A      1.001133   248A      1.008481  
     249A      1.010948   250A      1.018892   251A      1.022748  
     252A      1.027512   253A      1.029760   254A      1.041605  
     255A      1.043098   256A      1.047386   257A      1.057183  
     258A      1.064044   259A      1.068452   260A      1.071653  
     261A      1.074915   262A      1.075108   263A      1.077233  
     264A      1.079594   265A      1.083994   266A      1.089846  
     267A      1.095697   268A      1.101023   269A      1.105372  
     270A      1.109851   271A      1.123111   272A      1.124893  
     273A      1.131524   274A      1.131821   275A      1.140436  
     276A      1.148833   277A      1.149381   278A      1.151383  
     279A      1.159954   280A      1.161024   281A      1.170987  
     282A      1.173508   283A      1.175517   284A      1.179345  
     285A      1.183802   286A      1.188703   287A      1.197306  
     288A      1.205725   289A      1.211202   290A      1.212228  
     291A      1.216337   292A      1.224322   293A      1.225532  
     294A      1.238862   295A      1.241735   296A      1.246239  
     297A      1.251817   298A      1.259361   299A      1.260566  
     300A      1.263313   301A      1.282971   302A      1.284469  
     303A      1.286813   304A      1.292987   305A      1.293215  
     306A      1.314316   307A      1.315895   308A      1.321083  
     309A      1.323146   310A      1.340463   311A      1.342509  
     312A      1.347716   313A      1.356343   314A      1.370083  
     315A      1.374404   316A      1.383388   317A      1.384961  
     318A      1.393706   319A      1.407918   320A      1.411092  
     321A      1.415571   322A      1.424834   323A      1.435791  
     324A      1.443951   325A      1.451316   326A      1.456545  
     327A      1.465853   328A      1.475542   329A      1.491318  
     330A      1.494285   331A      1.503271   332A      1.503693  
     333A      1.517403   334A      1.517770   335A      1.531963  
     336A      1.534849   337A      1.555387   338A      1.570257  
     339A      1.571690   340A      1.581902   341A      1.582286  
     342A      1.590703   343A      1.600910   344A      1.604382  
     345A      1.620829   346A      1.627174   347A      1.641079  
     348A      1.649939   349A      1.657476   350A      1.659167  
     351A      1.671075   352A      1.675728   353A      1.692140  
     354A      1.694643   355A      1.710489   356A      1.713658  
     357A      1.713941   358A      1.725980   359A      1.726607  
     360A      1.733252   361A      1.742014   362A      1.745794  
     363A      1.748888   364A      1.759072   365A      1.765099  
     366A      1.773200   367A      1.783050   368A      1.805002  
     369A      1.811594   370A      1.817980   371A      1.819525  
     372A      1.825547   373A      1.833295   374A      1.846143  
     375A      1.848413   376A      1.856066   377A      1.882487  
     378A      1.882717   379A      1.899740   380A      1.904941  
     381A      1.912082   382A      1.915252   383A      1.930560  
     384A      1.931137   385A      1.938277   386A      1.951159  
     387A      1.953743   388A      1.969167   389A      1.969542  
     390A      1.992177   391A      1.994567   392A      1.999522  
     393A      2.004005   394A      2.011715   395A      2.017470  
     396A      2.019426   397A      2.022418   398A      2.029470  
     399A      2.036265   400A      2.049719   401A      2.055224  
     402A      2.066343   403A      2.071667   404A      2.072495  
     405A      2.088011   406A      2.092484   407A      2.096125  
     408A      2.110262   409A      2.118628   410A      2.127692  
     411A      2.129131   412A      2.137900   413A      2.149355  
     414A      2.157301   415A      2.169325   416A      2.173304  
     417A      2.175422   418A      2.197214   419A      2.203610  
     420A      2.206571   421A      2.207442   422A      2.218841  
     423A      2.242155   424A      2.258086   425A      2.260520  
     426A      2.267914   427A      2.286968   428A      2.290093  
     429A      2.310088   430A      2.313848   431A      2.338211  
     432A      2.339547   433A      2.340928   434A      2.351663  
     435A      2.357969   436A      2.364922   437A      2.369359  
     438A      2.373139   439A      2.390155   440A      2.396481  
     441A      2.414010   442A      2.416573   443A      2.424702  
     444A      2.434335   445A      2.462811   446A      2.474937  
     447A      2.475900   448A      2.502574   449A      2.520568  
     450A      2.521459   451A      2.536808   452A      2.544620  
     453A      2.569904   454A      2.571962   455A      2.574661  
     456A      2.579083   457A      2.607260   458A      2.612139  
     459A      2.636202   460A      2.639775   461A      2.645982  
     462A      2.662564   463A      2.717149   464A      2.731086  
     465A      2.764426   466A      2.769012   467A      2.772964  
     468A      2.776454   469A      2.803887   470A      2.807158  
     471A      2.829811   472A      2.855690   473A      2.864813  
     474A      2.871168   475A      2.887550   476A      2.967391  
     477A      2.975725   478A      3.006142   479A      3.065975  
     480A      3.066546   481A      3.086098   482A      3.130829  
     483A      3.180181   484A      3.188512   485A      3.192495  
     486A      3.203656   487A      3.208841   488A      3.227375  
     489A      3.230581   490A      3.248344   491A      3.272261  
     492A      3.282434   493A      3.300529   494A      3.336567  
     495A      3.345702   496A      3.347757   497A      3.364235  
     498A      3.369706   499A      3.375169   500A      3.382180  
     501A      3.397426   502A      3.401343   503A      3.422254  
     504A      3.435213   505A      3.437263   506A      3.441196  
     507A      3.445084   508A      3.450063   509A      3.468177  
     510A      3.477715   511A      3.491001   512A      3.493784  
     513A      3.500261   514A      3.511326   515A      3.534020  
     516A      3.536807   517A      3.537135   518A      3.544259  
     519A      3.553687   520A      3.566436   521A      3.569037  
     522A      3.581199   523A      3.582385   524A      3.590101  
     525A      3.592493   526A      3.609618   527A      3.618654  
     528A      3.623225   529A      3.644079   530A      3.660482  
     531A      3.669566   532A      3.672050   533A      3.689854  
     534A      3.693476   535A      3.697640   536A      3.721163  
     537A      3.725956   538A      3.729524   539A      3.751923  
     540A      3.754729   541A      3.780771   542A      3.782474  
     543A      3.787277   544A      3.800905   545A      3.817852  
     546A      3.823006   547A      3.824436   548A      3.837824  
     549A      3.841592   550A      3.851086   551A      3.856749  
     552A      3.861975   553A      3.865992   554A      3.885521  
     555A      3.890986   556A      3.897768   557A      3.917551  
     558A      3.927944   559A      3.929566   560A      3.938892  
     561A      3.943719   562A      3.947450   563A      3.947762  
     564A      3.976526   565A      3.992588   566A      3.995967  
     567A      4.010138   568A      4.011136   569A      4.023724  
     570A      4.025421   571A      4.028057   572A      4.029928  
     573A      4.038047   574A      4.057317   575A      4.058056  
     576A      4.070789   577A      4.081831   578A      4.089672  
     579A      4.105604   580A      4.111567   581A      4.128672  
     582A      4.135448   583A      4.139976   584A      4.146391  
     585A      4.155377   586A      4.155546   587A      4.169339  
     588A      4.174193   589A      4.191483   590A      4.203552  
     591A      4.214584   592A      4.222038   593A      4.233155  
     594A      4.234698   595A      4.254628   596A      4.272497  
     597A      4.274265   598A      4.305864   599A      4.310630  
     600A      4.315547   601A      4.317697   602A      4.334007  
     603A      4.339732   604A      4.346503   605A      4.359431  
     606A      4.361967   607A      4.371652   608A      4.380677  
     609A      4.387732   610A      4.392537   611A      4.416122  
     612A      4.419195   613A      4.432132   614A      4.439591  
     615A      4.446368   616A      4.448379   617A      4.454943  
     618A      4.471134   619A      4.489494   620A      4.498013  
     621A      4.500998   622A      4.505221   623A      4.518091  
     624A      4.520225   625A      4.527815   626A      4.533246  
     627A      4.549087   628A      4.592023   629A      4.595069  
     630A      4.618528   631A      4.636520   632A      4.660988  
     633A      4.674276   634A      4.693564   635A      4.710966  
     636A      4.715052   637A      4.734170   638A      4.741354  
     639A      4.749728   640A      4.759056   641A      4.768833  
     642A      4.773196   643A      4.806781   644A      4.813195  
     645A      4.830669   646A      4.866262   647A      4.875232  
     648A      4.885636   649A      4.907029   650A      4.920475  
     651A      4.955946   652A      4.957897   653A      4.972492  
     654A      4.975464   655A      4.988913   656A      4.992221  
     657A      5.001237   658A      5.029425   659A      5.032019  
     660A      5.042086   661A      5.047234   662A      5.061600  
     663A      5.065219   664A      5.083814   665A      5.096803  
     666A      5.102282   667A      5.117808   668A      5.125505  
     669A      5.155185   670A      5.161212   671A      5.162521  
     672A      5.166640   673A      5.176887   674A      5.180746  
     675A      5.198292   676A      5.199203   677A      5.223008  
     678A      5.228490   679A      5.232853   680A      5.243717  
     681A      5.278762   682A      5.287552   683A      5.323690  
     684A      5.332146   685A      5.339521   686A      5.347786  
     687A      5.358732   688A      5.380299   689A      5.382596  
     690A      5.401032   691A      5.426062   692A      5.450850  
     693A      5.461006   694A      5.461808   695A      5.482821  
     696A      5.490344   697A      5.519236   698A      5.519527  
     699A      5.556883   700A      5.576966   701A      5.589897  
     702A      5.652061   703A      5.661103   704A      5.701727  
     705A      5.750265   706A      5.755941   707A      5.773192  
     708A      5.791222   709A      5.795288   710A      5.820968  
     711A      5.830232   712A      5.860136   713A      5.863268  
     714A      5.880952   715A      5.910554   716A      5.979873  
     717A      5.999485   718A      6.081745   719A      6.141702  
     720A      6.173646   721A      6.191469   722A      6.227324  
     723A      6.254613   724A      6.256362   725A      6.291242  
     726A      6.303390   727A      6.364332   728A      6.369351  
     729A      6.411732   730A      6.484735   731A      6.511635  
     732A      6.560382   733A      6.590794   734A      6.622399  
     735A      6.703238   736A      6.716962   737A      6.733781  
     738A      6.782074   739A      6.873486   740A      6.902270  
     741A      6.931357   742A      7.008184   743A      7.031629  
     744A      7.093282   745A      7.177690   746A      7.350793  
     747A      7.431674   748A     15.615173   749A     16.234709  
     750A     16.583347   751A     16.691818   752A     18.418638  
     753A     18.727032   754A     18.997310   755A     19.238566  
     756A     19.945835   757A     20.117704   758A     20.227622  
     759A     21.981070  

    Final Occupation by Irrep:
              A 
    DOCC [    41 ]

  Energy converged.

  @DF-RHF Final Energy:  -476.39716902891934

   => Energetics <=

    Nuclear Repulsion Energy =            606.4405166921144428
    One-Electron Energy =               -1846.6120881461897625
    Two-Electron Energy =                 763.7744024251560404
    DFT Exchange-Correlation Energy =       0.0000000000000000
    Empirical Dispersion Energy =           0.0000000000000000
    PCM Polarization Energy =               0.0000000000000000
    EFP Energy =                            0.0000000000000000
    Total Energy =                       -476.3971690289192793



Properties will be evaluated at   0.000000,   0.000000,   0.000000 Bohr

Properties computed using the SCF density matrix

  Nuclear Dipole Moment: (a.u.)
     X:     0.1310      Y:     0.0618      Z:    -4.3391

  Electronic Dipole Moment: (a.u.)
     X:    -0.0973      Y:    -0.0469      Z:     3.2334

  Dipole Moment: (a.u.)
     X:     0.0337      Y:     0.0149      Z:    -1.1057     Total:     1.1063

  Dipole Moment: (Debye)
     X:     0.0856      Y:     0.0378      Z:    -2.8104     Total:     2.8119


*** tstop() called on gpu-1-16.local at Sat Nov 11 09:45:34 2017
Module time:
	user time   =    1066.92 seconds =      17.78 minutes
	system time =      37.72 seconds =       0.63 minutes
	total time  =        302 seconds =       5.03 minutes
Total time:
	user time   =    1066.93 seconds =      17.78 minutes
	system time =      37.72 seconds =       0.63 minutes
	total time  =        302 seconds =       5.03 minutes

  //>>>>>>>>>>>>>>>>>>>>>>>>>>>>>>>>>>>//
  //               DFMP2               //
  //<<<<<<<<<<<<<<<<<<<<<<<<<<<<<<<<<<<//

   => Loading Basis Set <=

    Name: (AUG-CC-PVTZ AUX)
    Role: RIFIT
    Keyword: DF_BASIS_MP2
    atoms 1-11  entry C          line   147 file /cbio/jclab/home/chayas/anaconda/envs/py35/share/psi4/basis/aug-cc-pvtz-ri.gbs 
    atoms 12    entry N          line   205 file /cbio/jclab/home/chayas/anaconda/envs/py35/share/psi4/basis/aug-cc-pvtz-ri.gbs 
    atoms 13-21 entry H          line    29 file /cbio/jclab/home/chayas/anaconda/envs/py35/share/psi4/basis/aug-cc-pvtz-ri.gbs 

	 --------------------------------------------------------
	                          DF-MP2                         
	      2nd-Order Density-Fitted Moller-Plesset Theory     
	              RMP2 Wavefunction,   8 Threads             
	                                                         
	        Rob Parrish, Justin Turney, Andy Simmonett,      
	           Ed Hohenstein, and C. David Sherrill          
	 --------------------------------------------------------

   => Auxiliary Basis Set <=

  Basis Set: (AUG-CC-PVTZ AUX)
    Blend: AUG-CC-PVTZ-RI
    Number of shells: 462
    Number of basis function: 1686
    Number of Cartesian functions: 2127
    Spherical Harmonics?: true
    Max angular momentum: 4

	 --------------------------------------------------------
	                 NBF =   759, NAUX =  1686
	 --------------------------------------------------------
	   CLASS    FOCC     OCC    AOCC    AVIR     VIR    FVIR
	   PAIRS       0      41      41     718     718       0
	 --------------------------------------------------------


         ------------------------------------------------------------
                                     CPHF                           
                                  Rob Parrish                       
         ------------------------------------------------------------

  ==> Geometry <==

    Molecular point group: c1
    Full point group: C1

    Geometry (in Angstrom), charge = 0, multiplicity = 1:

       Center              X                  Y                   Z               Mass       
    ------------   -----------------  -----------------  -----------------  -----------------
           C          0.108711258931     0.053081562273    -3.525965346062    12.000000000000
           C         -0.969288741069     0.626081562273    -2.852965346062    12.000000000000
           C          1.144711258931    -0.541918437727    -2.805965346062    12.000000000000
           C         -1.012288741069     0.605081562273    -1.458965346062    12.000000000000
           C          1.101711258931    -0.562918437727    -1.411965346062    12.000000000000
           C          1.111711258931     0.311081562273     1.446034653938    12.000000000000
           C         -1.198288741069    -0.353918437727     1.364034653938    12.000000000000
           C          1.016711258931     0.277081562273     2.828034653938    12.000000000000
           C         -1.190288741069    -0.358918437727     2.750034653938    12.000000000000
           C          0.023711258931     0.010081562273    -0.737965346062    12.000000000000
           C         -0.021288741069    -0.010918437727     0.708034653938    12.000000000000
           N         -0.109288741069    -0.050918437727     3.501034653938    14.003074004780
           H          0.140711258931     0.068081562273    -4.611965346062     1.007825032070
           H         -1.777288741069     1.087081562273    -3.413965346062     1.007825032070
           H          1.983711258931    -0.989918437727    -3.329965346062     1.007825032070
           H         -1.860288741069     1.056081562273    -0.947965346062     1.007825032070
           H          1.916711258931    -1.030918437727    -0.863965346062     1.007825032070
           H          2.047711258931     0.585081562273     0.970034653938     1.007825032070
           H         -2.101288741069    -0.611918437727     0.821034653938     1.007825032070
           H          1.871711258931     0.522081562273     3.450034653938     1.007825032070
           H         -2.082288741069    -0.619918437727     3.309034653938     1.007825032070

  Nuclear repulsion =  606.440516692114443
  Reference energy  = -476.397169028919336

  ==> Basis Set <==

  Basis Set: AUG-CC-PVTZ
    Blend: AUG-CC-PVTZ
    Number of shells: 249
    Number of basis function: 759
    Number of Cartesian functions: 885
    Spherical Harmonics?: true
    Max angular momentum: 3

  ==> CGRSolver (by Rob Parrish) <==

   Number of roots    =         1
   Preconditioning    =    JACOBI
   Convergence cutoff =     1E-06
   Maximum iterations =       100

  ==> CPHFRHamiltonian (by Rob Parrish) <== 

  ==> DFJK: Density-Fitted J/K Matrices <==

    J tasked:                  Yes
    K tasked:                  Yes
    wK tasked:                  No
    OpenMP threads:              8
    Integrals threads:           8
    Memory (MB):               375
    Algorithm:                Disk
    Integral Cache:           NONE
    Schwarz Cutoff:          1E-12
    Fitting Condition:       1E-12

   => Auxiliary Basis Set <=

  Basis Set: (AUG-CC-PVTZ AUX)
    Blend: AUG-CC-PVTZ-JKFIT
    Number of shells: 486
    Number of basis function: 1662
    Number of Cartesian functions: 2067
    Spherical Harmonics?: true
    Max angular momentum: 4

  ==> CPHF Iterations <==

  => Iterations <=

             Iter  Converged  Remaining    Residual
  CGR           1          0          1   8.233E-02
  CGR           2          0          1   3.100E-02
  CGR           3          0          1   2.139E-02
  CGR           4          0          1   9.045E-03
  CGR           5          0          1   2.570E-03
  CGR           6          0          1   9.308E-04
  CGR           7          0          1   3.945E-04
  CGR           8          0          1   1.515E-04
  CGR           9          0          1   7.809E-05
  CGR          10          0          1   3.375E-05
  CGR          11          0          1   7.994E-06
  CGR          12          0          1   3.026E-06
  CGR          13          1          0   8.283E-07

    CGRSolver converged.

  ==> DFCorrGrad: Density-Fitted Correlated Gradients <==

    OpenMP threads:              8
    Integrals threads:           8
    Memory (MB):               375
    Schwarz Cutoff:          0E+00
    Fitting Condition:       1E-12

   => Auxiliary Basis Set <=

  Basis Set: (AUG-CC-PVTZ AUX)
    Blend: AUG-CC-PVTZ-JKFIT
    Number of shells: 486
    Number of basis function: 1662
    Number of Cartesian functions: 2067
    Spherical Harmonics?: true
    Max angular momentum: 4

	-----------------------------------------------------------
	 ==================> DF-MP2 Energies <==================== 
	-----------------------------------------------------------
	 Reference Energy          =    -476.3971690289193361 [Eh]
	 Singles Energy            =      -0.0000000000000004 [Eh]
	 Same-Spin Energy          =      -0.5349276941263964 [Eh]
	 Opposite-Spin Energy      =      -1.6428912261568154 [Eh]
	 Correlation Energy        =      -2.1778189202832121 [Eh]
	 Total Energy              =    -478.5749879492025229 [Eh]
	-----------------------------------------------------------
	 ================> DF-SCS-MP2 Energies <================== 
	-----------------------------------------------------------
	 SCS Same-Spin Scale       =       0.3333333333333333 [-]
	 SCS Opposite-Spin Scale   =       1.2000000000000000 [-]
	 SCS Same-Spin Energy      =      -0.1783092313754654 [Eh]
	 SCS Opposite-Spin Energy  =      -1.9714694713881784 [Eh]
	 SCS Correlation Energy    =      -2.1497787027636441 [Eh]
	 SCS Total Energy          =    -478.5469477316829625 [Eh]
	-----------------------------------------------------------


  -Total Gradient:
     Atom            X                  Y                   Z
    ------   -----------------  -----------------  -----------------
       1       -0.000428706610     0.000407046898     0.000256424526
       2       -0.000487214918     0.000867828760    -0.001629349428
       3        0.001472018323    -0.001122068998    -0.001448460511
       4        0.002358668341     0.001418259421     0.009639312566
       5       -0.003514983994    -0.001321780748     0.009585232618
       6        0.002660427184     0.003072161273    -0.008586291687
       7       -0.002752620722    -0.003192522879    -0.008882977209
       8        0.007896491323     0.002891105777    -0.010726062028
       9       -0.007327572601    -0.002626522893    -0.010487038207
      10        0.000320907923    -0.000577572168     0.007534211393
      11        0.000080113100     0.000196822586     0.003393065611
      12       -0.000711969457    -0.000280178107     0.016822290839
      13        0.000086523803     0.000027959629    -0.005065841567
      14       -0.003801872534     0.001712886385    -0.002545772456
      15        0.003675819144    -0.001712419508    -0.002226894028
      16       -0.006011912386     0.002103817522     0.000495346140
      17        0.005910596735    -0.002124865130     0.000775629532
      18        0.005119920370     0.000527985741    -0.000248298209
      19       -0.004793383959    -0.000358069777    -0.000627333997
      20        0.002015585224     0.000313122666     0.002219052954
      21       -0.001766834312    -0.000222996452     0.001753753149


*** tstop() called on gpu-1-16.local at Sat Nov 11 10:07:02 2017
Module time:
	user time   =    4806.37 seconds =      80.11 minutes
	system time =      90.85 seconds =       1.51 minutes
	total time  =       1590 seconds =      26.50 minutes
Total time:
	user time   =    4806.38 seconds =      80.11 minutes
	system time =      90.85 seconds =       1.51 minutes
	total time  =       1590 seconds =      26.50 minutes

			-----------------------------------------
			 OPTKING 2.0: for geometry optimizations 
			  - R.A. King,  Bethel University        
			-----------------------------------------

	Internal coordinates to be generated automatically.
	Detected frag 1 with atoms:  1 2 3 4 5 6 7 8 9 10 11 12 13 14 15 16 17 18 19 20
	 21
	---Fragment 1 Bond Connectivity---
	 1 : 2 3 13
	 2 : 1 4 14
	 3 : 1 5 15
	 4 : 2 10 16
	 5 : 3 10 17
	 6 : 8 11 18
	 7 : 9 11 19
	 8 : 6 12 20
	 9 : 7 12 21
	 10 : 4 5 11
	 11 : 6 7 10
	 12 : 8 9
	 13 : 1
	 14 : 2
	 15 : 3
	 16 : 4
	 17 : 5
	 18 : 6
	 19 : 7
	 20 : 8
	 21 : 9

	Assuming in current code that numbering for constraints corresponds to unified fragment.
	Fixed dihedral atom list: 
	     4    10    11     6
	---Fragment 1 Geometry and Gradient---
	 C           0.2054345069        0.1003096154       -6.6631088581
	 C          -1.8316902643        1.1831226895       -5.3913231707
	 C           2.1631907806       -1.0240774337       -5.3025060424
	 C          -1.9129484880        1.1434384408       -2.7570449414
	 C           2.0819325569       -1.0637616825       -2.6682278132
	 C           2.1008298182        0.5878589577        2.7326094746
	 C          -2.2644375487       -0.6688089207        2.5776519317
	 C           1.9213058356        0.5236082692        5.3442109903
	 C          -2.2493197397       -0.6782575513        5.1968123519
	 C           0.0448077856        0.0190513917       -1.3945523996
	 C          -0.0402298903       -0.0206328571        1.3379915885
	 N          -0.2065257900       -0.0962219024        6.6159966777
	 H           0.2659057432        0.1286555074       -8.7153514384
	 H          -3.3585889797        2.0542864368       -6.4514595312
	 H           3.7486710061       -1.8706747412       -6.2927225361
	 H          -3.5154362487        1.9957049267       -1.7913948875
	 H           3.6220593552       -1.9481535126       -1.6326578924
	 H           3.8696134786        1.1056439181        1.8330998354
	 H          -3.9708602467       -1.1563582630        1.5515306416
	 H           3.5370216792        0.9865911717        6.5196206449
	 H          -3.9349554502       -1.1714760720        6.2531692602
	            -0.0004287066        0.0004070469        0.0002564245
	            -0.0004872149        0.0008678288       -0.0016293494
	             0.0014720183       -0.0011220690       -0.0014484605
	             0.0023586683        0.0014182594        0.0096393126
	            -0.0035149840       -0.0013217807        0.0095852326
	             0.0026604272        0.0030721613       -0.0085862917
	            -0.0027526207       -0.0031925229       -0.0088829772
	             0.0078964913        0.0028911058       -0.0107260620
	            -0.0073275726       -0.0026265229       -0.0104870382
	             0.0003209079       -0.0005775722        0.0075342114
	             0.0000801131        0.0001968226        0.0033930656
	            -0.0007119695       -0.0002801781        0.0168222908
	             0.0000865238        0.0000279596       -0.0050658416
	            -0.0038018725        0.0017128864       -0.0025457725
	             0.0036758191       -0.0017124195       -0.0022268940
	            -0.0060119124        0.0021038175        0.0004953461
	             0.0059105967       -0.0021248651        0.0007756295
	             0.0051199204        0.0005279857       -0.0002482982
	            -0.0047933840       -0.0003580698       -0.0006273340
	             0.0020155852        0.0003131227        0.0022190530
	            -0.0017668343       -0.0002229965        0.0017537531

	Previous optimization step data not found.  Starting new optimization.

	---Fragment 1 Intrafragment Coordinates---
	 - Coordinate -           - BOHR/RAD -       - ANG/DEG -
	 R(1,2)           =         2.634350	       1.394038
	 R(1,3)           =         2.635962	       1.394891
	 R(1,13)          =         2.053329	       1.086575
	 R(2,4)           =         2.635830	       1.394821
	 R(2,14)          =         2.052860	       1.086327
	 R(3,5)           =         2.635830	       1.394821
	 R(3,15)          =         2.052073	       1.085910
	 R(4,10)          =         2.636938	       1.395407
	 R(4,16)          =         2.055920	       1.087946
	 R(5,10)          =         2.635263	       1.394521
	 R(5,17)          =         2.055856	       1.087912
	 R(6,8)           =         2.618553	       1.385679
	 R(6,11)          =         2.626663	       1.389970
	 R(6,18)          =         2.050808	       1.085241
	 R(7,9)           =         2.619221	       1.386032
	 R(7,11)          =         2.627544	       1.390437
	 R(7,19)          =         2.050002	       1.084814
	 R(8,12)          =         2.555249	       1.352179
	 R(8,20)          =         2.050970	       1.085327
	 R(9,12)          =         2.554576	       1.351823
	 R(9,21)          =         2.049518	       1.084558
	 R(10,11)         =         2.734155	       1.446852
	 B(1,2,4)         =         2.094553	     120.009056
	 B(1,2,14)        =         2.094726	     120.018942
	 B(1,3,5)         =         2.093692	     119.959722
	 B(1,3,15)        =         2.095250	     120.048965
	 B(2,1,3)         =         2.094940	     120.031219
	 B(2,1,13)        =         2.093950	     119.974480
	 B(2,4,10)        =         2.094306	     119.994870
	 B(2,4,16)        =         2.079681	     119.156970
	 B(3,1,13)        =         2.094293	     119.994160
	 B(3,5,10)        =         2.095181	     120.045019
	 B(3,5,17)        =         2.079222	     119.130634
	 B(4,2,14)        =         2.093904	     119.971849
	 B(4,10,5)        =         2.093699	     119.960108
	 B(4,10,11)       =         2.093804	     119.966144
	 B(5,3,15)        =         2.094242	     119.991253
	 B(5,10,11)       =         2.095682	     120.073736
	 B(6,8,12)        =         2.164502	     124.016826
	 B(6,8,20)        =         2.108343	     120.799141
	 B(6,11,7)        =         2.090532	     119.778637
	 B(6,11,10)       =         2.096613	     120.127071
	 B(7,9,12)        =         2.164370	     124.009252
	 B(7,9,21)        =         2.107757	     120.765559
	 B(7,11,10)       =         2.096041	     120.094287
	 B(8,6,11)        =         2.057788	     117.902556
	 B(8,6,18)        =         2.097600	     120.183648
	 B(8,12,9)        =         2.031597	     116.401926
	 B(9,7,11)        =         2.057582	     117.890764
	 B(9,7,19)        =         2.099578	     120.296938
	 B(10,4,16)       =         2.109198	     120.848149
	 B(10,5,17)       =         2.108782	     120.824331
	 B(11,6,18)       =         2.127794	     121.913595
	 B(11,7,19)       =         2.126026	     121.812295
	 B(12,8,20)       =         2.010340	     115.183989
	 B(12,9,21)       =         2.011059	     115.225180
	 D(1,2,4,10)      =        -0.000325	      -0.018609
	 D(1,2,4,16)      =        -3.141283	    -179.982244
	 D(1,3,5,10)      =         0.000325	       0.018608
	 D(1,3,5,17)      =         3.141117	     179.972749
	 D(2,1,3,5)       =        -0.000348	      -0.019945
	 D(2,1,3,15)      =         3.139689	     179.890913
	 D(2,4,10,5)      =         0.000301	       0.017261
	 D(2,4,10,11)     =         3.141198	     179.977407
	 D(3,1,2,4)       =         0.000348	       0.019955
	 D(3,1,2,14)      =        -3.138767	    -179.838124
	 D(3,5,10,4)      =        -0.000301	      -0.017270
	 D(3,5,10,11)     =        -3.141198	    -179.977373
	 D(4,2,1,13)      =         3.139559	     179.883471
	 D(4,10,5,17)     =        -3.141080	    -179.970623
	 D(4,10,11,6)     =        -2.356578	    -135.021951
	 D(4,10,11,7)     =         0.785476	      45.004468
	 D(5,3,1,13)      =        -3.139558	    -179.883434
	 D(5,10,4,16)     =         3.141248	     179.980271
	 D(5,10,11,6)     =         0.784319	      44.938149
	 D(5,10,11,7)     =        -2.356813	    -135.035432
	 D(6,8,12,9)      =        -0.000176	      -0.010077
	 D(6,11,7,9)      =         0.000762	       0.043662
	 D(6,11,7,19)     =        -3.140450	    -179.934516
	 D(7,9,12,8)      =        -0.000393	      -0.022516
	 D(7,11,6,8)      =        -0.001272	      -0.072877
	 D(7,11,6,18)     =        -3.140023	    -179.910071
	 D(8,6,11,10)     =         3.140780	     179.953459
	 D(8,12,9,21)     =         3.140578	     179.941878
	 D(9,7,11,10)     =        -3.141290	    -179.982665
	 D(9,12,8,20)     =         3.140095	     179.914219
	 D(10,4,2,14)     =         3.138792	     179.839537
	 D(10,5,3,15)     =        -3.139713	    -179.892302
	 D(10,11,6,18)    =         0.002029	       0.116264
	 D(10,11,7,19)    =         0.000683	       0.039158
	 D(11,6,8,12)     =         0.001003	       0.057488
	 D(11,6,8,20)     =        -3.139197	    -179.862756
	 D(11,7,9,12)     =         0.000097	       0.005535
	 D(11,7,9,21)     =        -3.140842	    -179.956979
	 D(11,10,4,16)    =        -0.001040	      -0.059583
	 D(11,10,5,17)    =         0.001209	       0.069274
	 D(12,8,6,18)     =         3.139806	     179.897615
	 D(12,9,7,19)     =         3.141314	     179.984057
	 D(13,1,2,14)     =         0.000443	       0.025392
	 D(13,1,3,15)     =         0.000479	       0.027424
	 D(14,2,4,16)     =        -0.002166	      -0.124098
	 D(15,3,5,17)     =         0.001079	       0.061840
	 D(18,6,8,20)     =        -0.000395	      -0.022629
	 D(19,7,9,21)     =         0.000376	       0.021544

	Current energy   :      -478.5749879492

	Generating empirical Hessian (Schlegel '84) for each fragment.
	Adding user-defined constraint: Fragment 1; Coordinate 71:
		Value =    -2.356578; Fixed value    =    -2.356194
		Force =     0.000192; Force constant =     0.500000
	Removing off-diagonal coupling between coordinate 71 and others.
	Taking RFO optimization step.
	Going to follow RFO solution 1.
	Using RFO vector 1.

	Determining step-restricting scale parameter for RS-RFO.
	Maximum step size allowed    0.10000

	 Iter      |step|        alpha        rfo_root  
	------------------------------------------------
	    0     0.15248       1.00000           1
	    1     0.12449       4.84282           1
	    2     0.10890      10.90875           1
	    3     0.10159      16.04381           1
	    4     0.10006      17.37936           1
	    5     0.10000      17.43308           1
	------------------------------------------------
	Norm of target step-size    0.10000
	Projected energy change by RFO approximation:        -0.0038131158

	Back-transformation to cartesian coordinates...
	Could not converge backtransformation.
	Using first guess instead.

	--- Internal Coordinate Step in ANG or DEG, aJ/ANG or AJ/DEG ---
	 ---------------------------------------------------------------------------
	   Coordinate                Previous        Force       Change         New 
	   ----------                --------       ------       ------       ------
	    1 R(1,2)          =      1.394038    -0.046882    -0.005812     1.388226
	    2 R(1,3)          =      1.394891    -0.052392    -0.006500     1.388391
	    3 R(1,13)         =      1.086575    -0.041738    -0.006464     1.080111
	    4 R(2,4)          =      1.394821    -0.052202    -0.006354     1.388467
	    5 R(2,14)         =      1.086327    -0.040118    -0.006205     1.080122
	    6 R(3,5)          =      1.394821    -0.052192    -0.006356     1.388465
	    7 R(3,15)         =      1.085910    -0.038072    -0.005886     1.080024
	    8 R(4,10)         =      1.395407    -0.016358    -0.001823     1.393584
	    9 R(4,16)         =      1.087946    -0.047709    -0.007379     1.080566
	   10 R(5,10)         =      1.394521    -0.011304    -0.001198     1.393323
	   11 R(5,17)         =      1.087912    -0.047230    -0.007307     1.080605
	   12 R(6,8)          =      1.385679     0.002158     0.000248     1.385927
	   13 R(6,11)         =      1.389970    -0.004440     0.000178     1.390148
	   14 R(6,18)         =      1.085241    -0.038377    -0.005916     1.079325
	   15 R(7,9)          =      1.386032    -0.000023    -0.000031     1.386001
	   16 R(7,11)         =      1.390437    -0.007145    -0.000113     1.390323
	   17 R(7,19)         =      1.084814    -0.036161    -0.005566     1.079249
	   18 R(8,12)         =      1.352179    -0.122177    -0.013301     1.338878
	   19 R(8,20)         =      1.085327    -0.024142    -0.003712     1.081615
	   20 R(9,12)         =      1.351823    -0.120013    -0.013066     1.338757
	   21 R(9,21)         =      1.084558    -0.019861    -0.003053     1.081505
	   22 R(10,11)        =      1.446852     0.126699     0.018120     1.464972
	   23 B(1,2,4)        =    120.009056     0.000039     0.061932   120.070988
	   24 B(1,2,14)       =    120.018942    -0.000018    -0.024697   119.994245
	   25 B(1,3,5)        =    119.959722     0.000048     0.085263   120.044985
	   26 B(1,3,15)       =    120.048965    -0.000024    -0.041780   120.007185
	   27 B(2,1,3)        =    120.031219    -0.000052    -0.205054   119.826165
	   28 B(2,1,13)       =    119.974480     0.000028     0.111794   120.086274
	   29 B(2,4,10)       =    119.994870     0.000194     0.526636   120.521506
	   30 B(2,4,16)       =    119.156970     0.000097     0.397520   119.554490
	   31 B(3,1,13)       =    119.994160     0.000023     0.093368   120.087528
	   32 B(3,5,10)       =    120.045019     0.000187     0.504932   120.549951
	   33 B(3,5,17)       =    119.130634     0.000101     0.406623   119.537257
	   34 B(4,2,14)       =    119.971849    -0.000021    -0.037094   119.934755
	   35 B(4,10,5)       =    119.960108    -0.000416    -0.973862   118.986247
	   36 B(4,10,11)      =    119.966144     0.000220     0.516487   120.482630
	   37 B(5,3,15)       =    119.991253    -0.000024    -0.043658   119.947595
	   38 B(5,10,11)      =    120.073736     0.000196     0.457072   120.530808
	   39 B(6,8,12)       =    124.016826     0.000006    -0.097127   123.919700
	   40 B(6,8,20)       =    120.799141    -0.000055    -0.126383   120.672758
	   41 B(6,11,7)       =    119.778637    -0.000979    -2.202973   117.575664
	   42 B(6,11,10)      =    120.127071     0.000486     1.091455   121.218525
	   43 B(7,9,12)       =    124.009252     0.000011    -0.089733   123.919520
	   44 B(7,9,21)       =    120.765559    -0.000052    -0.112927   120.652632
	   45 B(7,11,10)      =    120.094287     0.000494     1.111357   121.205644
	   46 B(8,6,11)       =    117.902556     0.000419     1.195291   119.097847
	   47 B(8,6,18)       =    120.183648    -0.000053    -0.069288   120.114361
	   48 B(8,12,9)       =    116.401926     0.000119    -0.007816   116.394111
	   49 B(9,7,11)       =    117.890764     0.000424     1.202360   119.093123
	   50 B(9,7,19)       =    120.296938    -0.000071    -0.124440   120.172498
	   51 B(10,4,16)      =    120.848149    -0.000292    -0.925342   119.922807
	   52 B(10,5,17)      =    120.824331    -0.000287    -0.913158   119.911173
	   53 B(11,6,18)      =    121.913595    -0.000366    -1.127625   120.785970
	   54 B(11,7,19)      =    121.812295    -0.000353    -1.079207   120.733088
	   55 B(12,8,20)      =    115.183989     0.000048     0.222902   115.406891
	   56 B(12,9,21)      =    115.225180     0.000041     0.202207   115.427387
	   57 D(1,2,4,10)     =     -0.018609     0.000002     0.068483     0.049874
	   58 D(1,2,4,16)     =   -179.982244    -0.000009    -0.366180  -180.348424
	   59 D(1,3,5,10)     =      0.018608     0.000003     0.116846     0.135454
	   60 D(1,3,5,17)     =    179.972749    -0.000008    -0.300577   179.672172
	   61 D(2,1,3,5)      =     -0.019945    -0.000001    -0.020628    -0.040572
	   62 D(2,1,3,15)     =    179.890913    -0.000003    -0.107826   179.783087
	   63 D(2,4,10,5)     =      0.017261    -0.000000     0.026124     0.043386
	   64 D(2,4,10,11)    =    179.977407    -0.000002    -0.137154   179.840253
	   65 D(3,1,2,4)      =      0.019955    -0.000002    -0.071451    -0.051496
	   66 D(3,1,2,14)     =   -179.838124    -0.000006    -0.252442  -180.090567
	   67 D(3,5,10,4)     =     -0.017270    -0.000002    -0.118712    -0.135982
	   68 D(3,5,10,11)    =   -179.977373     0.000000     0.044624  -179.932749
	   69 D(4,2,1,13)     =    179.883471    -0.000000    -0.001411   179.882060
	   70 D(4,10,5,17)    =   -179.970623     0.000008     0.299652  -179.670971
	   71 D(4,10,11,6)    =   -135.021951    -0.000006    -0.075574  -135.097525
	   72 D(4,10,11,7)    =     45.004468    -0.000008    -0.254013    44.750455
	   73 D(5,3,1,13)     =   -179.883434    -0.000002    -0.090694  -179.974127
	   74 D(5,10,4,16)    =    179.980271     0.000011     0.462878   180.443149
	   75 D(5,10,11,6)    =     44.938149    -0.000008    -0.241962    44.696186
	   76 D(5,10,11,7)    =   -135.035432    -0.000011    -0.420401  -135.455833
	   77 D(6,8,12,9)     =     -0.010077    -0.000000    -0.025203    -0.035280
	   78 D(6,11,7,9)     =      0.043662    -0.000002    -0.098822    -0.055160
	   79 D(6,11,7,19)    =   -179.934516     0.000008     0.291923  -179.642593
	   80 D(7,9,12,8)     =     -0.022516     0.000000     0.007996    -0.014520
	   81 D(7,11,6,8)     =     -0.072877     0.000001     0.082782     0.009905
	   82 D(7,11,6,18)    =   -179.910071     0.000010     0.410515  -179.499556
	   83 D(8,6,11,10)    =    179.953459    -0.000001    -0.090242   179.863217
	   84 D(8,12,9,21)    =    179.941878    -0.000005    -0.202830   179.739047
	   85 D(9,7,11,10)    =   -179.982665     0.000001     0.074172  -179.908492
	   86 D(9,12,8,20)    =    179.914219    -0.000006    -0.242010   179.672208
	   87 D(10,4,2,14)    =    179.839537     0.000006     0.249384   180.088921
	   88 D(10,5,3,15)    =   -179.892302     0.000005     0.203991  -179.688311
	   89 D(10,11,6,18)   =      0.116264     0.000007     0.237491     0.353756
	   90 D(10,11,7,19)   =      0.039158     0.000011     0.464918     0.504075
	   91 D(11,6,8,12)    =      0.057488    -0.000000    -0.019918     0.037570
	   92 D(11,6,8,20)    =   -179.862756     0.000005     0.207526  -179.655230
	   93 D(11,7,9,12)    =      0.005535     0.000001     0.054826     0.060361
	   94 D(11,7,9,21)    =   -179.956979     0.000007     0.276049  -179.680930
	   95 D(11,10,4,16)   =     -0.059583     0.000009     0.299599     0.240016
	   96 D(11,10,5,17)   =      0.069274     0.000010     0.462988     0.532263
	   97 D(12,8,6,18)    =    179.897615    -0.000008    -0.347215   179.550400
	   98 D(12,9,7,19)    =    179.984057    -0.000009    -0.333897   179.650160
	   99 D(13,1,2,14)    =      0.025392    -0.000004    -0.182402    -0.157011
	  100 D(13,1,3,15)    =      0.027424    -0.000004    -0.177892    -0.150468
	  101 D(14,2,4,16)    =     -0.124098    -0.000004    -0.185279    -0.309377
	  102 D(15,3,5,17)    =      0.061840    -0.000005    -0.213433    -0.151593
	  103 D(18,6,8,20)    =     -0.022629    -0.000003    -0.119771    -0.142400
	  104 D(19,7,9,21)    =      0.021544    -0.000003    -0.112675    -0.091131
	 ---------------------------------------------------------------------------
	Successfully symmetrized geometry.
	 Forces used to impose fixed constraints are not included.
	  Forces zeroed: 71 

  ==> Convergence Check <==

  Measures of convergence in internal coordinates in au.
  Criteria marked as inactive (o), active & met (*), and active & unmet ( ).
  --------------------------------------------------------------------------------------------- ~
   Step     Total Energy     Delta E     MAX Force     RMS Force      MAX Disp      RMS Disp    ~
  --------------------------------------------------------------------------------------------- ~
    Convergence Criteria    1.00e-06 *    3.00e-04 *             o    1.20e-03 *             o  ~
  --------------------------------------------------------------------------------------------- ~
      1    -478.57498795   -4.79e+02      1.54e-02      3.77e-03 o    3.84e-02      9.81e-03 o  ~
  ---------------------------------------------------------------------------------------------

	Writing optimization data to binary file.
	Structure for next step:
	Cartesian Geometry (in Angstrom)
	    C     0.1100278378   0.0539727519  -3.5445014467
	    C    -0.9635709187   0.6219530777  -2.8722242097
	    C     1.1406285039  -0.5365984494  -2.8256716718
	    C    -1.0067675613   0.5983551565  -1.4846300171
	    C     1.0971342107  -0.5578289526  -1.4380506306
	    C     1.0981867318   0.3039133710   1.4694991038
	    C    -1.1870828968  -0.3488855656   1.3899601577
	    C     1.0058159162   0.2723770032   2.8519844926
	    C    -1.1808059095  -0.3532378437   2.7759402897
	    C     0.0228942820   0.0078694165  -0.7544248650
	    C    -0.0218570947  -0.0134671333   0.7097082898
	    N    -0.1094439850  -0.0496877378   3.5191162760
	    H     0.1429570970   0.0705057758  -4.6239838891
	    H    -1.7661044562   1.0834126010  -3.4286944080
	    H     1.9755702592  -0.9824509252  -3.3458066678
	    H    -1.8436416764   1.0479370221  -0.9697108647
	    H     1.9010865217  -1.0243515394  -0.8869379996
	    H     2.0275870472   0.5796283798   0.9950114240
	    H    -2.0849086962  -0.6095644788   0.8507637523
	    H     1.8597931963   0.5200503053   3.4678348532
	    H    -2.0715619715  -0.6151894272   3.3305457637
			--------------------------
			 OPTKING Finished Execution 
			--------------------------

    Structure for next step:
    Molecular point group: c1
    Full point group: C1

    Geometry (in Angstrom), charge = 0, multiplicity = 1:

    C            0.110127378345     0.054257660633    -3.544259370921
    C           -0.963471378208     0.622237986405    -2.871982133980
    C            1.140728044426    -0.536313540660    -2.825429596071
    C           -1.006668020825     0.598640065263    -1.484387941372
    C            1.097233751254    -0.557544043848    -1.437808554868
    C            1.098286272349     0.304198279684     1.469741179520
    C           -1.186983356310    -0.348600656901     1.390202233464
    C            1.005915456719     0.272661911905     2.852226568294
    C           -1.180706368982    -0.352952934927     2.776182365393
    C            0.022993822467     0.008154325204    -0.754182789303
    C           -0.021757554152    -0.013182224619     0.709950365519
    N           -0.109344444469    -0.049402829121     3.519358351756
    H            0.143056637481     0.070790684518    -4.623741813336
    H           -1.766004915725     1.083697509725    -3.428452332282
    H            1.975669799726    -0.982166016483    -3.345564592039
    H           -1.843542135903     1.048221930862    -0.969468788969
    H            1.901186062201    -1.024066630649    -0.886695923857
    H            2.027686587747     0.579913288492     0.995253499759
    H           -2.084809155668    -0.609279570093     0.851005828065
    H            1.859892736835     0.520335214027     3.468076928938
    H           -2.071462431004    -0.614904518486     3.330787839409

gradient() will perform analytic gradient computation.

*** tstart() called on gpu-1-16.local
*** at Sat Nov 11 10:07:04 2017

    SCF Algorithm Type (re)set to DF.

*** tstart() called on gpu-1-16.local
*** at Sat Nov 11 10:07:04 2017

   => Loading Basis Set <=

    Name: AUG-CC-PVTZ
    Role: ORBITAL
    Keyword: BASIS
    atoms 1-11  entry C          line   221 file /cbio/jclab/home/chayas/anaconda/envs/py35/share/psi4/basis/aug-cc-pvtz.gbs 
    atoms 12    entry N          line   267 file /cbio/jclab/home/chayas/anaconda/envs/py35/share/psi4/basis/aug-cc-pvtz.gbs 
    atoms 13-21 entry H          line    34 file /cbio/jclab/home/chayas/anaconda/envs/py35/share/psi4/basis/aug-cc-pvtz.gbs 


         ---------------------------------------------------------
                                   SCF
            by Justin Turney, Rob Parrish, and Andy Simmonett
                              RHF Reference
                        8 Threads,    500 MiB Core
         ---------------------------------------------------------

  ==> Geometry <==

    Molecular point group: c1
    Full point group: C1

    Geometry (in Angstrom), charge = 0, multiplicity = 1:

       Center              X                  Y                   Z               Mass       
    ------------   -----------------  -----------------  -----------------  -----------------
           C          0.110127378345     0.054257660633    -3.544259370921    12.000000000000
           C         -0.963471378208     0.622237986405    -2.871982133980    12.000000000000
           C          1.140728044426    -0.536313540660    -2.825429596071    12.000000000000
           C         -1.006668020825     0.598640065263    -1.484387941372    12.000000000000
           C          1.097233751254    -0.557544043848    -1.437808554868    12.000000000000
           C          1.098286272349     0.304198279684     1.469741179520    12.000000000000
           C         -1.186983356310    -0.348600656901     1.390202233464    12.000000000000
           C          1.005915456719     0.272661911905     2.852226568294    12.000000000000
           C         -1.180706368982    -0.352952934927     2.776182365393    12.000000000000
           C          0.022993822467     0.008154325204    -0.754182789303    12.000000000000
           C         -0.021757554152    -0.013182224619     0.709950365519    12.000000000000
           N         -0.109344444469    -0.049402829121     3.519358351756    14.003074004780
           H          0.143056637481     0.070790684518    -4.623741813336     1.007825032070
           H         -1.766004915725     1.083697509725    -3.428452332282     1.007825032070
           H          1.975669799726    -0.982166016483    -3.345564592039     1.007825032070
           H         -1.843542135903     1.048221930862    -0.969468788969     1.007825032070
           H          1.901186062201    -1.024066630649    -0.886695923857     1.007825032070
           H          2.027686587747     0.579913288492     0.995253499759     1.007825032070
           H         -2.084809155668    -0.609279570093     0.851005828065     1.007825032070
           H          1.859892736835     0.520335214027     3.468076928938     1.007825032070
           H         -2.071462431004    -0.614904518486     3.330787839409     1.007825032070

  Running in c1 symmetry.

  Rotational constants: A =      0.09895  B =      0.01834  C =      0.01620 [cm^-1]
  Rotational constants: A =   2966.52190  B =    549.67930  C =    485.80013 [MHz]
  Nuclear repulsion =  606.132994705962119

  Charge       = 0
  Multiplicity = 1
  Electrons    = 82
  Nalpha       = 41
  Nbeta        = 41

  ==> Algorithm <==

  SCF Algorithm Type is DF.
  DIIS enabled.
  MOM disabled.
  Fractional occupation disabled.
  Guess Type is READ.
  Energy threshold   = 1.00e-10
  Density threshold  = 1.00e-10
  Integral threshold = 0.00e+00

  ==> Primary Basis <==

  Basis Set: AUG-CC-PVTZ
    Blend: AUG-CC-PVTZ
    Number of shells: 249
    Number of basis function: 759
    Number of Cartesian functions: 885
    Spherical Harmonics?: true
    Max angular momentum: 3

   => Loading Basis Set <=

    Name: (AUG-CC-PVTZ AUX)
    Role: JKFIT
    Keyword: DF_BASIS_SCF
    atoms 1-11  entry C          line   161 file /cbio/jclab/home/chayas/anaconda/envs/py35/share/psi4/basis/aug-cc-pvtz-jkfit.gbs 
    atoms 12    entry N          line   223 file /cbio/jclab/home/chayas/anaconda/envs/py35/share/psi4/basis/aug-cc-pvtz-jkfit.gbs 
    atoms 13-21 entry H          line    69 file /cbio/jclab/home/chayas/anaconda/envs/py35/share/psi4/basis/aug-cc-pvtz-jkfit.gbs 

  Reading orbitals from file 180, no projection.

  ==> Pre-Iterations <==

   -------------------------------------------------------
    Irrep   Nso     Nmo     Nalpha   Nbeta   Ndocc  Nsocc
   -------------------------------------------------------
     A        759     759       0       0       0       0
   -------------------------------------------------------
    Total     759     759      41      41      41       0
   -------------------------------------------------------

  ==> Integral Setup <==

  ==> DFJK: Density-Fitted J/K Matrices <==

    J tasked:                  Yes
    K tasked:                  Yes
    wK tasked:                  No
    OpenMP threads:              8
    Integrals threads:           8
    Memory (MB):               375
    Algorithm:                Disk
    Integral Cache:           NONE
    Schwarz Cutoff:          1E-12
    Fitting Condition:       1E-12

   => Auxiliary Basis Set <=

  Basis Set: (AUG-CC-PVTZ AUX)
    Blend: AUG-CC-PVTZ-JKFIT
    Number of shells: 486
    Number of basis function: 1662
    Number of Cartesian functions: 2067
    Spherical Harmonics?: true
    Max angular momentum: 4

  Minimum eigenvalue in the overlap matrix is 4.4598507775E-07.
  Using Symmetric Orthogonalization.

  SCF Guess: Orbitals guess was supplied from a previous computation.

  ==> Iterations <==

                           Total Energy        Delta E     RMS |[F,P]|

   @DF-RHF iter   0:  -476.55986354106722   -4.76560e+02   4.66106e-04 
   @DF-RHF iter   1:  -476.39999863053532    1.59865e-01   1.58205e-04 
   @DF-RHF iter   2:  -476.40102472649602   -1.02610e-03   1.18126e-04 DIIS
   @DF-RHF iter   3:  -476.40190981535312   -8.85089e-04   1.48516e-05 DIIS
   @DF-RHF iter   4:  -476.40192360437402   -1.37890e-05   3.76178e-06 DIIS
   @DF-RHF iter   5:  -476.40192543129285   -1.82692e-06   1.50794e-06 DIIS
   @DF-RHF iter   6:  -476.40192579727619   -3.65983e-07   8.16599e-07 DIIS
   @DF-RHF iter   7:  -476.40192596587008   -1.68594e-07   3.34308e-07 DIIS
   @DF-RHF iter   8:  -476.40192601393755   -4.80675e-08   1.08781e-07 DIIS
   @DF-RHF iter   9:  -476.40192601736157   -3.42402e-09   3.34880e-08 DIIS
   @DF-RHF iter  10:  -476.40192601758486   -2.23281e-10   1.14943e-08 DIIS
   @DF-RHF iter  11:  -476.40192601761009   -2.52385e-11   3.27013e-09 DIIS
   @DF-RHF iter  12:  -476.40192601761407   -3.97904e-12   1.51186e-09 DIIS
   @DF-RHF iter  13:  -476.40192601763846   -2.43858e-11   9.61505e-10 DIIS
   @DF-RHF iter  14:  -476.40192601761532    2.31353e-11   3.79833e-10 DIIS
   @DF-RHF iter  15:  -476.40192601763709   -2.17710e-11   1.46466e-10 DIIS
   @DF-RHF iter  16:  -476.40192601762880    8.29914e-12   6.51760e-11 DIIS

  ==> Post-Iterations <==

    Orbital Energies (a.u.)
    -----------------------

    Doubly Occupied:                                                      

       1A    -15.562778     2A    -11.272904     3A    -11.272886  
       4A    -11.265235     5A    -11.252900     6A    -11.244363  
       7A    -11.244315     8A    -11.243326     9A    -11.242872  
      10A    -11.241746    11A    -11.237472    12A    -11.237436  
      13A     -1.257401    14A     -1.175363    15A     -1.108210  
      16A     -1.036636    17A     -1.026003    18A     -1.018876  
      19A     -0.880779    20A     -0.866114    21A     -0.831895  
      22A     -0.808195    23A     -0.733454    24A     -0.685871  
      25A     -0.672247    26A     -0.660184    27A     -0.633095  
      28A     -0.630520    29A     -0.602173    30A     -0.594075  
      31A     -0.582338    32A     -0.545461    33A     -0.525418  
      34A     -0.512725    35A     -0.509375    36A     -0.499629  
      37A     -0.419154    38A     -0.399265    39A     -0.349511  
      40A     -0.347847    41A     -0.328213  

    Virtual:                                                              

      42A      0.025163    43A      0.029798    44A      0.032614  
      45A      0.038437    46A      0.043429    47A      0.046001  
      48A      0.052992    49A      0.055604    50A      0.060774  
      51A      0.075202    52A      0.083641    53A      0.087459  
      54A      0.092532    55A      0.095183    56A      0.098895  
      57A      0.102266    58A      0.106090    59A      0.110066  
      60A      0.112028    61A      0.114888    62A      0.114908  
      63A      0.120347    64A      0.120943    65A      0.127206  
      66A      0.129749    67A      0.132277    68A      0.133006  
      69A      0.136754    70A      0.144398    71A      0.144719  
      72A      0.147130    73A      0.151532    74A      0.151863  
      75A      0.156056    76A      0.159335    77A      0.166968  
      78A      0.171832    79A      0.177355    80A      0.181070  
      81A      0.183052    82A      0.190210    83A      0.202704  
      84A      0.206326    85A      0.218679    86A      0.225182  
      87A      0.225924    88A      0.233203    89A      0.235189  
      90A      0.237457    91A      0.242173    92A      0.246544  
      93A      0.250093    94A      0.254963    95A      0.259283  
      96A      0.267388    97A      0.269159    98A      0.270391  
      99A      0.272586   100A      0.279841   101A      0.283673  
     102A      0.291647   103A      0.294831   104A      0.297761  
     105A      0.298531   106A      0.301988   107A      0.306811  
     108A      0.311471   109A      0.317715   110A      0.321682  
     111A      0.322829   112A      0.325556   113A      0.333407  
     114A      0.333552   115A      0.338525   116A      0.347315  
     117A      0.349004   118A      0.360222   119A      0.364122  
     120A      0.368677   121A      0.369668   122A      0.376435  
     123A      0.378394   124A      0.385872   125A      0.395010  
     126A      0.401052   127A      0.410207   128A      0.410947  
     129A      0.414501   130A      0.422595   131A      0.428971  
     132A      0.435386   133A      0.436193   134A      0.440722  
     135A      0.440741   136A      0.445047   137A      0.446756  
     138A      0.450454   139A      0.463688   140A      0.468540  
     141A      0.471882   142A      0.472773   143A      0.477360  
     144A      0.479494   145A      0.481251   146A      0.481854  
     147A      0.483726   148A      0.484198   149A      0.495674  
     150A      0.496397   151A      0.500654   152A      0.506974  
     153A      0.510989   154A      0.513937   155A      0.515834  
     156A      0.516810   157A      0.523051   158A      0.524510  
     159A      0.525898   160A      0.530880   161A      0.531393  
     162A      0.537848   163A      0.539694   164A      0.543498  
     165A      0.549057   166A      0.552318   167A      0.552641  
     168A      0.560648   169A      0.563041   170A      0.574442  
     171A      0.581618   172A      0.582200   173A      0.585626  
     174A      0.595813   175A      0.600332   176A      0.606098  
     177A      0.611885   178A      0.617765   179A      0.628510  
     180A      0.635218   181A      0.636755   182A      0.648372  
     183A      0.666747   184A      0.673702   185A      0.674474  
     186A      0.674985   187A      0.687454   188A      0.693165  
     189A      0.697081   190A      0.702423   191A      0.710713  
     192A      0.710994   193A      0.712063   194A      0.717369  
     195A      0.725317   196A      0.727277   197A      0.730773  
     198A      0.745789   199A      0.749758   200A      0.750253  
     201A      0.753387   202A      0.758739   203A      0.763138  
     204A      0.774497   205A      0.778198   206A      0.789973  
     207A      0.801267   208A      0.804186   209A      0.813202  
     210A      0.817550   211A      0.826671   212A      0.835790  
     213A      0.836169   214A      0.844613   215A      0.850104  
     216A      0.860590   217A      0.862758   218A      0.865994  
     219A      0.869249   220A      0.877029   221A      0.880261  
     222A      0.882336   223A      0.885853   224A      0.890604  
     225A      0.892793   226A      0.897650   227A      0.901198  
     228A      0.913294   229A      0.915425   230A      0.919857  
     231A      0.925105   232A      0.926469   233A      0.938511  
     234A      0.942504   235A      0.943951   236A      0.947596  
     237A      0.951160   238A      0.951755   239A      0.957857  
     240A      0.958808   241A      0.967401   242A      0.982339  
     243A      0.983270   244A      0.987368   245A      0.994817  
     246A      0.999532   247A      1.001712   248A      1.004706  
     249A      1.013020   250A      1.018337   251A      1.021396  
     252A      1.026834   253A      1.029629   254A      1.042905  
     255A      1.043533   256A      1.046830   257A      1.056307  
     258A      1.063527   259A      1.066791   260A      1.069902  
     261A      1.073962   262A      1.075197   263A      1.077084  
     264A      1.082266   265A      1.083042   266A      1.088521  
     267A      1.094866   268A      1.103301   269A      1.104174  
     270A      1.110972   271A      1.123959   272A      1.124202  
     273A      1.130827   274A      1.132381   275A      1.139370  
     276A      1.148326   277A      1.148544   278A      1.151031  
     279A      1.159613   280A      1.161686   281A      1.172965  
     282A      1.174542   283A      1.178529   284A      1.178703  
     285A      1.187802   286A      1.189472   287A      1.197252  
     288A      1.206386   289A      1.213234   290A      1.213298  
     291A      1.215495   292A      1.223958   293A      1.225492  
     294A      1.241441   295A      1.242951   296A      1.244116  
     297A      1.250718   298A      1.257978   299A      1.259878  
     300A      1.266829   301A      1.283154   302A      1.284655  
     303A      1.286232   304A      1.295068   305A      1.295355  
     306A      1.315826   307A      1.317295   308A      1.324547  
     309A      1.325506   310A      1.340568   311A      1.342888  
     312A      1.346360   313A      1.355192   314A      1.368992  
     315A      1.374068   316A      1.383348   317A      1.383902  
     318A      1.394520   319A      1.411735   320A      1.412389  
     321A      1.416558   322A      1.425536   323A      1.437045  
     324A      1.441578   325A      1.452589   326A      1.455144  
     327A      1.465872   328A      1.475945   329A      1.493667  
     330A      1.496422   331A      1.501290   332A      1.503127  
     333A      1.517404   334A      1.519109   335A      1.533883  
     336A      1.534076   337A      1.557279   338A      1.569641  
     339A      1.570512   340A      1.580914   341A      1.582187  
     342A      1.591338   343A      1.601082   344A      1.603227  
     345A      1.616691   346A      1.626685   347A      1.639478  
     348A      1.650147   349A      1.657543   350A      1.659383  
     351A      1.673073   352A      1.674537   353A      1.692693  
     354A      1.700130   355A      1.710731   356A      1.717082  
     357A      1.719763   358A      1.726829   359A      1.727075  
     360A      1.733364   361A      1.745019   362A      1.748521  
     363A      1.748740   364A      1.759744   365A      1.768427  
     366A      1.777253   367A      1.784661   368A      1.807457  
     369A      1.816316   370A      1.821195   371A      1.822067  
     372A      1.828650   373A      1.838662   374A      1.849397  
     375A      1.850743   376A      1.862866   377A      1.883644  
     378A      1.888696   379A      1.900766   380A      1.902457  
     381A      1.913267   382A      1.918851   383A      1.929680  
     384A      1.931176   385A      1.939322   386A      1.952632  
     387A      1.954956   388A      1.968072   389A      1.968961  
     390A      1.994826   391A      1.998518   392A      2.001670  
     393A      2.006245   394A      2.010441   395A      2.020027  
     396A      2.020648   397A      2.022948   398A      2.034438  
     399A      2.037980   400A      2.053938   401A      2.058128  
     402A      2.070219   403A      2.071542   404A      2.074343  
     405A      2.087929   406A      2.096693   407A      2.098667  
     408A      2.107766   409A      2.118140   410A      2.121008  
     411A      2.131392   412A      2.138037   413A      2.150129  
     414A      2.158933   415A      2.167135   416A      2.173367  
     417A      2.176701   418A      2.196700   419A      2.202518  
     420A      2.205324   421A      2.209005   422A      2.222458  
     423A      2.241521   424A      2.260045   425A      2.260467  
     426A      2.268436   427A      2.288476   428A      2.289917  
     429A      2.302680   430A      2.313791   431A      2.335860  
     432A      2.337169   433A      2.347777   434A      2.351299  
     435A      2.365275   436A      2.369131   437A      2.371221  
     438A      2.377756   439A      2.389607   440A      2.402535  
     441A      2.412155   442A      2.422011   443A      2.431511  
     444A      2.433396   445A      2.465421   446A      2.475244  
     447A      2.477939   448A      2.496263   449A      2.521550  
     450A      2.527783   451A      2.535921   452A      2.543239  
     453A      2.573825   454A      2.574257   455A      2.580223  
     456A      2.584298   457A      2.612809   458A      2.618637  
     459A      2.634108   460A      2.640298   461A      2.645400  
     462A      2.663821   463A      2.719021   464A      2.735772  
     465A      2.769271   466A      2.769756   467A      2.772863  
     468A      2.787705   469A      2.805780   470A      2.814921  
     471A      2.831765   472A      2.859728   473A      2.864474  
     474A      2.869009   475A      2.895686   476A      2.972611  
     477A      2.974416   478A      3.013385   479A      3.060777  
[...]
Total time:
	user time   =    5675.43 seconds =      94.59 minutes
	system time =     122.87 seconds =       2.05 minutes
	total time  =       1848 seconds =      30.80 minutes

  //>>>>>>>>>>>>>>>>>>>>>>>>>>>>>>>>>>>//
  //               DFMP2               //
  //<<<<<<<<<<<<<<<<<<<<<<<<<<<<<<<<<<<//

   => Loading Basis Set <=

    Name: (AUG-CC-PVTZ AUX)
    Role: RIFIT
    Keyword: DF_BASIS_MP2
    atoms 1-11  entry C          line   147 file /cbio/jclab/home/chayas/anaconda/envs/py35/share/psi4/basis/aug-cc-pvtz-ri.gbs 
    atoms 12    entry N          line   205 file /cbio/jclab/home/chayas/anaconda/envs/py35/share/psi4/basis/aug-cc-pvtz-ri.gbs 
    atoms 13-21 entry H          line    29 file /cbio/jclab/home/chayas/anaconda/envs/py35/share/psi4/basis/aug-cc-pvtz-ri.gbs 

	 --------------------------------------------------------
	                          DF-MP2                         
	      2nd-Order Density-Fitted Moller-Plesset Theory     
	              RMP2 Wavefunction,   8 Threads             
	                                                         
	        Rob Parrish, Justin Turney, Andy Simmonett,      
	           Ed Hohenstein, and C. David Sherrill          
	 --------------------------------------------------------

   => Auxiliary Basis Set <=

  Basis Set: (AUG-CC-PVTZ AUX)
    Blend: AUG-CC-PVTZ-RI
    Number of shells: 462
    Number of basis function: 1686
    Number of Cartesian functions: 2127
    Spherical Harmonics?: true
    Max angular momentum: 4

	 --------------------------------------------------------
	                 NBF =   759, NAUX =  1686
	 --------------------------------------------------------
	   CLASS    FOCC     OCC    AOCC    AVIR     VIR    FVIR
	   PAIRS       0      41      41     718     718       0
	 --------------------------------------------------------


         ------------------------------------------------------------
                                     CPHF                           
                                  Rob Parrish                       
         ------------------------------------------------------------

  ==> Geometry <==

    Molecular point group: c1
    Full point group: C1

    Geometry (in Angstrom), charge = 0, multiplicity = 1:

       Center              X                  Y                   Z               Mass       
    ------------   -----------------  -----------------  -----------------  -----------------
           C          0.110127378345     0.054257660633    -3.544259370921    12.000000000000
           C         -0.963471378208     0.622237986405    -2.871982133980    12.000000000000
           C          1.140728044426    -0.536313540660    -2.825429596071    12.000000000000
           C         -1.006668020825     0.598640065263    -1.484387941372    12.000000000000
           C          1.097233751254    -0.557544043848    -1.437808554868    12.000000000000
           C          1.098286272349     0.304198279684     1.469741179520    12.000000000000
           C         -1.186983356310    -0.348600656901     1.390202233464    12.000000000000
           C          1.005915456719     0.272661911905     2.852226568294    12.000000000000
           C         -1.180706368982    -0.352952934927     2.776182365393    12.000000000000
           C          0.022993822467     0.008154325204    -0.754182789303    12.000000000000
           C         -0.021757554152    -0.013182224619     0.709950365519    12.000000000000
           N         -0.109344444469    -0.049402829121     3.519358351756    14.003074004780
           H          0.143056637481     0.070790684518    -4.623741813336     1.007825032070
           H         -1.766004915725     1.083697509725    -3.428452332282     1.007825032070
           H          1.975669799726    -0.982166016483    -3.345564592039     1.007825032070
           H         -1.843542135903     1.048221930862    -0.969468788969     1.007825032070
           H          1.901186062201    -1.024066630649    -0.886695923857     1.007825032070
           H          2.027686587747     0.579913288492     0.995253499759     1.007825032070
           H         -2.084809155668    -0.609279570093     0.851005828065     1.007825032070
           H          1.859892736835     0.520335214027     3.468076928938     1.007825032070
           H         -2.071462431004    -0.614904518486     3.330787839409     1.007825032070

  Nuclear repulsion =  606.132994705962119
  Reference energy  = -476.401926017628796

  ==> Basis Set <==

  Basis Set: AUG-CC-PVTZ
    Blend: AUG-CC-PVTZ
    Number of shells: 249
    Number of basis function: 759
    Number of Cartesian functions: 885
    Spherical Harmonics?: true
    Max angular momentum: 3

  ==> CGRSolver (by Rob Parrish) <==

   Number of roots    =         1
   Preconditioning    =    JACOBI
   Convergence cutoff =     1E-06
   Maximum iterations =       100

  ==> CPHFRHamiltonian (by Rob Parrish) <== 

  ==> DFJK: Density-Fitted J/K Matrices <==

    J tasked:                  Yes
    K tasked:                  Yes
    wK tasked:                  No
    OpenMP threads:              8
    Integrals threads:           8
    Memory (MB):               375
    Algorithm:                Disk
    Integral Cache:           NONE
    Schwarz Cutoff:          1E-12
    Fitting Condition:       1E-12

   => Auxiliary Basis Set <=

  Basis Set: (AUG-CC-PVTZ AUX)
    Blend: AUG-CC-PVTZ-JKFIT
    Number of shells: 486
    Number of basis function: 1662
    Number of Cartesian functions: 2067
    Spherical Harmonics?: true
    Max angular momentum: 4

  ==> CPHF Iterations <==

  => Iterations <=

             Iter  Converged  Remaining    Residual
  CGR           1          0          1   8.023E-02
  CGR           2          0          1   2.854E-02
  CGR           3          0          1   1.977E-02
  CGR           4          0          1   8.688E-03
  CGR           5          0          1   2.460E-03
  CGR           6          0          1   8.552E-04
  CGR           7          0          1   3.622E-04
  CGR           8          0          1   1.340E-04
  CGR           9          0          1   6.811E-05
  CGR          10          0          1   3.036E-05
  CGR          11          0          1   6.929E-06
  CGR          12          0          1   2.196E-06
  CGR          13          1          0   6.857E-07

    CGRSolver converged.

  ==> DFCorrGrad: Density-Fitted Correlated Gradients <==

    OpenMP threads:              8
    Integrals threads:           8
    Memory (MB):               375
    Schwarz Cutoff:          0E+00
    Fitting Condition:       1E-12

   => Auxiliary Basis Set <=

  Basis Set: (AUG-CC-PVTZ AUX)
    Blend: AUG-CC-PVTZ-JKFIT
    Number of shells: 486
    Number of basis function: 1662
    Number of Cartesian functions: 2067
    Spherical Harmonics?: true
    Max angular momentum: 4

	-----------------------------------------------------------
	 ==================> DF-MP2 Energies <==================== 
	-----------------------------------------------------------
	 Reference Energy          =    -476.4019260176287958 [Eh]
	 Singles Energy            =      -0.0000000000000002 [Eh]
	 Same-Spin Energy          =      -0.5341550160749250 [Eh]
	 Opposite-Spin Energy      =      -1.6409648222919160 [Eh]
	 Correlation Energy        =      -2.1751198383668409 [Eh]
	 Total Energy              =    -478.5770458559956637 [Eh]
	-----------------------------------------------------------
	 ================> DF-SCS-MP2 Energies <================== 
	-----------------------------------------------------------
	 SCS Same-Spin Scale       =       0.3333333333333333 [-]
	 SCS Opposite-Spin Scale   =       1.2000000000000000 [-]
	 SCS Same-Spin Energy      =      -0.1780516720249750 [Eh]
	 SCS Opposite-Spin Energy  =      -1.9691577867502992 [Eh]
	 SCS Correlation Energy    =      -2.1472094587752744 [Eh]
	 SCS Total Energy          =    -478.5491354764040466 [Eh]
	-----------------------------------------------------------


  -Total Gradient:
     Atom            X                  Y                   Z
    ------   -----------------  -----------------  -----------------
       1       -0.000089691750     0.000126515873     0.000945724312
       2        0.000344649459     0.000255847792    -0.000882171539
       3       -0.000013839078    -0.000265791942    -0.000898834691
       4        0.001731913951     0.001313433592     0.002563027667
       5       -0.002013650321    -0.001060583467     0.002417249218
       6        0.000496958901     0.002004104061    -0.002812912388
       7       -0.000582196548    -0.001955622045    -0.002838490598
       8        0.001369378620     0.000630677039    -0.003795508798
       9       -0.001047794261    -0.000508525202    -0.003679611605
      10        0.000021379215    -0.000327532395    -0.001565130446
      11        0.000034688349    -0.000119270771     0.004557311181
      12       -0.000238595905    -0.000091926916     0.005654068773
      13        0.000001225759    -0.000022895244    -0.000660564482
      14       -0.000473040412     0.000008573568    -0.000517216585
      15        0.000395988886    -0.000085249492    -0.000465093803
      16       -0.001102724497    -0.000105044674    -0.000753611640
      17        0.001161320838     0.000132282527    -0.000682889594
      18        0.000363707054    -0.000471537056     0.000446759151
      19       -0.000315413930     0.000541035034     0.000370874372
      20       -0.000490056844    -0.000203267262     0.001320576874
      21        0.000445792509     0.000204776973     0.001276444610


*** tstop() called on gpu-1-16.local at Sat Nov 11 10:32:50 2017
Module time:
	user time   =    4630.07 seconds =      77.17 minutes
	system time =      84.31 seconds =       1.41 minutes
	total time  =       1546 seconds =      25.77 minutes
Total time:
	user time   =    9436.98 seconds =     157.28 minutes
	system time =     176.38 seconds =       2.94 minutes
	total time  =       3138 seconds =      52.30 minutes

			-----------------------------------------
			 OPTKING 2.0: for geometry optimizations 
			  - R.A. King,  Bethel University        
			-----------------------------------------

	Previous internal coordinate definitions found.
	---Fragment 1 Geometry and Gradient---
	 C           0.2081105848        0.1025321192       -6.6976795550
	 C          -1.8206970417        1.1758593838       -5.4272596918
	 C           2.1556635961       -1.0134857132       -5.3392881443
	 C          -1.9023268661        1.1312657755       -2.8050866842
	 C           2.0734712936       -1.0536055499       -2.7170644002
	 C           2.0754602702        0.5748514387        2.7774083155
	 C          -2.2430734677       -0.6587597713        2.6271014906
	 C           1.9009047260        0.5152563404        5.3899270830
	 C          -2.2312116807       -0.6669843848        5.2462243655
	 C           0.0434520272        0.0154094414       -1.4251989259
	 C          -0.0411158187       -0.0249107944        1.3416117588
	 N          -0.2066310542       -0.0933578172        6.6506234483
	 H           0.2703378663        0.1337750065       -8.7376057364
	 H          -3.3372656400        2.0478915043       -6.4788359677
	 H           3.7334748505       -1.8560247882       -6.3222008388
	 H          -3.4837897513        1.9808523758       -1.8320305055
	 H           3.5927209852       -1.9352054738       -1.6756124592
	 H           3.8317723342        1.0958772961        1.8807565473
	 H          -3.9397183435       -1.1513715258        1.6081679525
	 H           3.5146879092        0.9832910518        6.5537156035
	 H          -3.9144966892       -1.1620011378        6.2942768232
	            -0.0000896918        0.0001265159        0.0009457243
	             0.0003446495        0.0002558478       -0.0008821715
	            -0.0000138391       -0.0002657919       -0.0008988347
	             0.0017319140        0.0013134336        0.0025630277
	            -0.0020136503       -0.0010605835        0.0024172492
	             0.0004969589        0.0020041041       -0.0028129124
	            -0.0005821965       -0.0019556220       -0.0028384906
	             0.0013693786        0.0006306770       -0.0037955088
	            -0.0010477943       -0.0005085252       -0.0036796116
	             0.0000213792       -0.0003275324       -0.0015651304
	             0.0000346883       -0.0001192708        0.0045573112
	            -0.0002385959       -0.0000919269        0.0056540688
	             0.0000012258       -0.0000228952       -0.0006605645
	            -0.0004730404        0.0000085736       -0.0005172166
	             0.0003959889       -0.0000852495       -0.0004650938
	            -0.0011027245       -0.0001050447       -0.0007536116
	             0.0011613208        0.0001322825       -0.0006828896
	             0.0003637071       -0.0004715371        0.0004467592
	            -0.0003154139        0.0005410350        0.0003708744
	            -0.0004900568       -0.0002032673        0.0013205769
	             0.0004457925        0.0002047770        0.0012764446

	---Fragment 1 Intrafragment Coordinates---
	 - Coordinate -           - BOHR/RAD -       - ANG/DEG -
	 R(1,2)           =         2.623368	       1.388226
	 R(1,3)           =         2.623678	       1.388391
	 R(1,13)          =         2.041114	       1.080111
	 R(2,4)           =         2.623822	       1.388467
	 R(2,14)          =         2.041135	       1.080122
	 R(3,5)           =         2.623818	       1.388465
	 R(3,15)          =         2.040950	       1.080024
	 R(4,10)          =         2.633492	       1.393584
	 R(4,16)          =         2.041975	       1.080566
	 R(5,10)          =         2.633000	       1.393323
	 R(5,17)          =         2.042048	       1.080605
	 R(6,8)           =         2.619022	       1.385927
	 R(6,11)          =         2.626998	       1.390148
	 R(6,18)          =         2.039628	       1.079325
	 R(7,9)           =         2.619163	       1.386001
	 R(7,11)          =         2.627331	       1.390323
	 R(7,19)          =         2.039484	       1.079249
	 R(8,12)          =         2.530113	       1.338878
	 R(8,20)          =         2.043956	       1.081615
	 R(9,12)          =         2.529884	       1.338757
	 R(9,21)          =         2.043748	       1.081505
	 R(10,11)         =         2.768396	       1.464972
	 B(1,2,4)         =         2.095634	     120.070988
	 B(1,2,14)        =         2.094295	     119.994245
	 B(1,3,5)         =         2.095180	     120.044985
	 B(1,3,15)        =         2.094521	     120.007185
	 B(2,1,3)         =         2.091361	     119.826165
	 B(2,1,13)        =         2.095901	     120.086274
	 B(2,4,10)        =         2.103497	     120.521506
	 B(2,4,16)        =         2.086619	     119.554490
	 B(3,1,13)        =         2.095923	     120.087528
	 B(3,5,10)        =         2.103994	     120.549951
	 B(3,5,17)        =         2.086319	     119.537257
	 B(4,2,14)        =         2.093256	     119.934755
	 B(4,10,5)        =         2.076702	     118.986247
	 B(4,10,11)       =         2.102819	     120.482630
	 B(5,3,15)        =         2.093480	     119.947595
	 B(5,10,11)       =         2.103659	     120.530808
	 B(6,8,12)        =         2.162807	     123.919700
	 B(6,8,20)        =         2.106137	     120.672758
	 B(6,11,7)        =         2.052082	     117.575664
	 B(6,11,10)       =         2.115662	     121.218525
	 B(7,9,12)        =         2.162804	     123.919520
	 B(7,9,21)        =         2.105786	     120.652632
	 B(7,11,10)       =         2.115438	     121.205644
	 B(8,6,11)        =         2.078650	     119.097847
	 B(8,6,18)        =         2.096391	     120.114361
	 B(8,12,9)        =         2.031460	     116.394111
	 B(9,7,11)        =         2.078567	     119.093123
	 B(9,7,19)        =         2.097406	     120.172498
	 B(10,4,16)       =         2.093048	     119.922807
	 B(10,5,17)       =         2.092845	     119.911173
	 B(11,6,18)       =         2.108113	     120.785970
	 B(11,7,19)       =         2.107190	     120.733088
	 B(12,8,20)       =         2.014230	     115.406891
	 B(12,9,21)       =         2.014588	     115.427387
	 D(1,2,4,10)      =         0.000870	       0.049874
	 D(1,2,4,16)      =         3.135512	     179.651576
	 D(1,3,5,10)      =         0.002364	       0.135454
	 D(1,3,5,17)      =         3.135871	     179.672172
	 D(2,1,3,5)       =        -0.000708	      -0.040572
	 D(2,1,3,15)      =         3.137807	     179.783087
	 D(2,4,10,5)      =         0.000757	       0.043386
	 D(2,4,10,11)     =         3.138805	     179.840253
	 D(3,1,2,4)       =        -0.000899	      -0.051496
	 D(3,1,2,14)      =         3.140012	     179.909433
	 D(3,5,10,4)      =        -0.002373	      -0.135982
	 D(3,5,10,11)     =        -3.140419	    -179.932749
	 D(4,2,1,13)      =         3.139534	     179.882060
	 D(4,10,5,17)     =        -3.135850	    -179.670971
	 D(4,10,11,6)     =        -2.357897	    -135.097525
	 D(4,10,11,7)     =         0.781043	      44.750455
	 D(5,3,1,13)      =        -3.141141	    -179.974127
	 D(5,10,4,16)     =        -3.133858	    -179.556851
	 D(5,10,11,6)     =         0.780096	      44.696186
	 D(5,10,11,7)     =        -2.364150	    -135.455833
	 D(6,8,12,9)      =        -0.000616	      -0.035280
	 D(6,11,7,9)      =        -0.000963	      -0.055160
	 D(6,11,7,19)     =        -3.135355	    -179.642593
	 D(7,9,12,8)      =        -0.000253	      -0.014520
	 D(7,11,6,8)      =         0.000173	       0.009905
	 D(7,11,6,18)     =        -3.132858	    -179.499556
	 D(8,6,11,10)     =         3.139205	     179.863217
	 D(8,12,9,21)     =         3.137038	     179.739047
	 D(9,7,11,10)     =        -3.139996	    -179.908492
	 D(9,12,8,20)     =         3.135872	     179.672208
	 D(10,4,2,14)     =        -3.140041	    -179.911079
	 D(10,5,3,15)     =        -3.136153	    -179.688311
	 D(10,11,6,18)    =         0.006174	       0.353756
	 D(10,11,7,19)    =         0.008798	       0.504075
	 D(11,6,8,12)     =         0.000656	       0.037570
	 D(11,6,8,20)     =        -3.135575	    -179.655230
	 D(11,7,9,12)     =         0.001053	       0.060361
	 D(11,7,9,21)     =        -3.136024	    -179.680930
	 D(11,10,4,16)    =         0.004189	       0.240016
	 D(11,10,5,17)    =         0.009290	       0.532263
	 D(12,8,6,18)     =         3.133746	     179.550400
	 D(12,9,7,19)     =         3.135487	     179.650160
	 D(13,1,2,14)     =        -0.002740	      -0.157011
	 D(13,1,3,15)     =        -0.002626	      -0.150468
	 D(14,2,4,16)     =        -0.005400	      -0.309377
	 D(15,3,5,17)     =        -0.002646	      -0.151593
	 D(18,6,8,20)     =        -0.002485	      -0.142400
	 D(19,7,9,21)     =        -0.001591	      -0.091131

	Current energy   :      -478.5770458560

	Energy change for the previous step:
		Projected    :        -0.0038131158
		Actual       :        -0.0020579068

	Performing BFGS update.
	Previous computed or guess Hessian on step 1.
	Steps to be used in Hessian update: 1
	Adding user-defined constraint: Fragment 1; Coordinate 71:
		Value =    -2.357897; Fixed value    =    -2.356190
		Force =     0.000896; Force constant =     0.525000
	Removing off-diagonal coupling between coordinate 71 and others.
	Taking RFO optimization step.
	Going to follow RFO solution 1.
	Using RFO vector 1.
	Norm of target step-size    0.09789
	Projected energy change by RFO approximation:        -0.0006012790

	Back-transformation to cartesian coordinates...
	The INTCO_EXCEPTion handler:
	TORS::compute_val: unable to compute torsion value
	Dynamic level is 0.
	exc.g_really_quit() is 0.

  **** Optimization has failed! (in 2 steps) ****
			--------------------------
			 OPTKING Finished Execution 
			--------------------------
	Cleaning optimization helper files.

*** Psi4 exiting successfully. Buy a developer a beer!
