
    -----------------------------------------------------------------------
          Psi4: An Open-Source Ab Initio Electronic Structure Package
                               Psi4 1.1 release

                         Git: Rev {HEAD} add49b9 


    R. M. Parrish, L. A. Burns, D. G. A. Smith, A. C. Simmonett,
    A. E. DePrince III, E. G. Hohenstein, U. Bozkaya, A. Yu. Sokolov,
    R. Di Remigio, R. M. Richard, J. F. Gonthier, A. M. James,
    H. R. McAlexander, A. Kumar, M. Saitow, X. Wang, B. P. Pritchard,
    P. Verma, H. F. Schaefer III, K. Patkowski, R. A. King, E. F. Valeev,
    F. A. Evangelista, J. M. Turney, T. D. Crawford, and C. D. Sherrill,
    J. Chem. Theory Comput. in press (2017).
    (doi: 10.1021/acs.jctc.7b00174)

    -----------------------------------------------------------------------


    Psi4 started on: Saturday, 11 November 2017 06:16PM

    Process ID:   1914
    PSIDATADIR: /cbio/jclab/home/chayas/anaconda/envs/py35/share/psi4
    Memory:     500.0 MiB
    Threads:    8
    
  ==> Input File <==

--------------------------------------------------------------------------

memory 5 Gb

molecule phepyrFOH_cation {
  symmetry C1
  1 1 
  C      1.885   -1.036   -0.112
  C      0.807   -0.463   0.561
  C      3.812   -3.038   -1.201
  C      5.339   -1.984   0.335
  C      1.800   -1.079   2.676
  C      4.901   -3.594   -1.855
  C      6.391   -2.567   -0.359
  C      2.921   -1.631   0.608
  C      4.038   -2.225   -0.095
  C      0.764   -0.484   1.955
  C      2.878   -1.652   2.002
  N      6.144   -3.346   -1.421
  O      -0.289   0.076   2.612
  F      3.866   -2.220   2.709
  H      1.904   -1.012   -1.199
  H      0.002   -0.002   -0.006
  H      2.807   -3.243   -1.558
  H      5.545   -1.354   1.195
  H      1.772   -1.099   3.762
  H      4.821   -4.236   -2.722
  H      7.431   -2.436   -0.097
  H      6.931   -3.766   -1.915
  H      -0.175   -0.018   3.571
  units Angstrom
}

dih_string = "1 8 9 3 315"
set optking fixed_dihedral = $dih_string

optimize('MP2/aug-cc-PVTZ')
--------------------------------------------------------------------------

  Memory set to   4.657 GiB by Python driver.
gradient() will perform analytic gradient computation.

*** tstart() called on gpu-1-7.local
*** at Sat Nov 11 18:16:21 2017

    SCF Algorithm Type (re)set to DF.

*** tstart() called on gpu-1-7.local
*** at Sat Nov 11 18:16:21 2017

   => Loading Basis Set <=

    Name: AUG-CC-PVTZ
    Role: ORBITAL
    Keyword: BASIS
    atoms 1-11  entry C          line   221 file /cbio/jclab/home/chayas/anaconda/envs/py35/share/psi4/basis/aug-cc-pvtz.gbs 
    atoms 12    entry N          line   267 file /cbio/jclab/home/chayas/anaconda/envs/py35/share/psi4/basis/aug-cc-pvtz.gbs 
    atoms 13    entry O          line   313 file /cbio/jclab/home/chayas/anaconda/envs/py35/share/psi4/basis/aug-cc-pvtz.gbs 
    atoms 14    entry F          line   359 file /cbio/jclab/home/chayas/anaconda/envs/py35/share/psi4/basis/aug-cc-pvtz.gbs 
    atoms 15-23 entry H          line    34 file /cbio/jclab/home/chayas/anaconda/envs/py35/share/psi4/basis/aug-cc-pvtz.gbs 


         ---------------------------------------------------------
                                   SCF
            by Justin Turney, Rob Parrish, and Andy Simmonett
                              RHF Reference
                        8 Threads,   4768 MiB Core
         ---------------------------------------------------------

  ==> Geometry <==

    Molecular point group: c1
    Full point group: C1

    Geometry (in Angstrom), charge = 1, multiplicity = 1:

       Center              X                  Y                   Z               Mass       
    ------------   -----------------  -----------------  -----------------  -----------------
           C         -1.337935311892     0.764164052414    -0.788425757552    12.000000000000
           C         -2.415935311892     1.337164052414    -0.115425757552    12.000000000000
           C          0.589064688108    -1.237835947586    -1.877425757552    12.000000000000
           C          2.116064688108    -0.183835947586    -0.341425757552    12.000000000000
           C         -1.422935311892     0.721164052414     1.999574242448    12.000000000000
           C          1.678064688108    -1.793835947586    -2.531425757552    12.000000000000
           C          3.168064688108    -0.766835947586    -1.035425757552    12.000000000000
           C         -0.301935311892     0.169164052414    -0.068425757552    12.000000000000
           C          0.815064688108    -0.424835947586    -0.771425757552    12.000000000000
           C         -2.458935311892     1.316164052414     1.278574242448    12.000000000000
           C         -0.344935311892     0.148164052414     1.325574242448    12.000000000000
           N          2.921064688108    -1.545835947586    -2.097425757552    14.003074004780
           O         -3.511935311892     1.876164052414     1.935574242448    15.994914619560
           F          0.643064688108    -0.419835947586     2.032574242448    18.998403224000
           H         -1.318935311892     0.788164052414    -1.875425757552     1.007825032070
           H         -3.220935311892     1.798164052414    -0.682425757552     1.007825032070
           H         -0.415935311892    -1.442835947586    -2.234425757552     1.007825032070
           H          2.322064688108     0.446164052414     0.518574242448     1.007825032070
           H         -1.450935311892     0.701164052414     3.085574242448     1.007825032070
           H          1.598064688108    -2.435835947586    -3.398425757552     1.007825032070
           H          4.208064688108    -0.635835947586    -0.773425757552     1.007825032070
           H          3.708064688108    -1.965835947586    -2.591425757552     1.007825032070
           H         -3.397935311892     1.782164052414     2.894574242448     1.007825032070

  Running in c1 symmetry.

  Rotational constants: A =      0.06291  B =      0.01311  C =      0.01133 [cm^-1]
  Rotational constants: A =   1886.14303  B =    392.93426  C =    339.75017 [MHz]
  Nuclear repulsion =  830.653770377114711

  Charge       = 1
  Multiplicity = 1
  Electrons    = 98
  Nalpha       = 49
  Nbeta        = 49

  ==> Algorithm <==

  SCF Algorithm Type is DF.
  DIIS enabled.
  MOM disabled.
  Fractional occupation disabled.
  Guess Type is SAD.
  Energy threshold   = 1.00e-10
  Density threshold  = 1.00e-10
  Integral threshold = 0.00e+00

  ==> Primary Basis <==

  Basis Set: AUG-CC-PVTZ
    Blend: AUG-CC-PVTZ
    Number of shells: 277
    Number of basis function: 851
    Number of Cartesian functions: 995
    Spherical Harmonics?: true
    Max angular momentum: 3

   => Loading Basis Set <=

    Name: (AUG-CC-PVTZ AUX)
    Role: JKFIT
    Keyword: DF_BASIS_SCF
    atoms 1-11  entry C          line   161 file /cbio/jclab/home/chayas/anaconda/envs/py35/share/psi4/basis/aug-cc-pvtz-jkfit.gbs 
    atoms 12    entry N          line   223 file /cbio/jclab/home/chayas/anaconda/envs/py35/share/psi4/basis/aug-cc-pvtz-jkfit.gbs 
    atoms 13    entry O          line   285 file /cbio/jclab/home/chayas/anaconda/envs/py35/share/psi4/basis/aug-cc-pvtz-jkfit.gbs 
    atoms 14    entry F          line   347 file /cbio/jclab/home/chayas/anaconda/envs/py35/share/psi4/basis/aug-cc-pvtz-jkfit.gbs 
    atoms 15-23 entry H          line    69 file /cbio/jclab/home/chayas/anaconda/envs/py35/share/psi4/basis/aug-cc-pvtz-jkfit.gbs 

  ==> Pre-Iterations <==

   -------------------------------------------------------
    Irrep   Nso     Nmo     Nalpha   Nbeta   Ndocc  Nsocc
   -------------------------------------------------------
     A        851     851       0       0       0       0
   -------------------------------------------------------
    Total     851     851      49      49      49       0
   -------------------------------------------------------

  ==> Integral Setup <==

  ==> DFJK: Density-Fitted J/K Matrices <==

    J tasked:                  Yes
    K tasked:                  Yes
    wK tasked:                  No
    OpenMP threads:              8
    Integrals threads:           8
    Memory (MB):              3576
    Algorithm:                Disk
    Integral Cache:           NONE
    Schwarz Cutoff:          1E-12
    Fitting Condition:       1E-12

   => Auxiliary Basis Set <=

  Basis Set: (AUG-CC-PVTZ AUX)
    Blend: AUG-CC-PVTZ-JKFIT
    Number of shells: 546
    Number of basis function: 1870
    Number of Cartesian functions: 2329
    Spherical Harmonics?: true
    Max angular momentum: 4

  Minimum eigenvalue in the overlap matrix is 6.6137844655E-07.
  Using Symmetric Orthogonalization.

  SCF Guess: Superposition of Atomic Densities via on-the-fly atomic UHF.

  ==> Iterations <==

                           Total Energy        Delta E     RMS |[F,P]|

   @DF-RHF iter   0:  -656.07317808157052   -6.56073e+02   2.48346e-02 
   @DF-RHF iter   1:  -650.25505078673086    5.81813e+00   2.16409e-03 
   @DF-RHF iter   2:  -650.50944255408410   -2.54392e-01   7.99424e-04 DIIS
   @DF-RHF iter   3:  -650.55006083953799   -4.06183e-02   3.73804e-04 DIIS
   @DF-RHF iter   4:  -650.56023633144059   -1.01755e-02   9.90101e-05 DIIS
   @DF-RHF iter   5:  -650.56141832517699   -1.18199e-03   3.82070e-05 DIIS
   @DF-RHF iter   6:  -650.56160580664266   -1.87481e-04   1.03809e-05 DIIS
   @DF-RHF iter   7:  -650.56162393470902   -1.81281e-05   4.08126e-06 DIIS
   @DF-RHF iter   8:  -650.56162568914965   -1.75444e-06   1.77646e-06 DIIS
   @DF-RHF iter   9:  -650.56162610290392   -4.13754e-07   7.75856e-07 DIIS
   @DF-RHF iter  10:  -650.56162623228022   -1.29376e-07   4.30527e-07 DIIS
   @DF-RHF iter  11:  -650.56162626720743   -3.49272e-08   1.69290e-07 DIIS
   @DF-RHF iter  12:  -650.56162627493643   -7.72900e-09   6.03996e-08 DIIS
   @DF-RHF iter  13:  -650.56162627562469   -6.88260e-10   2.26532e-08 DIIS
   @DF-RHF iter  14:  -650.56162627573997   -1.15278e-10   6.91425e-09 DIIS
   @DF-RHF iter  15:  -650.56162627575134   -1.13687e-11   2.91867e-09 DIIS
   @DF-RHF iter  16:  -650.56162627575202   -6.82121e-13   1.47593e-09 DIIS
   @DF-RHF iter  17:  -650.56162627573985    1.21645e-11   4.80974e-10 DIIS
   @DF-RHF iter  18:  -650.56162627572883    1.10276e-11   2.26821e-10 DIIS
   @DF-RHF iter  19:  -650.56162627574599   -1.71667e-11   8.11421e-11 DIIS

  ==> Post-Iterations <==

    Orbital Energies (a.u.)
    -----------------------

    Doubly Occupied:                                                      

       1A    -26.448798     2A    -20.709249     3A    -15.838530  
       4A    -11.486964     5A    -11.485276     6A    -11.473486  
       7A    -11.450039     8A    -11.443157     9A    -11.418907  
      10A    -11.416759    11A    -11.387738    12A    -11.380080  
      13A    -11.364370    14A    -11.356729    15A     -1.767674  
      16A     -1.523650    17A     -1.514618    18A     -1.325383  
      19A     -1.272021    20A     -1.239650    21A     -1.165193  
      22A     -1.155382    23A     -1.071248    24A     -1.060534  
      25A     -0.993846    26A     -0.969002    27A     -0.962052  
      28A     -0.894586    29A     -0.872370    30A     -0.859979  
      31A     -0.857062    32A     -0.834292    33A     -0.819295  
      34A     -0.808716    35A     -0.793854    36A     -0.777791  
      37A     -0.762006    38A     -0.750958    39A     -0.727830  
      40A     -0.714567    41A     -0.708231    42A     -0.688572  
      43A     -0.655955    44A     -0.647753    45A     -0.629046  
      46A     -0.576040    47A     -0.538170    48A     -0.473540  
      49A     -0.446744  

    Virtual:                                                              

      50A     -0.105894    51A     -0.085272    52A     -0.063837  
      53A     -0.062432    54A     -0.057233    55A     -0.049282  
      56A     -0.042690    57A     -0.039847    58A     -0.033942  
      59A     -0.028460    60A     -0.024626    61A     -0.019826  
      62A     -0.014884    63A     -0.011236    64A     -0.006882  
      65A     -0.000977    66A      0.003659    67A      0.006494  
      68A      0.009771    69A      0.013432    70A      0.017618  
      71A      0.020637    72A      0.023709    73A      0.026741  
      74A      0.030868    75A      0.033648    76A      0.036637  
      77A      0.039186    78A      0.041607    79A      0.041797  
      80A      0.049308    81A      0.053539    82A      0.056226  
      83A      0.064095    84A      0.066482    85A      0.068384  
      86A      0.070412    87A      0.077643    88A      0.080831  
      89A      0.081724    90A      0.085120    91A      0.093031  
      92A      0.096152    93A      0.105005    94A      0.110138  
      95A      0.114651    96A      0.116700    97A      0.118883  
      98A      0.121300    99A      0.127151   100A      0.132558  
     101A      0.135407   102A      0.137015   103A      0.137814  
     104A      0.141695   105A      0.152609   106A      0.156450  
     107A      0.160165   108A      0.161224   109A      0.164532  
     110A      0.168218   111A      0.169230   112A      0.173922  
     113A      0.177286   114A      0.183341   115A      0.185059  
     116A      0.192410   117A      0.194506   118A      0.199814  
     119A      0.202879   120A      0.204868   121A      0.207399  
     122A      0.212940   123A      0.216198   124A      0.219795  
     125A      0.220561   126A      0.224468   127A      0.230208  
     128A      0.235843   129A      0.239632   130A      0.241646  
     131A      0.243184   132A      0.247001   133A      0.248653  
     134A      0.256836   135A      0.264735   136A      0.267870  
     137A      0.273255   138A      0.275084   139A      0.279525  
     140A      0.282436   141A      0.286773   142A      0.293198  
     143A      0.296789   144A      0.304172   145A      0.304534  
     146A      0.311950   147A      0.312712   148A      0.318633  
     149A      0.320020   150A      0.322400   151A      0.327961  
     152A      0.330294   153A      0.335558   154A      0.338080  
     155A      0.341234   156A      0.344310   157A      0.345516  
     158A      0.348716   159A      0.349763   160A      0.359463  
     161A      0.361289   162A      0.364909   163A      0.368642  
     164A      0.371674   165A      0.374670   166A      0.377760  
     167A      0.378118   168A      0.386671   169A      0.390095  
     170A      0.392570   171A      0.396629   172A      0.400548  
     173A      0.402096   174A      0.405744   175A      0.410288  
     176A      0.411772   177A      0.418076   178A      0.421400  
     179A      0.424699   180A      0.428151   181A      0.430172  
     182A      0.434195   183A      0.437815   184A      0.442092  
     185A      0.448873   186A      0.455607   187A      0.461079  
     188A      0.464338   189A      0.469052   190A      0.475228  
     191A      0.479787   192A      0.481214   193A      0.486942  
     194A      0.491354   195A      0.504452   196A      0.510086  
     197A      0.522215   198A      0.524005   199A      0.530078  
     200A      0.536963   201A      0.544855   202A      0.546914  
     203A      0.550775   204A      0.563948   205A      0.568043  
     206A      0.572774   207A      0.573545   208A      0.578342  
     209A      0.581323   210A      0.584173   211A      0.594074  
     212A      0.601636   213A      0.605884   214A      0.610078  
     215A      0.613999   216A      0.616673   217A      0.623021  
     218A      0.629332   219A      0.631203   220A      0.636769  
     221A      0.637998   222A      0.647385   223A      0.656154  
     224A      0.658459   225A      0.669004   226A      0.673722  
     227A      0.683680   228A      0.692135   229A      0.698534  
     230A      0.700183   231A      0.707434   232A      0.712554  
     233A      0.714283   234A      0.718237   235A      0.725459  
     236A      0.727490   237A      0.730355   238A      0.736580  
     239A      0.741508   240A      0.748340   241A      0.749168  
     242A      0.756798   243A      0.764384   244A      0.766632  
     245A      0.770497   246A      0.779974   247A      0.783189  
     248A      0.786054   249A      0.787773   250A      0.791288  
     251A      0.798199   252A      0.799464   253A      0.808478  
     254A      0.810316   255A      0.813390   256A      0.820198  
     257A      0.824940   258A      0.831334   259A      0.835434  
     260A      0.840003   261A      0.846712   262A      0.852093  
     263A      0.853866   264A      0.861922   265A      0.867884  
     266A      0.868597   267A      0.875578   268A      0.876651  
     269A      0.881553   270A      0.886209   271A      0.888434  
     272A      0.900756   273A      0.903945   274A      0.910010  
     275A      0.912700   276A      0.917366   277A      0.921737  
     278A      0.925869   279A      0.927988   280A      0.931364  
     281A      0.936820   282A      0.937773   283A      0.942692  
     284A      0.951384   285A      0.953049   286A      0.955643  
     287A      0.960973   288A      0.966304   289A      0.971085  
     290A      0.975252   291A      0.979865   292A      0.988304  
     293A      0.989074   294A      0.993114   295A      0.994881  
     296A      1.002180   297A      1.005198   298A      1.009858  
     299A      1.012984   300A      1.017645   301A      1.019599  
     302A      1.023404   303A      1.034325   304A      1.035907  
     305A      1.047710   306A      1.049315   307A      1.053224  
     308A      1.059948   309A      1.063971   310A      1.069789  
     311A      1.079493   312A      1.082141   313A      1.087648  
     314A      1.089101   315A      1.093878   316A      1.097441  
     317A      1.105610   318A      1.111339   319A      1.114818  
     320A      1.120080   321A      1.125848   322A      1.132828  
     323A      1.136903   324A      1.139208   325A      1.142730  
     326A      1.149533   327A      1.157190   328A      1.158824  
     329A      1.165376   330A      1.175061   331A      1.189420  
     332A      1.190537   333A      1.197618   334A      1.208000  
     335A      1.214949   336A      1.217792   337A      1.225328  
     338A      1.235494   339A      1.243220   340A      1.244729  
     341A      1.254794   342A      1.257206   343A      1.261047  
     344A      1.263087   345A      1.269431   346A      1.282823  
     347A      1.288898   348A      1.293435   349A      1.299048  
     350A      1.299589   351A      1.309708   352A      1.316888  
     353A      1.319278   354A      1.324870   355A      1.337587  
     356A      1.344978   357A      1.353906   358A      1.358684  
     359A      1.364187   360A      1.371994   361A      1.382984  
     362A      1.385565   363A      1.390196   364A      1.392451  
     365A      1.403722   366A      1.413173   367A      1.422452  
     368A      1.430606   369A      1.434715   370A      1.446087  
     371A      1.449450   372A      1.462173   373A      1.466144  
     374A      1.472718   375A      1.477862   376A      1.490178  
     377A      1.498722   378A      1.503334   379A      1.513868  
     380A      1.520240   381A      1.523166   382A      1.530029  
     383A      1.537475   384A      1.542783   385A      1.549951  
     386A      1.554020   387A      1.562332   388A      1.567889  
     389A      1.573699   390A      1.576248   391A      1.585939  
     392A      1.595999   393A      1.611273   394A      1.615774  
     395A      1.628774   396A      1.642085   397A      1.652267  
     398A      1.657779   399A      1.658938   400A      1.663138  
     401A      1.666012   402A      1.675766   403A      1.685099  
     404A      1.690151   405A      1.697809   406A      1.707892  
     407A      1.712674   408A      1.720972   409A      1.731549  
     410A      1.737003   411A      1.740004   412A      1.754445  
     413A      1.763513   414A      1.770519   415A      1.778508  
     416A      1.791002   417A      1.795664   418A      1.803045  
     419A      1.806648   420A      1.811581   421A      1.817368  
     422A      1.823497   423A      1.832837   424A      1.845182  
     425A      1.850073   426A      1.858893   427A      1.861792  
     428A      1.869339   429A      1.873027   430A      1.880525  
     431A      1.887787   432A      1.901339   433A      1.906834  
     434A      1.912496   435A      1.918399   436A      1.924361  
     437A      1.932421   438A      1.940915   439A      1.948786  
     440A      1.950078   441A      1.962859   442A      1.978416  
     443A      1.992685   444A      1.997952   445A      1.998982  
     446A      2.010091   447A      2.015163   448A      2.029580  
     449A      2.035369   450A      2.044378   451A      2.048964  
     452A      2.053116   453A      2.062393   454A      2.078355  
     455A      2.081894   456A      2.087257   457A      2.093475  
     458A      2.105206   459A      2.109052   460A      2.134642  
     461A      2.151319   462A      2.167371   463A      2.168844  
     464A      2.182679   465A      2.185661   466A      2.189233  
     467A      2.200899   468A      2.208715   469A      2.218108  
     470A      2.227315   471A      2.235553   472A      2.239916  
     473A      2.254023   474A      2.263937   475A      2.271301  
     476A      2.275711   477A      2.297783   478A      2.302077  
     479A      2.321704   480A      2.327202   481A      2.342967  
     482A      2.349583   483A      2.363584   484A      2.366889  
     485A      2.381706   486A      2.395467   487A      2.400956  
     488A      2.407986   489A      2.419184   490A      2.426998  
     491A      2.435454   492A      2.438902   493A      2.467735  
     494A      2.470667   495A      2.484224   496A      2.497914  
     497A      2.514801   498A      2.526293   499A      2.540751  
     500A      2.556188   501A      2.558009   502A      2.581156  
     503A      2.588607   504A      2.595018   505A      2.607325  
     506A      2.623722   507A      2.626109   508A      2.638921  
     509A      2.680615   510A      2.700764   511A      2.721593  
     512A      2.726563   513A      2.742875   514A      2.766210  
     515A      2.767840   516A      2.780764   517A      2.800810  
     518A      2.817426   519A      2.835136   520A      2.862392  
     521A      2.896783   522A      2.926505   523A      2.931635  
     524A      2.939237   525A      2.952643   526A      2.962585  
     527A      2.973765   528A      2.989642   529A      3.004688  
     530A      3.015745   531A      3.025645   532A      3.034839  
     533A      3.044066   534A      3.057198   535A      3.074015  
     536A      3.076727   537A      3.096688   538A      3.118442  
     539A      3.142788   540A      3.153569   541A      3.156296  
     542A      3.164193   543A      3.173737   544A      3.187662  
     545A      3.195751   546A      3.199178   547A      3.221854  
     548A      3.223061   549A      3.234031   550A      3.250523  
     551A      3.252923   552A      3.271105   553A      3.271771  
     554A      3.278869   555A      3.301323   556A      3.308733  
     557A      3.321922   558A      3.331468   559A      3.339238  
     560A      3.345292   561A      3.346546   562A      3.356231  
     563A      3.365998   564A      3.374835   565A      3.385844  
     566A      3.386887   567A      3.400754   568A      3.408911  
     569A      3.414293   570A      3.421525   571A      3.428679  
     572A      3.434932   573A      3.445037   574A      3.455135  
     575A      3.470104   576A      3.474831   577A      3.487948  
     578A      3.498372   579A      3.501189   580A      3.509800  
     581A      3.516463   582A      3.532293   583A      3.539288  
     584A      3.547362   585A      3.558798   586A      3.564701  
     587A      3.571673   588A      3.593630   589A      3.595112  
     590A      3.601047   591A      3.616019   592A      3.635112  
     593A      3.636586   594A      3.642122   595A      3.651040  
     596A      3.660759   597A      3.668037   598A      3.680689  
     599A      3.685817   600A      3.694945   601A      3.705961  
     602A      3.716288   603A      3.717857   604A      3.720432  
     605A      3.729382   606A      3.747410   607A      3.753523  
     608A      3.758878   609A      3.762883   610A      3.779455  
     611A      3.782081   612A      3.790566   613A      3.795740  
     614A      3.809321   615A      3.813149   616A      3.822553  
     617A      3.833956   618A      3.837985   619A      3.847465  
     620A      3.865980   621A      3.870278   622A      3.877079  
     623A      3.878903   624A      3.889989   625A      3.894093  
     626A      3.898902   627A      3.916492   628A      3.927805  
     629A      3.932508   630A      3.948522   631A      3.963620  
     632A      3.966491   633A      3.975214   634A      3.989529  
     635A      3.992187   636A      3.996241   637A      4.014627  
     638A      4.023672   639A      4.026335   640A      4.037303  
     641A      4.044600   642A      4.054215   643A      4.062312  
     644A      4.070472   645A      4.072978   646A      4.097585  
     647A      4.105086   648A      4.112830   649A      4.116717  
     650A      4.125859   651A      4.130381   652A      4.143279  
     653A      4.159684   654A      4.169527   655A      4.175632  
     656A      4.186195   657A      4.195655   658A      4.203774  
     659A      4.204667   660A      4.217090   661A      4.225902  
     662A      4.228023   663A      4.237043   664A      4.246509  
     665A      4.247852   666A      4.258370   667A      4.262846  
     668A      4.272722   669A      4.286030   670A      4.288004  
     671A      4.297598   672A      4.308161   673A      4.317672  
     674A      4.334816   675A      4.336941   676A      4.343498  
     677A      4.356680   678A      4.365252   679A      4.374668  
     680A      4.395077   681A      4.398739   682A      4.406434  
     683A      4.413547   684A      4.428425   685A      4.442419  
     686A      4.447529   687A      4.459182   688A      4.467771  
     689A      4.477654   690A      4.488267   691A      4.499030  
     692A      4.511623   693A      4.537234   694A      4.566947  
     695A      4.574752   696A      4.581243   697A      4.595001  
     698A      4.597904   699A      4.619211   700A      4.632788  
     701A      4.640242   702A      4.643601   703A      4.652590  
     704A      4.672197   705A      4.684306   706A      4.700121  
     707A      4.718351   708A      4.730814   709A      4.738574  
     710A      4.753406   711A      4.761612   712A      4.775478  
     713A      4.782963   714A      4.815173   715A      4.817640  
     716A      4.823562   717A      4.837761   718A      4.844073  
     719A      4.856199   720A      4.875252   721A      4.884184  
     722A      4.907262   723A      4.917517   724A      4.923834  
     725A      4.943552   726A      4.954723   727A      4.957054  
     728A      4.960147   729A      4.970721   730A      4.991143  
     731A      5.006116   732A      5.014779   733A      5.024293  
     734A      5.028878   735A      5.040520   736A      5.046359  
     737A      5.065820   738A      5.084474   739A      5.089582  
     740A      5.112677   741A      5.121880   742A      5.145187  
     743A      5.157923   744A      5.162816   745A      5.190098  
     746A      5.200350   747A      5.208561   748A      5.214186  
     749A      5.239604   750A      5.271834   751A      5.275880  
     752A      5.283657   753A      5.319774   754A      5.332513  
     755A      5.342261   756A      5.367823   757A      5.375358  
     758A      5.388901   759A      5.406558   760A      5.419139  
     761A      5.455411   762A      5.476529   763A      5.485635  
     764A      5.502212   765A      5.510856   766A      5.559517  
     767A      5.579371   768A      5.605309   769A      5.610703  
     770A      5.622355   771A      5.656089   772A      5.671084  
     773A      5.697389   774A      5.703889   775A      5.706853  
     776A      5.754729   777A      5.779435   778A      5.827865  
     779A      5.839685   780A      5.880554   781A      5.926226  
     782A      5.935097   783A      5.977524   784A      5.992122  
     785A      6.010680   786A      6.031139   787A      6.101304  
     788A      6.146207   789A      6.164694   790A      6.196019  
     791A      6.217882   792A      6.276058   793A      6.300517  
     794A      6.340037   795A      6.376743   796A      6.398447  
     797A      6.421644   798A      6.468907   799A      6.524699  
     800A      6.566514   801A      6.597985   802A      6.618290  
     803A      6.656028   804A      6.744330   805A      6.753197  
     806A      6.789098   807A      6.825814   808A      6.834180  
     809A      6.895178   810A      6.908317   811A      6.946059  
     812A      6.974843   813A      7.080793   814A      7.156515  
     815A      7.286944   816A      7.318114   817A      7.358214  
     818A      7.454681   819A      7.541196   820A      7.581182  
     821A      7.584557   822A      7.645462   823A      7.897186  
     824A      8.278985   825A      8.534016   826A      8.928315  
     827A      8.949379   828A      9.150489   829A      9.169879  
     830A      9.297402   831A      9.407259   832A      9.439306  
     833A      9.497746   834A      9.526378   835A      9.596846  
     836A      9.917884   837A      9.970936   838A     15.858390  
     839A     16.139774   840A     16.461650   841A     16.491012  
     842A     16.752768   843A     16.897874   844A     18.774302  
     845A     19.273322   846A     19.479280   847A     19.704121  
     848A     20.043424   849A     20.274799   850A     20.338364  
     851A     21.784797  

    Final Occupation by Irrep:
              A 
    DOCC [    49 ]

  Energy converged.

  @DF-RHF Final Energy:  -650.56162627574599

   => Energetics <=

    Nuclear Repulsion Energy =            830.6537703771147108
    One-Electron Energy =               -2521.3954098740664449
    Two-Electron Energy =                1040.1800132212058543
    DFT Exchange-Correlation Energy =       0.0000000000000000
    Empirical Dispersion Energy =           0.0000000000000000
    PCM Polarization Energy =               0.0000000000000000
    EFP Energy =                            0.0000000000000000
    Total Energy =                       -650.5616262757459936



Properties will be evaluated at   0.000000,   0.000000,   0.000000 Bohr

Properties computed using the SCF density matrix

  Nuclear Dipole Moment: (a.u.)
     X:     1.2725      Y:    -0.4947      Z:    -6.6427

  Electronic Dipole Moment: (a.u.)
     X:     1.5866      Y:    -1.0036      Z:     4.3993

  Dipole Moment: (a.u.)
     X:     2.8592      Y:    -1.4982      Z:    -2.2434     Total:     3.9309

  Dipole Moment: (Debye)
     X:     7.2673      Y:    -3.8081      Z:    -5.7021     Total:     9.9914


*** tstop() called on gpu-1-7.local at Sat Nov 11 18:25:28 2017
Module time:
	user time   =    1256.81 seconds =      20.95 minutes
	system time =      54.48 seconds =       0.91 minutes
	total time  =        547 seconds =       9.12 minutes
Total time:
	user time   =    1256.81 seconds =      20.95 minutes
	system time =      54.48 seconds =       0.91 minutes
	total time  =        547 seconds =       9.12 minutes

  //>>>>>>>>>>>>>>>>>>>>>>>>>>>>>>>>>>>//
  //               DFMP2               //
  //<<<<<<<<<<<<<<<<<<<<<<<<<<<<<<<<<<<//

   => Loading Basis Set <=

    Name: (AUG-CC-PVTZ AUX)
    Role: RIFIT
    Keyword: DF_BASIS_MP2
    atoms 1-11  entry C          line   147 file /cbio/jclab/home/chayas/anaconda/envs/py35/share/psi4/basis/aug-cc-pvtz-ri.gbs 
    atoms 12    entry N          line   205 file /cbio/jclab/home/chayas/anaconda/envs/py35/share/psi4/basis/aug-cc-pvtz-ri.gbs 
    atoms 13    entry O          line   263 file /cbio/jclab/home/chayas/anaconda/envs/py35/share/psi4/basis/aug-cc-pvtz-ri.gbs 
    atoms 14    entry F          line   321 file /cbio/jclab/home/chayas/anaconda/envs/py35/share/psi4/basis/aug-cc-pvtz-ri.gbs 
    atoms 15-23 entry H          line    29 file /cbio/jclab/home/chayas/anaconda/envs/py35/share/psi4/basis/aug-cc-pvtz-ri.gbs 

	 --------------------------------------------------------
	                          DF-MP2                         
	      2nd-Order Density-Fitted Moller-Plesset Theory     
	              RMP2 Wavefunction,   8 Threads             
	                                                         
	        Rob Parrish, Justin Turney, Andy Simmonett,      
	           Ed Hohenstein, and C. David Sherrill          
	 --------------------------------------------------------

   => Auxiliary Basis Set <=

  Basis Set: (AUG-CC-PVTZ AUX)
    Blend: AUG-CC-PVTZ-RI
    Number of shells: 518
    Number of basis function: 1898
    Number of Cartesian functions: 2399
    Spherical Harmonics?: true
    Max angular momentum: 4

	 --------------------------------------------------------
	                 NBF =   851, NAUX =  1898
	 --------------------------------------------------------
	   CLASS    FOCC     OCC    AOCC    AVIR     VIR    FVIR
	   PAIRS       0      49      49     802     802       0
	 --------------------------------------------------------


         ------------------------------------------------------------
                                     CPHF                           
                                  Rob Parrish                       
         ------------------------------------------------------------

  ==> Geometry <==

    Molecular point group: c1
    Full point group: C1

    Geometry (in Angstrom), charge = 1, multiplicity = 1:

       Center              X                  Y                   Z               Mass       
    ------------   -----------------  -----------------  -----------------  -----------------
           C         -1.337935311892     0.764164052414    -0.788425757552    12.000000000000
           C         -2.415935311892     1.337164052414    -0.115425757552    12.000000000000
           C          0.589064688108    -1.237835947586    -1.877425757552    12.000000000000
           C          2.116064688108    -0.183835947586    -0.341425757552    12.000000000000
           C         -1.422935311892     0.721164052414     1.999574242448    12.000000000000
           C          1.678064688108    -1.793835947586    -2.531425757552    12.000000000000
           C          3.168064688108    -0.766835947586    -1.035425757552    12.000000000000
           C         -0.301935311892     0.169164052414    -0.068425757552    12.000000000000
           C          0.815064688108    -0.424835947586    -0.771425757552    12.000000000000
           C         -2.458935311892     1.316164052414     1.278574242448    12.000000000000
           C         -0.344935311892     0.148164052414     1.325574242448    12.000000000000
           N          2.921064688108    -1.545835947586    -2.097425757552    14.003074004780
           O         -3.511935311892     1.876164052414     1.935574242448    15.994914619560
           F          0.643064688108    -0.419835947586     2.032574242448    18.998403224000
           H         -1.318935311892     0.788164052414    -1.875425757552     1.007825032070
           H         -3.220935311892     1.798164052414    -0.682425757552     1.007825032070
           H         -0.415935311892    -1.442835947586    -2.234425757552     1.007825032070
           H          2.322064688108     0.446164052414     0.518574242448     1.007825032070
           H         -1.450935311892     0.701164052414     3.085574242448     1.007825032070
           H          1.598064688108    -2.435835947586    -3.398425757552     1.007825032070
           H          4.208064688108    -0.635835947586    -0.773425757552     1.007825032070
           H          3.708064688108    -1.965835947586    -2.591425757552     1.007825032070
           H         -3.397935311892     1.782164052414     2.894574242448     1.007825032070

  Nuclear repulsion =  830.653770377114711
  Reference energy  = -650.561626275745994

  ==> Basis Set <==

  Basis Set: AUG-CC-PVTZ
    Blend: AUG-CC-PVTZ
    Number of shells: 277
    Number of basis function: 851
    Number of Cartesian functions: 995
    Spherical Harmonics?: true
    Max angular momentum: 3

  ==> CGRSolver (by Rob Parrish) <==

   Number of roots    =         1
   Preconditioning    =    JACOBI
   Convergence cutoff =     1E-06
   Maximum iterations =       100

  ==> CPHFRHamiltonian (by Rob Parrish) <== 

  ==> DFJK: Density-Fitted J/K Matrices <==

    J tasked:                  Yes
    K tasked:                  Yes
    wK tasked:                  No
    OpenMP threads:              8
    Integrals threads:           8
    Memory (MB):              3576
    Algorithm:                Disk
    Integral Cache:           NONE
    Schwarz Cutoff:          1E-12
    Fitting Condition:       1E-12

   => Auxiliary Basis Set <=

  Basis Set: (AUG-CC-PVTZ AUX)
    Blend: AUG-CC-PVTZ-JKFIT
    Number of shells: 546
    Number of basis function: 1870
    Number of Cartesian functions: 2329
    Spherical Harmonics?: true
    Max angular momentum: 4

  ==> CPHF Iterations <==

  => Iterations <=

             Iter  Converged  Remaining    Residual
  CGR           1          0          1   1.230E-01
  CGR           2          0          1   4.885E-02
  CGR           3          0          1   2.856E-02
  CGR           4          0          1   9.426E-03
  CGR           5          0          1   4.170E-03
  CGR           6          0          1   1.832E-03
  CGR           7          0          1   5.905E-04
  CGR           8          0          1   2.545E-04
  CGR           9          0          1   1.138E-04
  CGR          10          0          1   4.409E-05
  CGR          11          0          1   1.788E-05
  CGR          12          0          1   5.949E-06
  CGR          13          0          1   2.117E-06
  CGR          14          1          0   7.076E-07

    CGRSolver converged.

  ==> DFCorrGrad: Density-Fitted Correlated Gradients <==

    OpenMP threads:              8
    Integrals threads:           8
    Memory (MB):              3576
    Schwarz Cutoff:          0E+00
    Fitting Condition:       1E-12

   => Auxiliary Basis Set <=

  Basis Set: (AUG-CC-PVTZ AUX)
    Blend: AUG-CC-PVTZ-JKFIT
    Number of shells: 546
    Number of basis function: 1870
    Number of Cartesian functions: 2329
    Spherical Harmonics?: true
    Max angular momentum: 4

	-----------------------------------------------------------
	 ==================> DF-MP2 Energies <==================== 
	-----------------------------------------------------------
	 Reference Energy          =    -650.5616262757459936 [Eh]
	 Singles Energy            =      -0.0000000000000005 [Eh]
	 Same-Spin Energy          =      -0.6695496643323735 [Eh]
	 Opposite-Spin Energy      =      -2.0146169324027454 [Eh]
	 Correlation Energy        =      -2.6841665967351194 [Eh]
	 Total Energy              =    -653.2457928724811609 [Eh]
	-----------------------------------------------------------
	 ================> DF-SCS-MP2 Energies <================== 
	-----------------------------------------------------------
	 SCS Same-Spin Scale       =       0.3333333333333333 [-]
	 SCS Opposite-Spin Scale   =       1.2000000000000000 [-]
	 SCS Same-Spin Energy      =      -0.2231832214441245 [Eh]
	 SCS Opposite-Spin Energy  =      -2.4175403188832942 [Eh]
	 SCS Correlation Energy    =      -2.6407235403274192 [Eh]
	 SCS Total Energy          =    -653.2023498160733652 [Eh]
	-----------------------------------------------------------


  -Total Gradient:
     Atom            X                  Y                   Z
    ------   -----------------  -----------------  -----------------
       1        0.016173757587    -0.002711110602    -0.011749947576
       2        0.000804605092    -0.001008149508     0.009035291056
       3       -0.012942642409     0.004893833262     0.011220164101
       4       -0.016800951364     0.009196119387     0.006924997645
       5       -0.011737667338     0.006869585176     0.001806670269
       6        0.011117520464     0.001496155415     0.005547082185
       7       -0.000259898303    -0.007168093910    -0.010850561780
       8       -0.008664948757     0.004894199121     0.001177903598
       9        0.008825419278    -0.004345844969    -0.007692854816
      10        0.000562548823     0.000243213050    -0.012462677500
      11        0.021796547996    -0.017604224170    -0.002202254606
      12       -0.000278697883     0.000197224835    -0.000301732464
      13       -0.007491798188     0.003727671590     0.008588943077
      14        0.001626686611     0.000356640764     0.002877657912
      15       -0.001668506445    -0.000154395578    -0.005864708799
      16       -0.003850601480     0.001580942767    -0.005175466103
      17       -0.005607042236    -0.000072617884    -0.002680264693
      18        0.000890423879     0.003527920488     0.005815391859
      19       -0.001375097617     0.001141083060     0.004707897630
      20        0.001359695699    -0.001476942717    -0.002673819359
      21        0.002376800238    -0.000913955570    -0.000289238292
      22        0.005086419441    -0.002504535110    -0.003057963488
      23        0.000057426911    -0.000164718892     0.007299490154


*** tstop() called on gpu-1-7.local at Sat Nov 11 19:06:42 2017
Module time:
	user time   =    6495.91 seconds =     108.27 minutes
	system time =     120.63 seconds =       2.01 minutes
	total time  =       3021 seconds =      50.35 minutes
Total time:
	user time   =    6495.91 seconds =     108.27 minutes
	system time =     120.63 seconds =       2.01 minutes
	total time  =       3021 seconds =      50.35 minutes

			-----------------------------------------
			 OPTKING 2.0: for geometry optimizations 
			  - R.A. King,  Bethel University        
			-----------------------------------------

	Internal coordinates to be generated automatically.
	Detected frag 1 with atoms:  1 2 3 4 5 6 7 8 9 10 11 12 13 14 15 16 17 18 19 20
	 21 22 23
	---Fragment 1 Bond Connectivity---
	 1 : 2 8 15
	 2 : 1 10 16
	 3 : 6 9 17
	 4 : 7 9 18
	 5 : 10 11 19
	 6 : 3 12 20
	 7 : 4 12 21
	 8 : 1 9 11
	 9 : 3 4 8
	 10 : 2 5 13
	 11 : 5 8 14
	 12 : 6 7 22
	 13 : 10 23
	 14 : 11
	 15 : 1
	 16 : 2
	 17 : 3
	 18 : 4
	 19 : 5
	 20 : 6
	 21 : 7
	 22 : 12
	 23 : 13

	Assuming in current code that numbering for constraints corresponds to unified fragment.
	Fixed dihedral atom list: 
	     1     8     9     3
	---Fragment 1 Geometry and Gradient---
	 C          -2.5283313230        1.4440607797       -1.4899087579
	 C          -4.5654560942        2.5268738538       -0.2181230705
	 C           1.1131709351       -2.3391709384       -3.5478205166
	 C           3.9987827400       -0.3473995943       -0.6452011765
	 C          -2.6889580443        1.3628025559        3.7786477006
	 C           3.1710826938       -3.3898586683       -4.7837014075
	 C           5.9867746318       -1.4491099298       -1.9566711127
	 C          -0.5705750493        0.3196737306       -0.1293059422
	 C           1.5402490411       -0.8028235923       -1.4577834136
	 C          -4.6467143180        2.4871896050        2.4161551588
	 C          -0.6518332730        0.2799894818        2.5049722870
	 N           5.5200122770       -2.9212065873       -3.9635602658
	 O          -6.6365959359        3.5454362394        3.6577052281
	 F           1.2152161463       -0.7933749617        3.8410086630
	 H          -2.4924265265        1.4894142068       -3.5440410643
	 H          -6.0866856312        3.3980376011       -1.2895977878
	 H          -0.7860038285       -2.7265647956       -4.2224527460
	 H           4.3880663234        0.8431278694        0.9799632978
	 H          -2.7418703760        1.3250080333        5.8308902809
	 H           3.0199046032       -4.6030628456       -6.4220939647
	 H           7.9520898100       -1.2015558064       -1.4615628659
	 H           7.0072267435       -3.7148915631       -4.8970849755
	 H          -6.4211671567        3.3678019829        5.4699525895
	             0.0161737576       -0.0027111106       -0.0117499476
	             0.0008046051       -0.0010081495        0.0090352911
	            -0.0129426424        0.0048938333        0.0112201641
	            -0.0168009514        0.0091961194        0.0069249976
	            -0.0117376673        0.0068695852        0.0018066703
	             0.0111175205        0.0014961554        0.0055470822
	            -0.0002598983       -0.0071680939       -0.0108505618
	            -0.0086649488        0.0048941991        0.0011779036
	             0.0088254193       -0.0043458450       -0.0076928548
	             0.0005625488        0.0002432131       -0.0124626775
	             0.0217965480       -0.0176042242       -0.0022022546
	            -0.0002786979        0.0001972248       -0.0003017325
	            -0.0074917982        0.0037276716        0.0085889431
	             0.0016266866        0.0003566408        0.0028776579
	            -0.0016685064       -0.0001543956       -0.0058647088
	            -0.0038506015        0.0015809428       -0.0051754661
	            -0.0056070422       -0.0000726179       -0.0026802647
	             0.0008904239        0.0035279205        0.0058153919
	            -0.0013750976        0.0011410831        0.0047078976
	             0.0013596957       -0.0014769427       -0.0026738194
	             0.0023768002       -0.0009139556       -0.0002892383
	             0.0050864194       -0.0025045351       -0.0030579635
	             0.0000574269       -0.0001647189        0.0072994902

	Previous optimization step data not found.  Starting new optimization.

	---Fragment 1 Intrafragment Coordinates---
	 - Coordinate -           - BOHR/RAD -       - ANG/DEG -
	 R(1,2)           =         2.634350	       1.394038
	 R(1,8)           =         2.635962	       1.394891
	 R(1,15)          =         2.054947	       1.087431
	 R(2,10)          =         2.635830	       1.394821
	 R(2,16)          =         2.054537	       1.087214
	 R(3,6)           =         2.620372	       1.386641
	 R(3,9)           =         2.628881	       1.391144
	 R(3,17)          =         2.052332	       1.086047
	 R(4,7)           =         2.624087	       1.388607
	 R(4,9)           =         2.629085	       1.391252
	 R(4,18)          =         2.051842	       1.085788
	 R(5,10)          =         2.636938	       1.395407
	 R(5,11)          =         2.635263	       1.394521
	 R(5,19)          =         2.053272	       1.086545
	 R(6,12)          =         2.531746	       1.339742
	 R(6,20)          =         2.044272	       1.081782
	 R(7,12)          =         2.532299	       1.340035
	 R(7,21)          =         2.041783	       1.080465
	 R(8,9)           =         2.735038	       1.447320
	 R(8,11)          =         2.635830	       1.394821
	 R(10,13)         =         2.573123	       1.361638
	 R(11,14)         =         2.534359	       1.341125
	 R(12,22)         =         1.926969	       1.019708
	 R(13,23)         =         1.833631	       0.970316
	 B(1,2,10)        =         2.094553	     120.009056
	 B(1,2,16)        =         2.088723	     119.675016
	 B(1,8,9)         =         2.091569	     119.838095
	 B(1,8,11)        =         2.093692	     119.959722
	 B(2,1,8)         =         2.094940	     120.031219
	 B(2,1,15)        =         2.079469	     119.144799
	 B(2,10,5)        =         2.094306	     119.994870
	 B(2,10,13)       =         2.094247	     119.991510
	 B(3,6,12)        =         2.096281	     120.108050
	 B(3,6,20)        =         2.162630	     123.909573
	 B(3,9,4)         =         2.093097	     119.925619
	 B(3,9,8)         =         2.095131	     120.042173
	 B(4,7,12)        =         2.094985	     120.033785
	 B(4,7,21)        =         2.161717	     123.857265
	 B(4,9,8)         =         2.094957	     120.032201
	 B(5,10,13)       =         2.094633	     120.013619
	 B(5,11,8)        =         2.095181	     120.045019
	 B(5,11,14)       =         2.081414	     119.256220
	 B(6,3,9)         =         2.073408	     118.797527
	 B(6,3,17)        =         2.089807	     119.737113
	 B(6,12,7)        =         2.135723	     122.367891
	 B(6,12,22)       =         2.074737	     118.873685
	 B(7,4,9)         =         2.072877	     118.767113
	 B(7,4,18)        =         2.089464	     119.717442
	 B(7,12,22)       =         2.072724	     118.758339
	 B(8,1,15)        =         2.108776	     120.823969
	 B(8,11,14)       =         2.106591	     120.698759
	 B(9,3,17)        =         2.119970	     121.465360
	 B(9,4,18)        =         2.120845	     121.515441
	 B(9,8,11)        =         2.097924	     120.202184
	 B(10,2,16)       =         2.099909	     120.315896
	 B(10,5,11)       =         2.093699	     119.960108
	 B(10,5,19)       =         2.100355	     120.341451
	 B(10,13,23)      =         1.924294	     110.253909
	 B(11,5,19)       =         2.089132	     119.698439
	 B(12,6,20)       =         2.024274	     115.982345
	 B(12,7,21)       =         2.026483	     116.108907
	 D(1,2,10,5)      =        -0.000325	      -0.018609
	 D(1,2,10,13)     =         3.141388	     179.988267
	 D(1,8,9,3)       =        -0.785646	     -45.014198
	 D(1,8,9,4)       =         2.356450	     135.014665
	 D(1,8,11,5)      =         0.000325	       0.018608
	 D(1,8,11,14)     =        -3.141528	    -179.996269
	 D(2,1,8,9)       =         3.141277	     179.981897
	 D(2,1,8,11)      =        -0.000348	      -0.019945
	 D(2,10,5,11)     =         0.000301	       0.017261
	 D(2,10,5,19)     =        -3.141029	    -179.967685
	 D(2,10,13,23)    =         3.141285	     179.982383
	 D(3,6,12,7)      =        -0.000115	      -0.006596
	 D(3,6,12,22)     =         3.139609	     179.886367
	 D(3,9,4,7)       =         0.000681	       0.038991
	 D(3,9,4,18)      =        -3.141336	    -179.985314
	 D(3,9,8,11)      =         2.355979	     134.987647
	 D(4,7,12,6)      =         0.000537	       0.030781
	 D(4,7,12,22)     =        -3.139189	    -179.862300
	 D(4,9,3,6)       =        -0.000274	      -0.015708
	 D(4,9,3,17)      =         3.141365	     179.986952
	 D(4,9,8,11)      =        -0.785110	     -44.983489
	 D(5,10,2,16)     =         3.140149	     179.917291
	 D(5,10,13,23)    =        -0.000187	      -0.010740
	 D(5,11,8,9)      =        -3.141300	    -179.983240
	 D(6,3,9,8)       =        -3.141364	    -179.986876
	 D(6,12,7,21)     =         3.140872	     179.958694
	 D(7,4,9,8)       =        -3.141415	    -179.989839
	 D(7,12,6,20)     =         3.140395	     179.931362
	 D(8,1,2,10)      =         0.000348	       0.019955
	 D(8,1,2,16)      =        -3.140133	    -179.916358
	 D(8,9,3,17)      =         0.000275	       0.015784
	 D(8,9,4,18)      =        -0.000247	      -0.014143
	 D(8,11,5,10)     =        -0.000301	      -0.017270
	 D(8,11,5,19)     =         3.141030	     179.967774
	 D(9,3,6,12)      =        -0.000018	      -0.001031
	 D(9,3,6,20)      =        -3.140438	    -179.933829
	 D(9,4,7,12)      =        -0.000810	      -0.046418
	 D(9,4,7,21)      =        -3.141042	    -179.968468
	 D(9,8,1,15)      =         0.000403	       0.023110
	 D(9,8,11,14)     =         0.000033	       0.001883
	 D(10,2,1,15)     =         3.141234	     179.979432
	 D(10,5,11,14)    =         3.141547	     179.997392
	 D(11,5,10,13)    =        -3.141411	    -179.989616
	 D(11,8,1,15)     =        -3.141221	    -179.978731
	 D(12,6,3,17)     =         3.141529	     179.996357
	 D(12,7,4,18)     =         3.141199	     179.977439
	 D(13,10,2,16)    =        -0.001324	      -0.075833
	 D(13,10,5,19)    =         0.000444	       0.025437
	 D(14,11,5,19)    =        -0.000307	      -0.017564
	 D(15,1,2,16)     =         0.000753	       0.043120
	 D(17,3,6,20)     =         0.001109	       0.063558
	 D(18,4,7,21)     =         0.000967	       0.055389
	 D(20,6,12,22)    =        -0.003066	      -0.175676
	 D(21,7,12,22)    =         0.001145	       0.065613
	 R(4,14)          =         5.298416	       2.803801

	Current energy   :      -653.2457928725

	Generating empirical Hessian (Schlegel '84) for each fragment.
	Adding user-defined constraint: Fragment 1; Coordinate 64:
		Value =    -0.785646; Fixed value    =    -0.785398
		Force =     0.000124; Force constant =     0.500000
	Removing off-diagonal coupling between coordinate 64 and others.
	Taking RFO optimization step.
	Going to follow RFO solution 1.
	Using RFO vector 1.

	Determining step-restricting scale parameter for RS-RFO.
	Maximum step size allowed    0.10000

	 Iter      |step|        alpha        rfo_root  
	------------------------------------------------
	    0     0.20493       1.00000           1
	    1     0.15666       4.62780           1
	    2     0.12643      13.27198           1
	    3     0.10781      25.86835           1
	    4     0.10093      33.09915           1
	    5     0.10002      34.20455           1
	    6     0.10000      34.22371           1
	------------------------------------------------
	Norm of target step-size    0.10000
	Projected energy change by RFO approximation:        -0.0047223746

	Back-transformation to cartesian coordinates...
	Successfully converged to displaced geometry.
	First geometry is closer to target in internal coordinates, so am using that one.
	First geometry has RMS(Delta(q)) = 1.08e-04

	--- Internal Coordinate Step in ANG or DEG, aJ/ANG or AJ/DEG ---
	 ---------------------------------------------------------------------------
	   Coordinate                Previous        Force       Change         New 
	   ----------                --------       ------       ------       ------
	    1 R(1,2)          =      1.394038    -0.102496    -0.010450     1.383588
	    2 R(1,8)          =      1.394891     0.003967     0.000602     1.395493
	    3 R(1,15)         =      1.087431    -0.048030    -0.006012     1.081419
	    4 R(2,10)         =      1.394821    -0.050126    -0.005131     1.389690
	    5 R(2,16)         =      1.087214    -0.051249    -0.006357     1.080858
	    6 R(3,6)          =      1.386641    -0.097244    -0.009702     1.376939
	    7 R(3,9)          =      1.391144     0.042813     0.004445     1.395588
	    8 R(3,17)         =      1.086047    -0.050119    -0.006257     1.079790
	    9 R(4,7)          =      1.388607    -0.109457    -0.011044     1.377563
	   10 R(4,9)          =      1.391252     0.049766     0.005201     1.396453
	   11 R(4,18)         =      1.085788    -0.056205    -0.007002     1.078787
	   12 R(5,10)         =      1.395407    -0.025146    -0.002628     1.392780
	   13 R(5,11)         =      1.394521    -0.141051    -0.014384     1.380137
	   14 R(5,19)         =      1.086545    -0.038887    -0.004776     1.081769
	   15 R(6,12)         =      1.339742     0.019411     0.001688     1.341430
	   16 R(6,20)         =      1.081782    -0.024048    -0.002954     1.078829
	   17 R(7,12)         =      1.340035     0.021297     0.001846     1.341881
	   18 R(7,21)         =      1.080465    -0.017358    -0.002132     1.078333
	   19 R(8,9)          =      1.447320     0.050366     0.006047     1.453367
	   20 R(8,11)         =      1.394821    -0.044459    -0.004335     1.390487
	   21 R(10,13)        =      1.361638    -0.122599    -0.011034     1.350604
	   22 R(11,14)        =      1.341125    -0.021938    -0.001860     1.339265
	   23 R(12,22)        =      1.019708    -0.053046    -0.005626     1.014082
	   24 R(13,23)        =      0.970316    -0.059624    -0.005334     0.964982
	   25 B(1,2,10)       =    120.009056    -0.000167    -0.318583   119.690473
	   26 B(1,2,16)       =    119.675016     0.000259     0.572849   120.247865
	   27 B(1,8,9)        =    119.838095     0.000497     0.868904   120.706998
	   28 B(1,8,11)       =    119.959722    -0.000731    -1.346174   118.613548
	   29 B(2,1,8)        =    120.031219     0.000377     0.767977   120.799196
	   30 B(2,1,15)       =    119.144799    -0.000078    -0.126375   119.018424
	   31 B(2,10,5)       =    119.994870     0.000109     0.196455   120.191325
	   32 B(2,10,13)      =    119.991510    -0.000961    -1.769152   118.222359
	   33 B(3,6,12)       =    120.108050    -0.000298    -0.602919   119.505132
	   34 B(3,6,20)       =    123.909573     0.000028     0.018238   123.927810
	   35 B(3,9,4)        =    119.925619    -0.000582    -1.075125   118.850495
	   36 B(3,9,8)        =    120.042173     0.000205     0.354956   120.397129
	   37 B(4,7,12)       =    120.033785    -0.000244    -0.506694   119.527091
	   38 B(4,7,21)       =    123.857265     0.000014     0.000886   123.858151
	   39 B(4,9,8)        =    120.032201     0.000378     0.719969   120.752170
	   40 B(5,10,13)      =    120.013619     0.000852     1.572692   121.586311
	   41 B(5,11,8)       =    120.045019     0.000669     1.218382   121.263401
	   42 B(5,11,14)      =    119.256220    -0.000070    -0.158382   119.097838
	   43 B(6,3,9)        =    118.797527     0.000428     0.846781   119.644308
	   44 B(6,3,17)       =    119.737113    -0.000222    -0.445441   119.291671
	   45 B(6,12,7)       =    122.367891     0.000288     0.543112   122.911004
	   46 B(6,12,22)      =    118.873685    -0.000157    -0.302394   118.571291
	   47 B(7,4,9)        =    118.767113     0.000408     0.794730   119.561843
	   48 B(7,4,18)       =    119.717442    -0.000234    -0.470781   119.246661
	   49 B(7,12,22)      =    118.758339    -0.000131    -0.240750   118.517590
	   50 B(8,1,15)       =    120.823969    -0.000299    -0.642085   120.181884
	   51 B(8,11,14)      =    120.698759    -0.000599    -1.060952   119.637807
	   52 B(9,3,17)       =    121.465360    -0.000206    -0.401509   121.063852
	   53 B(9,4,18)       =    121.515441    -0.000174    -0.324103   121.191338
	   54 B(9,8,11)       =    120.202184     0.000234     0.477039   120.679223
	   55 B(10,2,16)      =    120.315896    -0.000092    -0.254254   120.061642
	   56 B(10,5,11)      =    119.960108    -0.000256    -0.518684   119.441425
	   57 B(10,5,19)      =    120.341451     0.000260     0.568178   120.909630
	   58 B(10,13,23)     =    110.253909    -0.000135    -0.320535   109.933374
	   59 B(11,5,19)      =    119.698439    -0.000004    -0.049494   119.648945
	   60 B(12,6,20)      =    115.982345     0.000270     0.584618   116.566964
	   61 B(12,7,21)      =    116.108907     0.000230     0.505850   116.614758
	   62 D(1,2,10,5)     =     -0.018609     0.000007     0.130495     0.111887
	   63 D(1,2,10,13)    =    179.988267     0.000006     0.097432   180.085699
	   64 D(1,8,9,3)      =    -45.014198     0.000024     0.209178   -44.805021
	   65 D(1,8,9,4)      =    135.014665     0.000027     0.347291   135.361956
	   66 D(1,8,11,5)     =      0.018608     0.000009     0.208042     0.226649
	   67 D(1,8,11,14)    =   -179.996269    -0.000009    -0.135637  -180.131906
	   68 D(2,1,8,9)      =    179.981897     0.000007     0.184228   180.166124
	   69 D(2,1,8,11)     =     -0.019945     0.000003     0.012366    -0.007579
	   70 D(2,10,5,11)    =      0.017261     0.000005     0.084669     0.101931
	   71 D(2,10,5,19)    =   -179.967685     0.000004     0.060383  -179.907302
	   72 D(2,10,13,23)   =    179.982383    -0.000001    -0.008553   179.973830
	   73 D(3,6,12,7)     =     -0.006596    -0.000002    -0.034781    -0.041377
	   74 D(3,6,12,22)    =    179.886367    -0.000003    -0.053512   179.832855
	   75 D(3,9,4,7)      =      0.038991     0.000002     0.077573     0.116563
	   76 D(3,9,4,18)     =   -179.985314    -0.000004    -0.044000  -180.029314
	   77 D(3,9,8,11)     =    134.987647     0.000029     0.384636   135.372284
	   78 D(4,7,12,6)     =      0.030781     0.000000    -0.002742     0.028039
	   79 D(4,7,12,22)    =   -179.862300     0.000001     0.016042  -179.846257
	   80 D(4,9,3,6)      =     -0.015708    -0.000004    -0.114056    -0.129764
	   81 D(4,9,3,17)     =    179.986952    -0.000013    -0.267250   179.719701
	   82 D(4,9,8,11)     =    -44.983489     0.000032     0.522750   -44.460740
	   83 D(5,10,2,16)    =    179.917291     0.000007     0.144190   180.061481
	   84 D(5,10,13,23)   =     -0.010740    -0.000002    -0.042002    -0.052742
	   85 D(5,11,8,9)     =   -179.983240     0.000004     0.036237  -179.947004
	   86 D(6,3,9,8)      =   -179.986876    -0.000001     0.020944  -179.965932
	   87 D(6,12,7,21)    =    179.958694     0.000005     0.072872   180.031565
	   88 D(7,4,9,8)      =   -179.989839    -0.000001    -0.058031  -180.047870
	   89 D(7,12,6,20)    =    179.931362     0.000007     0.134556   180.065918
	   90 D(8,1,2,10)     =      0.019955    -0.000011    -0.179069    -0.159114
	   91 D(8,1,2,16)     =   -179.916358    -0.000011    -0.192255  -180.108613
	   92 D(8,9,3,17)     =      0.015784    -0.000010    -0.132250    -0.116467
	   93 D(8,9,4,18)     =     -0.014143    -0.000007    -0.179603    -0.193747
	   94 D(8,11,5,10)    =     -0.017270    -0.000013    -0.256801    -0.274071
	   95 D(8,11,5,19)    =    179.967774    -0.000012    -0.232730   179.735044
	   96 D(9,3,6,12)     =     -0.001031     0.000004     0.093500     0.092469
	   97 D(9,3,6,20)     =   -179.933829    -0.000005    -0.089360  -180.023189
	   98 D(9,4,7,12)     =     -0.046418    -0.000000    -0.019609    -0.066027
	   99 D(9,4,7,21)     =   -179.968468    -0.000005    -0.101355  -180.069823
	  100 D(9,8,1,15)     =      0.023110    -0.000009    -0.115623    -0.092513
	  101 D(9,8,11,14)    =      0.001883    -0.000014    -0.307442    -0.305559
	  102 D(10,2,1,15)    =    179.979432     0.000006     0.117125   180.096557
	  103 D(10,5,11,14)   =    179.997392     0.000005     0.085195   180.082588
	  104 D(11,5,10,13)   =   -179.989616     0.000006     0.118634  -179.870982
	  105 D(11,8,1,15)    =   -179.978731    -0.000014    -0.287485  -180.266216
	  106 D(12,6,3,17)    =    179.996357     0.000013     0.243963   180.240321
	  107 D(12,7,4,18)    =    179.977439     0.000006     0.099555   180.076994
	  108 D(13,10,2,16)   =     -0.075833     0.000006     0.111126     0.035294
	  109 D(13,10,5,19)   =      0.025437     0.000005     0.094348     0.119785
	  110 D(14,11,5,19)   =     -0.017564     0.000006     0.109267     0.091703
	  111 D(15,1,2,16)    =      0.043120     0.000005     0.103938     0.147058
	  112 D(17,3,6,20)    =      0.063558     0.000003     0.061104     0.124663
	  113 D(18,4,7,21)    =      0.055389     0.000001     0.017809     0.073198
	  114 D(20,6,12,22)   =     -0.175676     0.000006     0.115826    -0.059850
	  115 D(21,7,12,22)   =      0.065613     0.000005     0.091657     0.157269
	  116 R(4,14)         =      2.803801     0.008540     0.002618     2.806419
	 ---------------------------------------------------------------------------
	Successfully symmetrized geometry.
	 Forces used to impose fixed constraints are not included.
	  Forces zeroed: 64 

  ==> Convergence Check <==

  Measures of convergence in internal coordinates in au.
  Criteria marked as inactive (o), active & met (*), and active & unmet ( ).
  --------------------------------------------------------------------------------------------- ~
   Step     Total Energy     Delta E     MAX Force     RMS Force      MAX Disp      RMS Disp    ~
  --------------------------------------------------------------------------------------------- ~
    Convergence Criteria    1.00e-06 *    3.00e-04 *             o    1.20e-03 *             o  ~
  --------------------------------------------------------------------------------------------- ~
      1    -653.24579287   -6.53e+02      1.71e-02      4.54e-03 o    3.09e-02      9.28e-03 o  ~
  ---------------------------------------------------------------------------------------------

	Writing optimization data to binary file.
	Structure for next step:
	Cartesian Geometry (in Angstrom)
	    C    -1.3528615602   0.7670827281  -0.7703192824
	    C    -2.4218786333   1.3366743234  -0.1016756491
	    C     0.6030551835  -1.2391363508  -1.8828461076
	    C     2.1288153312  -0.1934679404  -0.3475467736
	    C    -1.4193437747   0.7208848045   2.0039157071
	    C     1.6789811647  -1.7950302848  -2.5380757181
	    C     3.1755422894  -0.7701454010  -1.0327364185
	    C    -0.3055585260   0.1709447397  -0.0666306383
	    C     0.8181488666  -0.4236089074  -0.7709483199
	    C    -2.4565710821   1.3129737329   1.2873788316
	    C    -0.3576307746   0.1608098928   1.3228436639
	    N     2.9213076813  -1.5465290573  -2.0972723572
	    O    -3.5148691444   1.8760472682   1.9095401158
	    F     0.6351953855  -0.4081816784   2.0186705435
	    H    -1.3361970126   0.7930531893  -1.8512976304
	    H    -3.2274571354   1.7975959477  -0.6556142569
	    H    -0.3956475657  -1.4446168430  -2.2382586834
	    H     2.3384425966   0.4308905101   0.5068613743
	    H    -1.4351880357   0.6945859432   3.0852493300
	    H     1.5926681455  -2.4346176543  -3.4025694382
	    H     4.2124067425  -0.6384865340  -0.7674439214
	    H     3.7031823607  -1.9652507795  -2.5889087811
	    H    -3.4170546762   1.7923015563   2.8658919862
			--------------------------
			 OPTKING Finished Execution 
			--------------------------

    Structure for next step:
    Molecular point group: c1
    Full point group: C1

    Geometry (in Angstrom), charge = 1, multiplicity = 1:

    C           -1.352306051569     0.766083813810    -0.768640524105
    C           -2.421323124640     1.335675409144    -0.099996890839
    C            0.603610692150    -1.240135265050    -1.881167349314
    C            2.129370839862    -0.194466854651    -0.345868015314
    C           -1.418788266029     0.719885890252     2.005594465430
    C            1.679536673379    -1.796029199117    -2.536396959793
    C            3.176097798029    -0.771144315266    -1.031057660177
    C           -0.305003017368     0.169945825379    -0.064951880051
    C            0.818704375299    -0.424607821675    -0.769269561624
    C           -2.456015573462     1.311974818601     1.289057589895
    C           -0.357075265925     0.159810978486     1.324522422218
    N            2.921863189927    -1.547527971624    -2.095593598876
    O           -3.514313635754     1.875048353953     1.911218874083
    F            0.635750894162    -0.409180592723     2.020349301777
    H           -1.335641503992     0.792054275011    -1.849618872116
    H           -3.226901626715     1.796597033403    -0.653935498657
    H           -0.395092057020    -1.445615757278    -2.236579925154
    H            2.338998105240     0.429891595847     0.508540132590
    H           -1.434632527091     0.693587028946     3.086928088242
    H            1.593223654127    -2.435616568621    -3.400890679874
    H            4.212962251159    -0.639485448284    -0.765765163090
    H            3.703737869397    -1.966249693816    -2.587230022848
    H           -3.416499167574     1.791302641983     2.867570744445

gradient() will perform analytic gradient computation.

*** tstart() called on gpu-1-7.local
*** at Sat Nov 11 19:06:44 2017

    SCF Algorithm Type (re)set to DF.

*** tstart() called on gpu-1-7.local
*** at Sat Nov 11 19:06:44 2017

   => Loading Basis Set <=

    Name: AUG-CC-PVTZ
    Role: ORBITAL
    Keyword: BASIS
    atoms 1-11  entry C          line   221 file /cbio/jclab/home/chayas/anaconda/envs/py35/share/psi4/basis/aug-cc-pvtz.gbs 
    atoms 12    entry N          line   267 file /cbio/jclab/home/chayas/anaconda/envs/py35/share/psi4/basis/aug-cc-pvtz.gbs 
    atoms 13    entry O          line   313 file /cbio/jclab/home/chayas/anaconda/envs/py35/share/psi4/basis/aug-cc-pvtz.gbs 
    atoms 14    entry F          line   359 file /cbio/jclab/home/chayas/anaconda/envs/py35/share/psi4/basis/aug-cc-pvtz.gbs 
    atoms 15-23 entry H          line    34 file /cbio/jclab/home/chayas/anaconda/envs/py35/share/psi4/basis/aug-cc-pvtz.gbs 


         ---------------------------------------------------------
                                   SCF
            by Justin Turney, Rob Parrish, and Andy Simmonett
                              RHF Reference
                        8 Threads,   4768 MiB Core
         ---------------------------------------------------------

  ==> Geometry <==

    Molecular point group: c1
    Full point group: C1

    Geometry (in Angstrom), charge = 1, multiplicity = 1:

       Center              X                  Y                   Z               Mass       
    ------------   -----------------  -----------------  -----------------  -----------------
           C         -1.352306051569     0.766083813810    -0.768640524105    12.000000000000
           C         -2.421323124640     1.335675409144    -0.099996890839    12.000000000000
           C          0.603610692150    -1.240135265050    -1.881167349314    12.000000000000
           C          2.129370839862    -0.194466854651    -0.345868015314    12.000000000000
           C         -1.418788266029     0.719885890252     2.005594465430    12.000000000000
           C          1.679536673379    -1.796029199117    -2.536396959793    12.000000000000
           C          3.176097798029    -0.771144315266    -1.031057660177    12.000000000000
           C         -0.305003017368     0.169945825379    -0.064951880051    12.000000000000
           C          0.818704375299    -0.424607821675    -0.769269561624    12.000000000000
           C         -2.456015573462     1.311974818601     1.289057589895    12.000000000000
           C         -0.357075265925     0.159810978486     1.324522422218    12.000000000000
           N          2.921863189927    -1.547527971624    -2.095593598876    14.003074004780
           O         -3.514313635754     1.875048353953     1.911218874083    15.994914619560
           F          0.635750894162    -0.409180592723     2.020349301777    18.998403224000
           H         -1.335641503992     0.792054275011    -1.849618872116     1.007825032070
           H         -3.226901626715     1.796597033403    -0.653935498657     1.007825032070
           H         -0.395092057020    -1.445615757278    -2.236579925154     1.007825032070
           H          2.338998105240     0.429891595847     0.508540132590     1.007825032070
           H         -1.434632527091     0.693587028946     3.086928088242     1.007825032070
           H          1.593223654127    -2.435616568621    -3.400890679874     1.007825032070
           H          4.212962251159    -0.639485448284    -0.765765163090     1.007825032070
           H          3.703737869397    -1.966249693816    -2.587230022848     1.007825032070
           H         -3.416499167574     1.791302641983     2.867570744445     1.007825032070

  Running in c1 symmetry.

  Rotational constants: A =      0.06343  B =      0.01309  C =      0.01133 [cm^-1]
  Rotational constants: A =   1901.62265  B =    392.32526  C =    339.57409 [MHz]
  Nuclear repulsion =  831.898448097378036

  Charge       = 1
  Multiplicity = 1
  Electrons    = 98
  Nalpha       = 49
  Nbeta        = 49

  ==> Algorithm <==

  SCF Algorithm Type is DF.
  DIIS enabled.
  MOM disabled.
  Fractional occupation disabled.
  Guess Type is READ.
  Energy threshold   = 1.00e-10
  Density threshold  = 1.00e-10
  Integral threshold = 0.00e+00

  ==> Primary Basis <==

  Basis Set: AUG-CC-PVTZ
    Blend: AUG-CC-PVTZ
    Number of shells: 277
    Number of basis function: 851
    Number of Cartesian functions: 995
    Spherical Harmonics?: true
    Max angular momentum: 3

   => Loading Basis Set <=

    Name: (AUG-CC-PVTZ AUX)
    Role: JKFIT
    Keyword: DF_BASIS_SCF
    atoms 1-11  entry C          line   161 file /cbio/jclab/home/chayas/anaconda/envs/py35/share/psi4/basis/aug-cc-pvtz-jkfit.gbs 
    atoms 12    entry N          line   223 file /cbio/jclab/home/chayas/anaconda/envs/py35/share/psi4/basis/aug-cc-pvtz-jkfit.gbs 
    atoms 13    entry O          line   285 file /cbio/jclab/home/chayas/anaconda/envs/py35/share/psi4/basis/aug-cc-pvtz-jkfit.gbs 
    atoms 14    entry F          line   347 file /cbio/jclab/home/chayas/anaconda/envs/py35/share/psi4/basis/aug-cc-pvtz-jkfit.gbs 
    atoms 15-23 entry H          line    69 file /cbio/jclab/home/chayas/anaconda/envs/py35/share/psi4/basis/aug-cc-pvtz-jkfit.gbs 

  Reading orbitals from file 180, no projection.

  ==> Pre-Iterations <==

   -------------------------------------------------------
    Irrep   Nso     Nmo     Nalpha   Nbeta   Ndocc  Nsocc
   -------------------------------------------------------
     A        851     851       0       0       0       0
   -------------------------------------------------------
    Total     851     851      49      49      49       0
   -------------------------------------------------------

  ==> Integral Setup <==

  ==> DFJK: Density-Fitted J/K Matrices <==

    J tasked:                  Yes
    K tasked:                  Yes
    wK tasked:                  No
    OpenMP threads:              8
    Integrals threads:           8
    Memory (MB):              3576
    Algorithm:                Disk
    Integral Cache:           NONE
    Schwarz Cutoff:          1E-12
    Fitting Condition:       1E-12

   => Auxiliary Basis Set <=

  Basis Set: (AUG-CC-PVTZ AUX)
    Blend: AUG-CC-PVTZ-JKFIT
    Number of shells: 546
    Number of basis function: 1870
    Number of Cartesian functions: 2329
    Spherical Harmonics?: true
    Max angular momentum: 4

  Minimum eigenvalue in the overlap matrix is 6.3982103860E-07.
  Using Symmetric Orthogonalization.

  SCF Guess: Orbitals guess was supplied from a previous computation.

  ==> Iterations <==

                           Total Energy        Delta E     RMS |[F,P]|

   @DF-RHF iter   0:  -650.63330957306459   -6.50633e+02   4.68985e-04 
   @DF-RHF iter   1:  -650.56707145290295    6.62381e-02   6.64799e-05 
   @DF-RHF iter   2:  -650.56731400547517   -2.42553e-04   4.98668e-05 DIIS
   @DF-RHF iter   3:  -650.56744358152127   -1.29576e-04   9.77139e-06 DIIS
   @DF-RHF iter   4:  -650.56745026578994   -6.68427e-06   4.08195e-06 DIIS
   @DF-RHF iter   5:  -650.56745215304716   -1.88726e-06   1.56927e-06 DIIS
   @DF-RHF iter   6:  -650.56745264074243   -4.87695e-07   7.12475e-07 DIIS
   @DF-RHF iter   7:  -650.56745282826387   -1.87521e-07   3.40605e-07 DIIS
   @DF-RHF iter   8:  -650.56745287398439   -4.57205e-08   1.15704e-07 DIIS
   @DF-RHF iter   9:  -650.56745287707429   -3.08989e-09   4.39573e-08 DIIS
   @DF-RHF iter  10:  -650.56745287729200   -2.17710e-10   1.59265e-08 DIIS
   @DF-RHF iter  11:  -650.56745287731883   -2.68301e-11   4.77130e-09 DIIS
   @DF-RHF iter  12:  -650.56745287736840   -4.95675e-11   2.56073e-09 DIIS
   @DF-RHF iter  13:  -650.56745287735885    9.54969e-12   1.06267e-09 DIIS
   @DF-RHF iter  14:  -650.56745287737294   -1.40972e-11   3.95639e-10 DIIS
   @DF-RHF iter  15:  -650.56745287738590   -1.29603e-11   1.85154e-10 DIIS
   @DF-RHF iter  16:  -650.56745287734941    3.64935e-11   6.88622e-11 DIIS

  ==> Post-Iterations <==

    Orbital Energies (a.u.)
    -----------------------

    Doubly Occupied:                                                      

       1A    -26.446858     2A    -20.711031     3A    -15.835961  
       4A    -11.485089     5A    -11.483085     6A    -11.470928  
       7A    -11.452825     8A    -11.442260     9A    -11.416360  
      10A    -11.414146    11A    -11.385339    12A    -11.379013  
      13A    -11.361503    14A    -11.352296    15A     -1.767439  
      16A     -1.531577    17A     -1.513066    18A     -1.324102  
      19A     -1.274739    20A     -1.241673    21A     -1.166969  
      22A     -1.158363    23A     -1.069060    24A     -1.062539  
      25A     -0.996089    26A     -0.970772    27A     -0.962292  
      28A     -0.896614    29A     -0.873070    30A     -0.860661  
      31A     -0.858804    32A     -0.833787    33A     -0.819215  
      34A     -0.809305    35A     -0.796045    36A     -0.776806  
      37A     -0.763550    38A     -0.751400    39A     -0.729397  
      40A     -0.715043    41A     -0.710743    42A     -0.690593  
      43A     -0.660192    44A     -0.648200    45A     -0.629519  
      46A     -0.575711    47A     -0.540113    48A     -0.475972  
      49A     -0.446265  

    Virtual:                                                              

      50A     -0.106873    51A     -0.084551    52A     -0.062208  
      53A     -0.061417    54A     -0.056466    55A     -0.049091  
      56A     -0.042861    57A     -0.039635    58A     -0.033546  
      59A     -0.028238    60A     -0.024442    61A     -0.019434  
      62A     -0.014337    63A     -0.010188    64A     -0.006597  
      65A     -0.000704    66A      0.004032    67A      0.006819  
      68A      0.010018    69A      0.013716    70A      0.017940  
      71A      0.021041    72A      0.023496    73A      0.026896  
      74A      0.031004    75A      0.033672    76A      0.036714  
      77A      0.039374    78A      0.041767    79A      0.041935  
      80A      0.049448    81A      0.054008    82A      0.056483  
      83A      0.064147    84A      0.066772    85A      0.068416  
      86A      0.070483    87A      0.077236    88A      0.081177  
      89A      0.081780    90A      0.085087    91A      0.093135  
      92A      0.096228    93A      0.105277    94A      0.110516  
      95A      0.114689    96A      0.116946    97A      0.119597  
      98A      0.121763    99A      0.127468   100A      0.133097  
     101A      0.135695   102A      0.137050   103A      0.138118  
     104A      0.142169   105A      0.152804   106A      0.156477  
     107A      0.159732   108A      0.161550   109A      0.164377  
     110A      0.168113   111A      0.169521   112A      0.173497  
     113A      0.178123   114A      0.183786   115A      0.185643  
     116A      0.192755   117A      0.194535   118A      0.200327  
     119A      0.203800   120A      0.205376   121A      0.208033  
     122A      0.213889   123A      0.216588   124A      0.220369  
     125A      0.220884   126A      0.224747   127A      0.231258  
     128A      0.236244   129A      0.240330   130A      0.242260  
     131A      0.243865   132A      0.247805   133A      0.249174  
     134A      0.257420   135A      0.265582   136A      0.267900  
     137A      0.273976   138A      0.275279   139A      0.279802  
     140A      0.282591   141A      0.288181   142A      0.294125  
     143A      0.297400   144A      0.304784   145A      0.306039  
     146A      0.312038   147A      0.313050   148A      0.318696  
     149A      0.321050   150A      0.323992   151A      0.328207  
     152A      0.330627   153A      0.336205   154A      0.338768  
     155A      0.341738   156A      0.344756   157A      0.345536  
     158A      0.348974   159A      0.350559   160A      0.359699  
     161A      0.362182   162A      0.365239   163A      0.369168  
     164A      0.372568   165A      0.374418   166A      0.378170  
     167A      0.379260   168A      0.387456   169A      0.390365  
     170A      0.392745   171A      0.396577   172A      0.402145  
     173A      0.402892   174A      0.407051   175A      0.411059  
     176A      0.412425   177A      0.418628   178A      0.422258  
     179A      0.425789   180A      0.428857   181A      0.432201  
     182A      0.434776   183A      0.438026   184A      0.443158  
     185A      0.448675   186A      0.455778   187A      0.460930  
     188A      0.464804   189A      0.468972   190A      0.474959  
     191A      0.480462   192A      0.481573   193A      0.488147  
[...]
	 D(4,9,3,6)       =        -0.025198	      -1.443764
	 D(4,9,3,17)      =         3.098918	     177.554904
	 D(4,9,8,11)      =        -0.675776	     -38.719114
	 D(5,10,2,16)     =        -3.119030	    -178.707283
	 D(5,10,13,23)    =        -0.000215	      -0.012332
	 D(5,11,8,9)      =         3.112284	     178.320744
	 D(6,3,9,8)       =        -3.132445	    -179.475904
	 D(6,12,7,21)     =        -3.138571	    -179.826877
	 D(7,4,9,8)       =         3.129696	     179.318349
	 D(7,12,6,20)     =        -3.122476	    -178.904678
	 D(8,1,2,10)      =        -0.008208	      -0.470261
	 D(8,1,2,16)      =         3.124176	     179.002085
	 D(8,9,3,17)      =        -0.008329	      -0.477236
	 D(8,9,4,18)      =        -0.030197	      -1.730188
	 D(8,11,5,10)     =        -0.032378	      -1.855105
	 D(8,11,5,19)     =         3.106418	     177.984649
	 D(9,3,6,12)      =         0.013948	       0.799134
	 D(9,3,6,20)      =         3.135351	     179.642407
	 D(9,4,7,12)      =        -0.009860	      -0.564945
	 D(9,4,7,21)      =         3.126008	     179.107076
	 D(9,8,1,15)      =         0.016530	       0.947087
	 D(9,8,11,14)     =        -0.069210	      -3.965429
	 D(10,2,1,15)     =        -3.116894	    -178.584868
	 D(10,5,11,14)    =        -3.134282	    -179.581115
	 D(11,5,10,13)    =        -3.132842	    -179.498645
	 D(11,8,1,15)     =         3.092526	     177.188683
	 D(12,6,3,17)     =        -3.110432	    -178.214623
	 D(12,7,4,18)     =        -3.133497	    -179.536167
	 D(13,10,2,16)    =         0.020061	       1.149384
	 D(13,10,5,19)    =         0.011628	       0.666238
	 D(14,11,5,19)    =         0.004514	       0.258638
	 D(15,1,2,16)     =         0.015489	       0.887478
	 D(17,3,6,20)     =         0.010972	       0.628649
	 D(18,4,7,21)     =         0.002371	       0.135854
	 D(20,6,12,22)    =         0.011711	       0.670972
	 D(21,7,12,22)    =         0.010427	       0.597401
	 R(4,14)          =         5.308341	       2.809053

	Current energy   :      -653.2500895141

	Energy change for the previous step:
		Projected    :        -0.0000009577
		Actual       :        -0.0000006388

	Performing BFGS update.
	Previous computed or guess Hessian on step 1.
	Steps to be used in Hessian update: 13 12
	Adding user-defined constraint: Fragment 1; Coordinate 64:
		Value =    -0.780692; Fixed value    =    -0.785400
		Force =    -0.003884; Force constant =     0.825000
	Removing off-diagonal coupling between coordinate 64 and others.
	Taking RFO optimization step.
	Going to follow RFO solution 1.
	Rejecting RFO root 1 because normalization gives large value.
	Rejecting RFO root 2 because normalization gives large value.
	Rejecting RFO root 3 because normalization gives large value.
	Using RFO vector 4.

	Determining step-restricting scale parameter for RS-RFO.
	Maximum step size allowed    0.10000

	 Iter      |step|        alpha        rfo_root  
	------------------------------------------------
	    0   313.71470       1.00000           4
	    1   156.88297       1.99969           4
	    2    78.46709       3.99813           4
	    3    39.25916       7.99129           4
	    4    19.65521      15.96272           4
	    5     9.85327      31.84618           4
	    6     4.95236      63.37685           4
	    7     2.50202     125.50414           4
	    8     1.27710     246.10798           4
	    9     0.66512     473.37165           4
	   10     0.36009     877.02100           4
	   11     0.20949    1514.68437           4
	   12     0.13786    2315.29187           4
	   13     0.10826    2961.91791           4
	   14     0.10060    3192.82366           4
	   15     0.10000    3212.21615           4
	------------------------------------------------
	Norm of target step-size    0.10000
	Projected energy change by RFO approximation:        -0.0000177152

	Back-transformation to cartesian coordinates...
	Could not converge backtransformation.
	Using first guess instead.

	--- Internal Coordinate Step in ANG or DEG, aJ/ANG or AJ/DEG ---
	 ---------------------------------------------------------------------------
	   Coordinate                Previous        Force       Change         New 
	   ----------                --------       ------       ------       ------
	    1 R(1,2)          =      1.376043     0.000003     0.000049     1.376092
	    2 R(1,8)          =      1.400272    -0.000102    -0.000431     1.399840
	    3 R(1,15)         =      1.080119    -0.000017    -0.000108     1.080011
	    4 R(2,10)         =      1.394134     0.000016    -0.000206     1.393928
	    5 R(2,16)         =      1.077863    -0.000019    -0.000078     1.077784
	    6 R(3,6)          =      1.373000    -0.000001    -0.000186     1.372814
	    7 R(3,9)          =      1.399099     0.000054     0.000477     1.399576
	    8 R(3,17)         =      1.078126     0.000019     0.000135     1.078261
	    9 R(4,7)          =      1.373133    -0.000024    -0.000082     1.373051
	   10 R(4,9)          =      1.399407     0.000100    -0.000191     1.399216
	   11 R(4,18)         =      1.076633     0.000052     0.000166     1.076799
	   12 R(5,10)         =      1.390742     0.000039     0.000550     1.391292
	   13 R(5,11)         =      1.374505     0.000018    -0.000040     1.374465
	   14 R(5,19)         =      1.079084     0.000017     0.000172     1.079257
	   15 R(6,12)         =      1.342709     0.000002     0.000012     1.342721
	   16 R(6,20)         =      1.077175     0.000015     0.000418     1.077593
	   17 R(7,12)         =      1.343023     0.000068     0.000380     1.343403
	   18 R(7,21)         =      1.077139     0.000008     0.000085     1.077224
	   19 R(8,9)          =      1.446061     0.000076    -0.000862     1.445199
	   20 R(8,11)         =      1.391103     0.000145     0.000001     1.391105
	   21 R(10,13)        =      1.342664     0.000015     0.000294     1.342958
	   22 R(11,14)        =      1.344548    -0.000079    -0.001007     1.343540
	   23 R(12,22)        =      1.012116     0.000009     0.000095     1.012211
	   24 R(13,23)        =      0.963733     0.000013     0.000131     0.963863
	   25 B(1,2,10)       =    119.807932    -0.000000    -0.040118   119.767814
	   26 B(1,2,16)       =    121.232931     0.000000     0.009872   121.242803
	   27 B(1,8,9)        =    120.891470    -0.000001    -0.808651   120.082820
	   28 B(1,8,11)       =    116.986273     0.000001     0.047081   117.033354
	   29 B(2,1,8)        =    121.470165     0.000000     0.015486   121.485650
	   30 B(2,1,15)       =    119.307741    -0.000000    -0.087830   119.219911
	   31 B(2,10,5)       =    120.036432     0.000000    -0.006427   120.030006
	   32 B(2,10,13)      =    116.843783    -0.000000     0.004309   116.848092
	   33 B(3,6,12)       =    119.207286    -0.000000    -0.047175   119.160111
	   34 B(3,6,20)       =    123.800994     0.000000     0.064636   123.865630
	   35 B(3,9,4)        =    117.505633    -0.000000     0.023395   117.529028
	   36 B(3,9,8)        =    120.331226    -0.000000     0.014574   120.345800
	   37 B(4,7,12)       =    119.448933    -0.000000    -0.012237   119.436696
	   38 B(4,7,21)       =    123.640283     0.000000    -0.000662   123.639621
	   39 B(4,9,8)        =    122.132588     0.000001    -0.056670   122.075917
	   40 B(5,10,13)      =    123.119619    -0.000000    -0.038122   123.081498
	   41 B(5,11,8)       =    122.866360    -0.000001    -0.066346   122.800015
	   42 B(5,11,14)      =    118.266559    -0.000000    -0.037813   118.228746
	   43 B(6,3,9)        =    120.645966     0.000000     0.008196   120.654162
	   44 B(6,3,17)       =    118.909962    -0.000000    -0.049808   118.860154
	   45 B(6,12,7)       =    122.789240     0.000000     0.045784   122.835024
	   46 B(6,12,22)      =    118.613639    -0.000000    -0.059223   118.554417
	   47 B(7,4,9)        =    120.387810     0.000000    -0.025141   120.362668
	   48 B(7,4,18)       =    118.850724     0.000000     0.053848   118.904571
	   49 B(7,12,22)      =    118.595800     0.000000     0.014755   118.610555
	   50 B(8,1,15)       =    119.195664     0.000000     0.073773   119.269438
	   51 B(8,11,14)      =    118.828973     0.000001     0.115953   118.944926
	   52 B(9,3,17)       =    120.436657    -0.000000     0.043760   120.480417
	   53 B(9,4,18)       =    120.753346    -0.000000    -0.041137   120.712210
	   54 B(9,8,11)       =    122.011061     0.000001     0.718775   122.729837
	   55 B(10,2,16)      =    118.957076     0.000000     0.032294   118.989370
	   56 B(10,5,11)      =    118.799656     0.000000     0.027084   118.826740
	   57 B(10,5,19)      =    121.981661    -0.000000    -0.038797   121.942864
	   58 B(10,13,23)     =    110.806344     0.000000     0.033709   110.840054
	   59 B(11,5,19)      =    119.218481     0.000000     0.009702   119.228183
	   60 B(12,6,20)      =    116.982216    -0.000000    -0.008418   116.973799
	   61 B(12,7,21)      =    116.910021    -0.000000    -0.005253   116.904767
	   62 D(1,2,10,5)     =      0.777073    -0.000000     1.424215     2.201289
	   63 D(1,2,10,13)    =   -179.366259    -0.000000    -0.673405  -180.039665
	   64 D(1,8,9,3)      =    -44.730349     0.000007     0.298675   -44.431674
	   65 D(1,8,9,4)      =    137.330842     0.000004     0.853623   138.184466
	   66 D(1,8,11,5)     =      2.124405    -0.000001     0.125390     2.249795
	   67 D(1,8,11,14)    =    179.838233    -0.000001     0.511144   180.349376
	   68 D(2,1,8,9)      =   -177.169586    -0.000001     0.336198  -176.833387
	   69 D(2,1,8,11)     =     -0.927990     0.000001    -0.293102    -1.221092
	   70 D(2,10,5,11)    =      0.348659     0.000000    -1.572067    -1.223407
	   71 D(2,10,5,19)    =   -179.486457     0.000000    -1.191338  -180.677795
	   72 D(2,10,13,23)   =   -179.864177     0.000000     1.202616  -178.661561
	   73 D(3,6,12,7)     =      0.016710    -0.000000     0.309926     0.326636
	   74 D(3,6,12,22)    =    179.592359     0.000000     0.708825   180.301184
	   75 D(3,9,4,7)      =      1.324105    -0.000001     0.378070     1.702175
	   76 D(3,9,4,18)     =   -179.724432    -0.000001    -0.240433  -179.964866
	   77 D(3,9,8,11)     =    139.219695     0.000004     0.995138   140.214832
	   78 D(4,7,12,6)     =     -0.133087     0.000000    -0.116239    -0.249326
	   79 D(4,7,12,22)    =   -179.708808    -0.000000    -0.515053  -180.223861
	   80 D(4,9,3,6)      =     -1.443764     0.000001    -0.185615    -1.629379
	   81 D(4,9,3,17)     =    177.554904     0.000001    -0.028658   177.526246
	   82 D(4,9,8,11)     =    -38.719114     0.000002     1.550086   -37.169028
	   83 D(5,10,2,16)    =   -178.707283    -0.000000     0.948587  -177.758696
	   84 D(5,10,13,23)   =     -0.012332     0.000000    -0.964757    -0.977089
	   85 D(5,11,8,9)     =    178.320744     0.000001    -0.584468   177.736276
	   86 D(6,3,9,8)      =   -179.475904    -0.000001     0.346259  -179.129645
	   87 D(6,12,7,21)    =   -179.826877     0.000000     1.101861  -178.725016
	   88 D(7,4,9,8)      =    179.318349     0.000001    -0.162098   179.156252
	   89 D(7,12,6,20)    =   -178.904678    -0.000000    -1.005891  -179.910568
	   90 D(8,1,2,10)     =     -0.470261    -0.000001    -0.477177    -0.947438
	   91 D(8,1,2,16)     =    179.002085    -0.000000     0.009539   179.011624
	   92 D(8,9,3,17)     =     -0.477236    -0.000002     0.503217     0.025981
	   93 D(8,9,4,18)     =     -1.730188     0.000002    -0.780601    -2.510789
	   94 D(8,11,5,10)    =     -1.855105     0.000001     0.803522    -1.051583
	   95 D(8,11,5,19)    =    177.984649     0.000000     0.433228   178.417877
	   96 D(9,3,6,12)     =      0.799134    -0.000001    -0.149741     0.649394
	   97 D(9,3,6,20)     =    179.642407    -0.000000     1.261579   180.903986
	   98 D(9,4,7,12)     =     -0.564945     0.000001    -0.237644    -0.802590
	   99 D(9,4,7,21)     =    179.107076     0.000000    -1.542433   177.564642
	  100 D(9,8,1,15)     =      0.947087    -0.000002     0.386196     1.333283
	  101 D(9,8,11,14)    =     -3.965429     0.000001    -0.198714    -4.164143
	  102 D(10,2,1,15)    =   -178.584868    -0.000000    -0.530127  -179.114995
	  103 D(10,5,11,14)   =   -179.581115     0.000000     0.417046  -179.164069
	  104 D(11,5,10,13)   =   -179.498645     0.000000     0.661530  -178.837115
	  105 D(11,8,1,15)    =    177.188683     0.000001    -0.243104   176.945578
	  106 D(12,6,3,17)    =   -178.214623    -0.000000    -0.305105  -178.519728
	  107 D(12,7,4,18)    =   -179.536167     0.000000     0.370746  -179.165421
	  108 D(13,10,2,16)   =      1.149384    -0.000000    -1.149384     0.000000
	  109 D(13,10,5,19)   =      0.666238     0.000000     1.042259     1.708498
	  110 D(14,11,5,19)   =      0.258638     0.000000     0.046751     0.305390
	  111 D(15,1,2,16)    =      0.887478    -0.000000    -0.043411     0.844067
	  112 D(17,3,6,20)    =      0.628649    -0.000000     1.106215     1.734864
	  113 D(18,4,7,21)    =      0.135854     0.000000    -0.934043    -0.798189
	  114 D(20,6,12,22)   =      0.670972    -0.000000    -0.606992     0.063980
	  115 D(21,7,12,22)   =      0.597401     0.000000     0.703047     1.300449
	  116 R(4,14)         =      2.809053    -0.000107     0.008083     2.817136
	 ---------------------------------------------------------------------------
	Successfully symmetrized geometry.
	 Forces used to impose fixed constraints are not included.
	  Forces zeroed: 64 

  ==> Convergence Check <==

  Measures of convergence in internal coordinates in au.
  Criteria marked as inactive (o), active & met (*), and active & unmet ( ).
  ---------------------------------------------------------------------------------------------
   Step     Total Energy     Delta E     MAX Force     RMS Force      MAX Disp      RMS Disp   
  ---------------------------------------------------------------------------------------------
    Convergence Criteria    1.00e-06 *    3.00e-04 *             o    1.20e-03 *             o
  ---------------------------------------------------------------------------------------------
     14    -653.25008951   -6.39e-07 *    2.37e-04 *    4.29e-05 o    2.74e-02      9.30e-03 o  ~
  ---------------------------------------------------------------------------------------------


  **** Optimization is complete! (in 14 steps) ****

  ==> Optimization Summary <==

  Measures of convergence in internal coordinates in au.
  --------------------------------------------------------------------------------------------------------------- ~
   Step         Total Energy             Delta E       MAX Force       RMS Force        MAX Disp        RMS Disp  ~
  --------------------------------------------------------------------------------------------------------------- ~
      1    -653.245792872481   -653.245792872481      0.01712047      0.00454186      0.03087752      0.00927904  ~
      2    -653.249015342401     -0.003222469920      0.00518092      0.00168849      0.03397661      0.00930629  ~
      3    -653.249928821838     -0.000913479436      0.00217204      0.00046663      0.05115803      0.00931607  ~
      4    -653.250103264972     -0.000174443134      0.00098611      0.00017204      0.01838846      0.00347023  ~
      5    -653.250123733663     -0.000020468692      0.00028730      0.00006520      0.00486450      0.00118457  ~
      6    -653.250115006708      0.000008726955      0.00008640      0.00002558      0.00355608      0.00079968  ~
      7    -653.250112941542      0.000002065166      0.00012951      0.00002668      0.04677859      0.00925742  ~
      8    -653.250030447412      0.000082494130      0.00204094      0.00043860      0.04653099      0.00931027  ~
      9    -653.250065748438     -0.000035301025      0.00146984      0.00021943      0.00293681      0.00057471  ~
     10    -653.250090506059     -0.000024757622      0.00054172      0.00007915      0.00369936      0.00065240  ~
     11    -653.250091992123     -0.000001486063      0.00040369      0.00006139      0.00231124      0.00056066  ~
     12    -653.250086722542      0.000005269581      0.00056681      0.00008395      0.00256724      0.00071126  ~
     13    -653.250088875296     -0.000002152754      0.00045605      0.00006675      0.00133953      0.00028732  ~
     14    -653.250089514105     -0.000000638809      0.00038242      0.00005571      0.02743774      0.00929771  ~
  --------------------------------------------------------------------------------------------------------------- ~

	Writing optimization data to binary file.
	Final energy is   -653.2500895141048
	Final (previous) structure:
	Cartesian Geometry (in Angstrom)
	    C    -1.3683171709   0.7187020483  -0.7708077429
	    C    -2.4298808530   1.3062422905  -0.1216755733
	    C     0.6394931601  -1.2342929296  -1.8846164888
	    C     2.1386330749  -0.2293924656  -0.3139351458
	    C    -1.4340756296   0.7454992296   2.0026422690
	    C     1.7153748497  -1.7781436890  -2.5417567718
	    C     3.1927092208  -0.7897642302  -0.9924633528
	    C    -0.3126097060   0.1316145553  -0.0625912616
	    C     0.8259539981  -0.4284744312  -0.7561806613
	    C    -2.4712619978   1.3149733893   1.2718168389
	    C    -0.3760783558   0.1869211766   1.3259622405
	    N     2.9535603019  -1.5413905028  -2.0794664451
	    O    -3.5404081356   1.8923795390   1.8430213925
	    F     0.6166397797  -0.3682444202   2.0429773547
	    H    -1.3330023443   0.7367716244  -1.8501979661
	    H    -3.2326862346   1.7710657411  -0.6705201001
	    H    -0.3540219666  -1.4512435710  -2.2426888671
	    H     2.3418267740   0.3776042654   0.5517466042
	    H    -1.4377965324   0.7275748184   3.0815714268
	    H     1.6304402881  -2.4091829853  -3.4105956953
	    H     4.2231139595  -0.6593900374  -0.7069858457
	    H     3.7397411988  -1.9518505131  -2.5671353786
	    H    -3.4788936074   1.8517226792   2.8039290359
	Saving final (previous) structure.
			--------------------------
			 OPTKING Finished Execution 
			--------------------------

    Final optimized geometry and variables:
    Molecular point group: c1
    Full point group: C1

    Geometry (in Angstrom), charge = 1, multiplicity = 1:

    C           -1.368317170869     0.718702048287    -0.770807742904
    C           -2.429880852973     1.306242290540    -0.121675573260
    C            0.639493160074    -1.234292929584    -1.884616488768
    C            2.138633074923    -0.229392465646    -0.313935145839
    C           -1.434075629632     0.745499229619     2.002642269034
    C            1.715374849719    -1.778143689045    -2.541756771755
    C            3.192709220766    -0.789764230168    -0.992463352818
    C           -0.312609706045     0.131614555291    -0.062591261627
    C            0.825953998083    -0.428474431183    -0.756180661289
    C           -2.471261997827     1.314973389267     1.271816838948
    C           -0.376078355831     0.186921176604     1.325962240457
    N            2.953560301914    -1.541390502798    -2.079466445131
    O           -3.540408135646     1.892379539019     1.843021392536
    F            0.616639779747    -0.368244420160     2.042977354668
    H           -1.333002344274     0.736771624411    -1.850197966134
    H           -3.232686234571     1.771065741088    -0.670520100133
    H           -0.354021966568    -1.451243570960    -2.242688867067
    H            2.341826774021     0.377604265403     0.551746604173
    H           -1.437796532373     0.727574818402     3.081571426777
    H            1.630440288117    -2.409182985293    -3.410595695316
    H            4.223113959459    -0.659390037384    -0.706985845659
    H            3.739741198805    -1.951850513123    -2.567135378620
    H           -3.478893607416     1.851722679152     2.803929035915

	Cleaning optimization helper files.

*** Psi4 exiting successfully. Buy a developer a beer!
