
    -----------------------------------------------------------------------
          Psi4: An Open-Source Ab Initio Electronic Structure Package
                               Psi4 1.1 release

                         Git: Rev {HEAD} add49b9 


    R. M. Parrish, L. A. Burns, D. G. A. Smith, A. C. Simmonett,
    A. E. DePrince III, E. G. Hohenstein, U. Bozkaya, A. Yu. Sokolov,
    R. Di Remigio, R. M. Richard, J. F. Gonthier, A. M. James,
    H. R. McAlexander, A. Kumar, M. Saitow, X. Wang, B. P. Pritchard,
    P. Verma, H. F. Schaefer III, K. Patkowski, R. A. King, E. F. Valeev,
    F. A. Evangelista, J. M. Turney, T. D. Crawford, and C. D. Sherrill,
    J. Chem. Theory Comput. in press (2017).
    (doi: 10.1021/acs.jctc.7b00174)

    -----------------------------------------------------------------------


    Psi4 started on: Sunday, 12 November 2017 09:00AM

    Process ID:   3423
    PSIDATADIR: /cbio/jclab/home/chayas/anaconda/envs/py35/share/psi4
    Memory:     500.0 MiB
    Threads:    8
    
  ==> Input File <==

--------------------------------------------------------------------------

memory 5 Gb

molecule phepyrOH_cation {
  symmetry C1
  1 1 
  C      1.885   -1.036   -0.112
  C      2.878   -1.652   2.002
  C      0.807   -0.463   0.561
  C      1.800   -1.079   2.676
  C      4.440   -1.719   -1.322
  C      4.716   -3.305   0.469
  C      5.516   -2.309   -1.970
  C      5.786   -3.855   -0.224
  C      2.921   -1.631   0.608
  C      4.040   -2.225   -0.090
  C      0.764   -0.484   1.955
  N      6.150   -3.348   -1.409
  O      -0.288   0.076   2.612
  H      1.904   -1.012   -1.199
  H      3.678   -2.112   2.578
  H      0.003   -0.001   -0.006
  H      1.772   -1.098   3.762
  H      3.931   -0.877   -1.782
  H      4.425   -3.721   1.429
  H      5.897   -1.982   -2.928
  H      6.368   -4.693   0.134
  H      6.938   -3.767   -1.902
  H      -0.301   -0.216   3.537
  units Angstrom
}

dih_string = "3 11 13 23 165"
set optking fixed_dihedral = $dih_string

optimize('MP2/aug-cc-PVTZ')
--------------------------------------------------------------------------

  Memory set to   4.657 GiB by Python driver.
gradient() will perform analytic gradient computation.

*** tstart() called on gpu-1-12.local
*** at Sun Nov 12 09:00:06 2017

    SCF Algorithm Type (re)set to DF.

*** tstart() called on gpu-1-12.local
*** at Sun Nov 12 09:00:06 2017

   => Loading Basis Set <=

    Name: AUG-CC-PVTZ
    Role: ORBITAL
    Keyword: BASIS
    atoms 1-11  entry C          line   221 file /cbio/jclab/home/chayas/anaconda/envs/py35/share/psi4/basis/aug-cc-pvtz.gbs 
    atoms 12    entry N          line   267 file /cbio/jclab/home/chayas/anaconda/envs/py35/share/psi4/basis/aug-cc-pvtz.gbs 
    atoms 13    entry O          line   313 file /cbio/jclab/home/chayas/anaconda/envs/py35/share/psi4/basis/aug-cc-pvtz.gbs 
    atoms 14-23 entry H          line    34 file /cbio/jclab/home/chayas/anaconda/envs/py35/share/psi4/basis/aug-cc-pvtz.gbs 


         ---------------------------------------------------------
                                   SCF
            by Justin Turney, Rob Parrish, and Andy Simmonett
                              RHF Reference
                        8 Threads,   4768 MiB Core
         ---------------------------------------------------------

  ==> Geometry <==

    Molecular point group: c1
    Full point group: C1

    Geometry (in Angstrom), charge = 1, multiplicity = 1:

       Center              X                  Y                   Z               Mass       
    ------------   -----------------  -----------------  -----------------  -----------------
           C         -1.270776977305     0.721326310190    -0.578861295303    12.000000000000
           C         -0.277776977305     0.105326310190     1.535138704697    12.000000000000
           C         -2.348776977305     1.294326310190     0.094138704697    12.000000000000
           C         -1.355776977305     0.678326310190     2.209138704697    12.000000000000
           C          1.284223022695     0.038326310190    -1.788861295303    12.000000000000
           C          1.560223022695    -1.547673689810     0.002138704697    12.000000000000
           C          2.360223022695    -0.551673689810    -2.436861295303    12.000000000000
           C          2.630223022695    -2.097673689810    -0.690861295303    12.000000000000
           C         -0.234776977305     0.126326310190     0.141138704697    12.000000000000
           C          0.884223022695    -0.467673689810    -0.556861295303    12.000000000000
           C         -2.391776977305     1.273326310190     1.488138704697    12.000000000000
           N          2.994223022695    -1.590673689810    -1.875861295303    14.003074004780
           O         -3.443776977305     1.833326310190     2.145138704697    15.994914619560
           H         -1.251776977305     0.745326310190    -1.665861295303     1.007825032070
           H          0.522223022695    -0.354673689810     2.111138704697     1.007825032070
           H         -3.152776977305     1.756326310190    -0.472861295303     1.007825032070
           H         -1.383776977305     0.659326310190     3.295138704697     1.007825032070
           H          0.775223022695     0.880326310190    -2.248861295303     1.007825032070
           H          1.269223022695    -1.963673689810     0.962138704697     1.007825032070
           H          2.741223022695    -0.224673689810    -3.394861295303     1.007825032070
           H          3.212223022695    -2.935673689810    -0.332861295303     1.007825032070
           H          3.782223022695    -2.009673689810    -2.368861295303     1.007825032070
           H         -3.456776977305     1.541326310190     3.070138704697     1.007825032070

  Running in c1 symmetry.

  Rotational constants: A =      0.09613  B =      0.01336  C =      0.01192 [cm^-1]
  Rotational constants: A =   2881.76372  B =    400.43883  C =    357.39815 [MHz]
  Nuclear repulsion =  713.246552309680737

  Charge       = 1
  Multiplicity = 1
  Electrons    = 90
  Nalpha       = 45
  Nbeta        = 45

  ==> Algorithm <==

  SCF Algorithm Type is DF.
  DIIS enabled.
  MOM disabled.
  Fractional occupation disabled.
  Guess Type is SAD.
  Energy threshold   = 1.00e-10
  Density threshold  = 1.00e-10
  Integral threshold = 0.00e+00

  ==> Primary Basis <==

  Basis Set: AUG-CC-PVTZ
    Blend: AUG-CC-PVTZ
    Number of shells: 272
    Number of basis function: 828
    Number of Cartesian functions: 965
    Spherical Harmonics?: true
    Max angular momentum: 3

   => Loading Basis Set <=

    Name: (AUG-CC-PVTZ AUX)
    Role: JKFIT
    Keyword: DF_BASIS_SCF
    atoms 1-11  entry C          line   161 file /cbio/jclab/home/chayas/anaconda/envs/py35/share/psi4/basis/aug-cc-pvtz-jkfit.gbs 
    atoms 12    entry N          line   223 file /cbio/jclab/home/chayas/anaconda/envs/py35/share/psi4/basis/aug-cc-pvtz-jkfit.gbs 
    atoms 13    entry O          line   285 file /cbio/jclab/home/chayas/anaconda/envs/py35/share/psi4/basis/aug-cc-pvtz-jkfit.gbs 
    atoms 14-23 entry H          line    69 file /cbio/jclab/home/chayas/anaconda/envs/py35/share/psi4/basis/aug-cc-pvtz-jkfit.gbs 

  ==> Pre-Iterations <==

   -------------------------------------------------------
    Irrep   Nso     Nmo     Nalpha   Nbeta   Ndocc  Nsocc
   -------------------------------------------------------
     A        828     828       0       0       0       0
   -------------------------------------------------------
    Total     828     828      45      45      45       0
   -------------------------------------------------------

  ==> Integral Setup <==

  ==> DFJK: Density-Fitted J/K Matrices <==

    J tasked:                  Yes
    K tasked:                  Yes
    wK tasked:                  No
    OpenMP threads:              8
    Integrals threads:           8
    Memory (MB):              3576
    Algorithm:                Disk
    Integral Cache:           NONE
    Schwarz Cutoff:          1E-12
    Fitting Condition:       1E-12

   => Auxiliary Basis Set <=

  Basis Set: (AUG-CC-PVTZ AUX)
    Blend: AUG-CC-PVTZ-JKFIT
    Number of shells: 530
    Number of basis function: 1812
    Number of Cartesian functions: 2253
    Spherical Harmonics?: true
    Max angular momentum: 4

  Minimum eigenvalue in the overlap matrix is 5.5721319258E-07.
  Using Symmetric Orthogonalization.

  SCF Guess: Superposition of Atomic Densities via on-the-fly atomic UHF.

  ==> Iterations <==

                           Total Energy        Delta E     RMS |[F,P]|

   @DF-RHF iter   0:  -553.85634646564017   -5.53856e+02   1.65054e-02 
   @DF-RHF iter   1:  -551.26729162769288    2.58905e+00   1.72221e-03 
   @DF-RHF iter   2:  -551.59625537502291   -3.28964e-01   8.74442e-04 DIIS
   @DF-RHF iter   3:  -551.65736108703345   -6.11057e-02   3.93404e-04 DIIS
   @DF-RHF iter   4:  -551.67287738632501   -1.55163e-02   1.43218e-04 DIIS
   @DF-RHF iter   5:  -551.67504799729204   -2.17061e-03   6.02641e-05 DIIS
   @DF-RHF iter   6:  -551.67552596709209   -4.77970e-04   2.04198e-05 DIIS
   @DF-RHF iter   7:  -551.67559809372972   -7.21266e-05   9.25230e-06 DIIS
   @DF-RHF iter   8:  -551.67561119785853   -1.31041e-05   3.93777e-06 DIIS
   @DF-RHF iter   9:  -551.67561592645677   -4.72860e-06   1.61077e-06 DIIS
   @DF-RHF iter  10:  -551.67561715172280   -1.22527e-06   7.66322e-07 DIIS
   @DF-RHF iter  11:  -551.67561729137014   -1.39647e-07   1.92292e-07 DIIS
   @DF-RHF iter  12:  -551.67561729777265   -6.40250e-09   7.17724e-08 DIIS
   @DF-RHF iter  13:  -551.67561729855936   -7.86713e-10   1.97435e-08 DIIS
   @DF-RHF iter  14:  -551.67561729868703   -1.27670e-10   9.89877e-09 DIIS
   @DF-RHF iter  15:  -551.67561729871431   -2.72848e-11   5.12748e-09 DIIS
   @DF-RHF iter  16:  -551.67561729870738    6.93490e-12   2.24830e-09 DIIS
   @DF-RHF iter  17:  -551.67561729874478   -3.74030e-11   1.02767e-09 DIIS
   @DF-RHF iter  18:  -551.67561729873012    1.46656e-11   4.26291e-10 DIIS
   @DF-RHF iter  19:  -551.67561729873830   -8.18545e-12   1.49612e-10 DIIS
   @DF-RHF iter  20:  -551.67561729872591    1.23919e-11   6.23602e-11 DIIS

  ==> Post-Iterations <==

    Orbital Energies (a.u.)
    -----------------------

    Doubly Occupied:                                                      

       1A    -20.702453     2A    -15.832781     3A    -11.483720  
       4A    -11.483634     5A    -11.445415     6A    -11.433871  
       7A    -11.414135     8A    -11.413831     9A    -11.380242  
      10A    -11.378574    11A    -11.371654    12A    -11.357675  
      13A    -11.354265    14A     -1.517705    15A     -1.510767  
      16A     -1.320874    17A     -1.264073    18A     -1.236611  
      19A     -1.154713    20A     -1.151491    21A     -1.068122  
      22A     -1.054162    23A     -0.975921    24A     -0.961718  
      25A     -0.950141    26A     -0.870477    27A     -0.859089  
      28A     -0.853953    29A     -0.821758    30A     -0.798239  
      31A     -0.781232    32A     -0.772889    33A     -0.756913  
      34A     -0.733435    35A     -0.721721    36A     -0.706440  
      37A     -0.705959    38A     -0.678245    39A     -0.654117  
      40A     -0.639522    41A     -0.617918    42A     -0.570492  
      43A     -0.537062    44A     -0.470008    45A     -0.438163  

    Virtual:                                                              

      46A     -0.105012    47A     -0.084453    48A     -0.063554  
      49A     -0.062906    50A     -0.059441    51A     -0.049145  
      52A     -0.043838    53A     -0.039255    54A     -0.034565  
      55A     -0.028380    56A     -0.026015    57A     -0.024288  
      58A     -0.016690    59A     -0.009991    60A     -0.006796  
      61A     -0.001613    62A      0.003250    63A      0.005856  
      64A      0.009093    65A      0.015369    66A      0.016790  
      67A      0.019969    68A      0.024404    69A      0.024982  
      70A      0.028531    71A      0.032345    72A      0.037208  
      73A      0.038558    74A      0.040706    75A      0.045039  
      76A      0.048890    77A      0.056593    78A      0.058248  
      79A      0.059505    80A      0.065430    81A      0.068019  
      82A      0.072553    83A      0.074235    84A      0.078811  
      85A      0.084110    86A      0.086412    87A      0.088014  
      88A      0.095520    89A      0.098553    90A      0.108025  
      91A      0.110151    92A      0.114573    93A      0.121469  
      94A      0.122499    95A      0.125123    96A      0.128123  
      97A      0.132652    98A      0.136865    99A      0.139984  
     100A      0.144584   101A      0.151193   102A      0.157297  
     103A      0.159915   104A      0.163348   105A      0.166504  
     106A      0.168383   107A      0.172115   108A      0.173033  
     109A      0.180457   110A      0.182077   111A      0.187568  
     112A      0.189716   113A      0.193176   114A      0.197430  
     115A      0.203264   116A      0.206074   117A      0.210939  
     118A      0.212938   119A      0.215479   120A      0.220249  
     121A      0.223230   122A      0.227311   123A      0.231227  
     124A      0.232873   125A      0.233856   126A      0.239329  
     127A      0.241472   128A      0.248805   129A      0.251748  
     130A      0.257824   131A      0.259506   132A      0.275312  
     133A      0.276428   134A      0.279806   135A      0.281549  
     136A      0.283960   137A      0.287779   138A      0.293574  
     139A      0.300011   140A      0.308526   141A      0.312034  
     142A      0.312878   143A      0.314243   144A      0.319441  
     145A      0.322990   146A      0.325585   147A      0.329528  
     148A      0.334206   149A      0.335708   150A      0.339210  
     151A      0.343137   152A      0.346278   153A      0.349606  
     154A      0.350904   155A      0.356241   156A      0.360643  
     157A      0.365556   158A      0.368833   159A      0.372595  
     160A      0.374090   161A      0.375681   162A      0.378591  
     163A      0.382461   164A      0.387411   165A      0.391119  
     166A      0.392426   167A      0.399343   168A      0.400194  
     169A      0.403750   170A      0.407819   171A      0.411738  
     172A      0.414622   173A      0.415872   174A      0.420286  
     175A      0.422949   176A      0.429955   177A      0.432297  
     178A      0.437151   179A      0.440515   180A      0.442901  
     181A      0.444761   182A      0.452200   183A      0.457647  
     184A      0.461499   185A      0.471379   186A      0.476124  
     187A      0.480755   188A      0.488008   189A      0.494202  
     190A      0.500306   191A      0.507177   192A      0.512130  
     193A      0.516829   194A      0.526592   195A      0.529300  
     196A      0.538060   197A      0.541450   198A      0.547898  
     199A      0.553607   200A      0.564309   201A      0.570065  
     202A      0.572746   203A      0.577754   204A      0.580787  
     205A      0.585308   206A      0.588762   207A      0.590881  
     208A      0.600871   209A      0.606001   210A      0.612523  
     211A      0.617390   212A      0.624431   213A      0.625734  
     214A      0.631616   215A      0.636370   216A      0.643426  
     217A      0.648598   218A      0.650721   219A      0.652913  
     220A      0.667246   221A      0.674186   222A      0.676788  
     223A      0.690458   224A      0.694227   225A      0.696865  
     226A      0.703826   227A      0.708621   228A      0.711419  
     229A      0.713302   230A      0.718917   231A      0.725376  
     232A      0.730378   233A      0.734995   234A      0.739386  
     235A      0.742857   236A      0.751274   237A      0.756588  
     238A      0.760443   239A      0.769912   240A      0.771441  
     241A      0.776228   242A      0.781001   243A      0.781916  
     244A      0.785694   245A      0.787056   246A      0.794294  
     247A      0.800417   248A      0.804216   249A      0.806792  
     250A      0.811387   251A      0.816859   252A      0.817286  
     253A      0.827072   254A      0.828312   255A      0.836698  
     256A      0.845663   257A      0.849264   258A      0.856637  
     259A      0.857925   260A      0.859632   261A      0.864681  
     262A      0.870929   263A      0.873269   264A      0.878967  
     265A      0.880682   266A      0.884959   267A      0.887249  
     268A      0.892387   269A      0.900185   270A      0.906302  
     271A      0.907859   272A      0.916699   273A      0.923216  
     274A      0.925081   275A      0.927203   276A      0.936318  
     277A      0.937207   278A      0.939800   279A      0.945946  
     280A      0.954768   281A      0.956916   282A      0.957314  
     283A      0.963240   284A      0.966152   285A      0.970105  
     286A      0.970983   287A      0.977309   288A      0.983470  
     289A      0.988413   290A      0.993088   291A      0.996108  
     292A      1.000210   293A      1.008316   294A      1.010721  
     295A      1.016689   296A      1.018298   297A      1.025264  
     298A      1.028043   299A      1.036196   300A      1.040933  
     301A      1.042016   302A      1.048717   303A      1.057541  
     304A      1.059273   305A      1.063360   306A      1.068646  
     307A      1.070389   308A      1.076207   309A      1.079780  
     310A      1.083550   311A      1.087417   312A      1.095729  
     313A      1.099355   314A      1.103749   315A      1.106825  
     316A      1.114047   317A      1.124192   318A      1.125697  
     319A      1.129603   320A      1.138952   321A      1.144617  
     322A      1.149020   323A      1.157705   324A      1.158988  
     325A      1.163473   326A      1.163703   327A      1.170250  
     328A      1.179663   329A      1.180495   330A      1.199067  
     331A      1.204689   332A      1.222478   333A      1.227409  
     334A      1.231736   335A      1.234406   336A      1.237518  
     337A      1.243697   338A      1.256398   339A      1.263643  
     340A      1.267557   341A      1.272277   342A      1.282360  
     343A      1.284699   344A      1.291814   345A      1.300680  
     346A      1.308848   347A      1.313903   348A      1.321470  
     349A      1.324783   350A      1.325360   351A      1.343115  
     352A      1.345153   353A      1.354761   354A      1.360068  
     355A      1.365123   356A      1.375067   357A      1.380520  
     358A      1.384499   359A      1.391388   360A      1.398277  
     361A      1.403735   362A      1.413082   363A      1.419223  
     364A      1.422386   365A      1.432840   366A      1.441714  
     367A      1.449152   368A      1.453662   369A      1.459077  
     370A      1.472636   371A      1.480461   372A      1.484514  
     373A      1.498743   374A      1.504510   375A      1.512848  
     376A      1.531052   377A      1.538221   378A      1.539502  
     379A      1.539859   380A      1.550447   381A      1.559386  
     382A      1.563195   383A      1.571169   384A      1.579719  
     385A      1.584675   386A      1.591771   387A      1.601933  
     388A      1.607182   389A      1.628997   390A      1.635202  
     391A      1.641246   392A      1.645186   393A      1.657782  
     394A      1.662694   395A      1.670583   396A      1.680506  
     397A      1.685345   398A      1.697120   399A      1.700344  
     400A      1.708282   401A      1.710321   402A      1.718077  
     403A      1.725346   404A      1.734184   405A      1.734857  
     406A      1.749159   407A      1.750692   408A      1.763282  
     409A      1.766129   410A      1.784327   411A      1.791464  
     412A      1.801686   413A      1.808800   414A      1.814970  
     415A      1.817810   416A      1.819471   417A      1.834902  
     418A      1.838263   419A      1.844742   420A      1.856954  
     421A      1.866974   422A      1.878524   423A      1.879453  
     424A      1.883358   425A      1.896471   426A      1.903376  
     427A      1.909033   428A      1.915017   429A      1.918487  
     430A      1.921780   431A      1.925334   432A      1.945534  
     433A      1.948624   434A      1.950290   435A      1.952023  
     436A      1.961631   437A      1.966652   438A      1.980815  
     439A      1.990307   440A      1.994721   441A      1.999058  
     442A      2.013162   443A      2.015801   444A      2.028547  
     445A      2.037140   446A      2.041590   447A      2.060160  
     448A      2.061905   449A      2.072661   450A      2.075692  
     451A      2.086777   452A      2.092489   453A      2.100889  
     454A      2.115467   455A      2.122472   456A      2.139876  
     457A      2.149379   458A      2.162554   459A      2.190932  
     460A      2.201710   461A      2.204847   462A      2.210576  
     463A      2.214072   464A      2.217087   465A      2.230559  
     466A      2.236128   467A      2.248878   468A      2.254829  
     469A      2.259623   470A      2.276907   471A      2.285380  
     472A      2.293362   473A      2.296489   474A      2.307697  
     475A      2.323562   476A      2.333957   477A      2.354040  
     478A      2.356461   479A      2.365477   480A      2.372994  
     481A      2.392470   482A      2.401917   483A      2.409752  
     484A      2.414667   485A      2.419782   486A      2.422208  
     487A      2.432405   488A      2.449237   489A      2.457921  
     490A      2.476037   491A      2.489731   492A      2.502047  
     493A      2.521184   494A      2.522267   495A      2.547569  
     496A      2.565154   497A      2.568987   498A      2.572905  
     499A      2.596946   500A      2.602947   501A      2.624963  
     502A      2.638424   503A      2.660328   504A      2.674229  
     505A      2.687505   506A      2.708380   507A      2.714624  
     508A      2.733382   509A      2.743273   510A      2.763762  
     511A      2.769332   512A      2.794220   513A      2.804040  
     514A      2.849796   515A      2.866062   516A      2.877528  
     517A      2.904336   518A      2.943476   519A      2.952257  
     520A      2.964844   521A      2.976834   522A      2.979105  
     523A      3.003961   524A      3.009661   525A      3.035112  
     526A      3.059447   527A      3.070094   528A      3.084243  
     529A      3.089673   530A      3.111185   531A      3.141009  
     532A      3.161040   533A      3.164898   534A      3.173085  
     535A      3.191758   536A      3.199582   537A      3.208618  
     538A      3.213112   539A      3.230322   540A      3.236246  
     541A      3.247195   542A      3.258043   543A      3.260288  
     544A      3.269404   545A      3.278307   546A      3.283778  
     547A      3.309060   548A      3.315081   549A      3.324828  
     550A      3.328878   551A      3.348528   552A      3.357665  
     553A      3.374303   554A      3.379734   555A      3.386495  
     556A      3.392803   557A      3.396100   558A      3.402472  
     559A      3.412508   560A      3.415998   561A      3.417643  
     562A      3.431203   563A      3.441869   564A      3.451517  
     565A      3.466000   566A      3.469422   567A      3.471909  
     568A      3.487548   569A      3.500973   570A      3.504280  
     571A      3.512656   572A      3.538472   573A      3.548961  
     574A      3.554930   575A      3.561388   576A      3.572445  
     577A      3.574805   578A      3.598315   579A      3.603586  
     580A      3.616586   581A      3.626447   582A      3.627193  
     583A      3.631706   584A      3.653204   585A      3.657178  
     586A      3.659538   587A      3.666472   588A      3.689886  
     589A      3.702812   590A      3.708664   591A      3.713077  
     592A      3.720487   593A      3.734231   594A      3.740350  
     595A      3.754496   596A      3.758527   597A      3.765767  
     598A      3.771868   599A      3.783106   600A      3.787011  
     601A      3.796741   602A      3.798406   603A      3.814464  
     604A      3.821509   605A      3.833125   606A      3.841983  
     607A      3.849790   608A      3.856149   609A      3.868032  
     610A      3.875205   611A      3.879901   612A      3.881639  
     613A      3.889011   614A      3.894237   615A      3.901708  
     616A      3.916548   617A      3.940914   618A      3.943819  
     619A      3.950588   620A      3.960833   621A      3.964595  
     622A      3.986315   623A      3.994748   624A      4.012166  
     625A      4.024106   626A      4.029304   627A      4.034104  
     628A      4.038546   629A      4.055448   630A      4.058899  
     631A      4.062115   632A      4.077747   633A      4.084911  
     634A      4.093680   635A      4.103845   636A      4.111161  
     637A      4.111685   638A      4.117984   639A      4.138129  
     640A      4.140915   641A      4.152773   642A      4.162781  
     643A      4.173335   644A      4.182653   645A      4.186062  
     646A      4.199073   647A      4.209009   648A      4.214565  
     649A      4.222564   650A      4.228398   651A      4.233912  
     652A      4.245394   653A      4.253294   654A      4.263150  
     655A      4.269789   656A      4.278114   657A      4.288751  
     658A      4.296858   659A      4.302886   660A      4.307368  
     661A      4.312504   662A      4.324537   663A      4.329168  
     664A      4.343395   665A      4.352791   666A      4.368065  
     667A      4.374428   668A      4.376404   669A      4.381477  
     670A      4.395745   671A      4.404451   672A      4.408611  
     673A      4.427358   674A      4.444269   675A      4.448369  
     676A      4.454877   677A      4.458805   678A      4.490897  
     679A      4.496555   680A      4.509247   681A      4.539833  
     682A      4.556280   683A      4.570261   684A      4.581488  
     685A      4.594550   686A      4.609400   687A      4.611236  
     688A      4.618303   689A      4.645706   690A      4.653317  
     691A      4.661068   692A      4.670204   693A      4.681362  
     694A      4.684761   695A      4.716643   696A      4.722665  
     697A      4.739078   698A      4.754529   699A      4.761759  
     700A      4.767949   701A      4.774709   702A      4.802123  
     703A      4.816758   704A      4.825929   705A      4.828531  
     706A      4.836360   707A      4.861481   708A      4.872363  
     709A      4.887184   710A      4.896719   711A      4.904164  
     712A      4.916896   713A      4.936797   714A      4.941138  
     715A      4.954646   716A      4.962518   717A      4.970942  
     718A      4.977938   719A      4.989568   720A      4.999951  
     721A      5.003604   722A      5.014018   723A      5.018809  
     724A      5.040250   725A      5.050850   726A      5.052536  
     727A      5.079563   728A      5.098337   729A      5.114092  
     730A      5.137445   731A      5.143370   732A      5.164089  
     733A      5.178202   734A      5.186387   735A      5.198508  
     736A      5.211066   737A      5.218728   738A      5.231085  
     739A      5.264091   740A      5.274040   741A      5.284888  
     742A      5.300829   743A      5.310032   744A      5.316182  
     745A      5.355066   746A      5.361616   747A      5.380772  
     748A      5.391469   749A      5.413904   750A      5.433070  
     751A      5.442908   752A      5.452514   753A      5.509407  
     754A      5.524342   755A      5.553564   756A      5.560795  
     757A      5.571022   758A      5.592867   759A      5.606292  
     760A      5.616596   761A      5.637946   762A      5.661968  
     763A      5.694655   764A      5.700248   765A      5.717177  
     766A      5.734588   767A      5.780286   768A      5.809189  
     769A      5.843203   770A      5.862346   771A      5.939847  
     772A      5.948575   773A      5.989840   774A      5.995496  
     775A      6.026646   776A      6.046690   777A      6.090367  
     778A      6.127774   779A      6.190491   780A      6.205913  
     781A      6.248862   782A      6.288925   783A      6.304505  
     784A      6.349453   785A      6.369878   786A      6.394729  
     787A      6.417387   788A      6.483136   789A      6.490463  
     790A      6.548753   791A      6.579452   792A      6.627434  
     793A      6.672274   794A      6.752124   795A      6.785047  
     796A      6.797088   797A      6.809747   798A      6.832293  
     799A      6.844720   800A      6.891948   801A      6.967493  
     802A      6.971584   803A      6.987644   804A      7.113782  
     805A      7.174828   806A      7.305756   807A      7.366543  
     808A      7.467579   809A      7.545645   810A      7.591467  
     811A      7.596825   812A      7.650554   813A      7.886447  
     814A      8.275963   815A      8.518755   816A     16.014783  
     817A     16.276848   818A     16.595424   819A     16.670850  
     820A     16.968212   821A     18.796202   822A     19.110700  
     823A     19.377518   824A     19.753892   825A     19.967347  
     826A     20.009929   827A     20.536291   828A     21.770998  

    Final Occupation by Irrep:
              A 
    DOCC [    45 ]

  Energy converged.

  @DF-RHF Final Energy:  -551.67561729872591

   => Energetics <=

    Nuclear Repulsion Energy =            713.2465523096807374
    One-Electron Energy =               -2149.4319815195212868
    Two-Electron Energy =                 884.5098119111146389
    DFT Exchange-Correlation Energy =       0.0000000000000000
    Empirical Dispersion Energy =           0.0000000000000000
    PCM Polarization Energy =               0.0000000000000000
    EFP Energy =                            0.0000000000000000
    Total Energy =                       -551.6756172987259106



Properties will be evaluated at   0.000000,   0.000000,   0.000000 Bohr

Properties computed using the SCF density matrix

  Nuclear Dipole Moment: (a.u.)
     X:     2.8408      Y:    -1.7731      Z:    -0.9645

  Electronic Dipole Moment: (a.u.)
     X:     0.3366      Y:    -0.0988      Z:    -0.4866

  Dipole Moment: (a.u.)
     X:     3.1774      Y:    -1.8720      Z:    -1.4510     Total:     3.9631

  Dipole Moment: (Debye)
     X:     8.0762      Y:    -4.7581      Z:    -3.6882     Total:    10.0731


*** tstop() called on gpu-1-12.local at Sun Nov 12 09:08:35 2017
Module time:
	user time   =    1206.08 seconds =      20.10 minutes
	system time =      56.97 seconds =       0.95 minutes
	total time  =        509 seconds =       8.48 minutes
Total time:
	user time   =    1206.08 seconds =      20.10 minutes
	system time =      56.97 seconds =       0.95 minutes
	total time  =        509 seconds =       8.48 minutes

  //>>>>>>>>>>>>>>>>>>>>>>>>>>>>>>>>>>>//
  //               DFMP2               //
  //<<<<<<<<<<<<<<<<<<<<<<<<<<<<<<<<<<<//

   => Loading Basis Set <=

    Name: (AUG-CC-PVTZ AUX)
    Role: RIFIT
    Keyword: DF_BASIS_MP2
    atoms 1-11  entry C          line   147 file /cbio/jclab/home/chayas/anaconda/envs/py35/share/psi4/basis/aug-cc-pvtz-ri.gbs 
    atoms 12    entry N          line   205 file /cbio/jclab/home/chayas/anaconda/envs/py35/share/psi4/basis/aug-cc-pvtz-ri.gbs 
    atoms 13    entry O          line   263 file /cbio/jclab/home/chayas/anaconda/envs/py35/share/psi4/basis/aug-cc-pvtz-ri.gbs 
    atoms 14-23 entry H          line    29 file /cbio/jclab/home/chayas/anaconda/envs/py35/share/psi4/basis/aug-cc-pvtz-ri.gbs 

	 --------------------------------------------------------
	                          DF-MP2                         
	      2nd-Order Density-Fitted Moller-Plesset Theory     
	              RMP2 Wavefunction,   8 Threads             
	                                                         
	        Rob Parrish, Justin Turney, Andy Simmonett,      
	           Ed Hohenstein, and C. David Sherrill          
	 --------------------------------------------------------

   => Auxiliary Basis Set <=

  Basis Set: (AUG-CC-PVTZ AUX)
    Blend: AUG-CC-PVTZ-RI
    Number of shells: 504
    Number of basis function: 1838
    Number of Cartesian functions: 2318
    Spherical Harmonics?: true
    Max angular momentum: 4

	 --------------------------------------------------------
	                 NBF =   828, NAUX =  1838
	 --------------------------------------------------------
	   CLASS    FOCC     OCC    AOCC    AVIR     VIR    FVIR
	   PAIRS       0      45      45     783     783       0
	 --------------------------------------------------------


         ------------------------------------------------------------
                                     CPHF                           
                                  Rob Parrish                       
         ------------------------------------------------------------

  ==> Geometry <==

    Molecular point group: c1
    Full point group: C1

    Geometry (in Angstrom), charge = 1, multiplicity = 1:

       Center              X                  Y                   Z               Mass       
    ------------   -----------------  -----------------  -----------------  -----------------
           C         -1.270776977305     0.721326310190    -0.578861295303    12.000000000000
           C         -0.277776977305     0.105326310190     1.535138704697    12.000000000000
           C         -2.348776977305     1.294326310190     0.094138704697    12.000000000000
           C         -1.355776977305     0.678326310190     2.209138704697    12.000000000000
           C          1.284223022695     0.038326310190    -1.788861295303    12.000000000000
           C          1.560223022695    -1.547673689810     0.002138704697    12.000000000000
           C          2.360223022695    -0.551673689810    -2.436861295303    12.000000000000
           C          2.630223022695    -2.097673689810    -0.690861295303    12.000000000000
           C         -0.234776977305     0.126326310190     0.141138704697    12.000000000000
           C          0.884223022695    -0.467673689810    -0.556861295303    12.000000000000
           C         -2.391776977305     1.273326310190     1.488138704697    12.000000000000
           N          2.994223022695    -1.590673689810    -1.875861295303    14.003074004780
           O         -3.443776977305     1.833326310190     2.145138704697    15.994914619560
           H         -1.251776977305     0.745326310190    -1.665861295303     1.007825032070
           H          0.522223022695    -0.354673689810     2.111138704697     1.007825032070
           H         -3.152776977305     1.756326310190    -0.472861295303     1.007825032070
           H         -1.383776977305     0.659326310190     3.295138704697     1.007825032070
           H          0.775223022695     0.880326310190    -2.248861295303     1.007825032070
           H          1.269223022695    -1.963673689810     0.962138704697     1.007825032070
           H          2.741223022695    -0.224673689810    -3.394861295303     1.007825032070
           H          3.212223022695    -2.935673689810    -0.332861295303     1.007825032070
           H          3.782223022695    -2.009673689810    -2.368861295303     1.007825032070
           H         -3.456776977305     1.541326310190     3.070138704697     1.007825032070

  Nuclear repulsion =  713.246552309680737
  Reference energy  = -551.675617298725911

  ==> Basis Set <==

  Basis Set: AUG-CC-PVTZ
    Blend: AUG-CC-PVTZ
    Number of shells: 272
    Number of basis function: 828
    Number of Cartesian functions: 965
    Spherical Harmonics?: true
    Max angular momentum: 3

  ==> CGRSolver (by Rob Parrish) <==

   Number of roots    =         1
   Preconditioning    =    JACOBI
   Convergence cutoff =     1E-06
   Maximum iterations =       100

  ==> CPHFRHamiltonian (by Rob Parrish) <== 

  ==> DFJK: Density-Fitted J/K Matrices <==

    J tasked:                  Yes
    K tasked:                  Yes
    wK tasked:                  No
    OpenMP threads:              8
    Integrals threads:           8
    Memory (MB):              3576
    Algorithm:                Disk
    Integral Cache:           NONE
    Schwarz Cutoff:          1E-12
    Fitting Condition:       1E-12

   => Auxiliary Basis Set <=

  Basis Set: (AUG-CC-PVTZ AUX)
    Blend: AUG-CC-PVTZ-JKFIT
    Number of shells: 530
    Number of basis function: 1812
    Number of Cartesian functions: 2253
    Spherical Harmonics?: true
    Max angular momentum: 4

  ==> CPHF Iterations <==

  => Iterations <=

             Iter  Converged  Remaining    Residual
  CGR           1          0          1   1.120E-01
  CGR           2          0          1   5.110E-02
  CGR           3          0          1   2.971E-02
  CGR           4          0          1   9.581E-03
  CGR           5          0          1   4.476E-03
  CGR           6          0          1   2.238E-03
  CGR           7          0          1   6.949E-04
  CGR           8          0          1   2.809E-04
  CGR           9          0          1   1.339E-04
  CGR          10          0          1   4.549E-05
  CGR          11          0          1   1.460E-05
  CGR          12          0          1   5.444E-06
  CGR          13          0          1   1.700E-06
  CGR          14          1          0   5.423E-07

    CGRSolver converged.

  ==> DFCorrGrad: Density-Fitted Correlated Gradients <==

    OpenMP threads:              8
    Integrals threads:           8
    Memory (MB):              3576
    Schwarz Cutoff:          0E+00
    Fitting Condition:       1E-12

   => Auxiliary Basis Set <=

  Basis Set: (AUG-CC-PVTZ AUX)
    Blend: AUG-CC-PVTZ-JKFIT
    Number of shells: 530
    Number of basis function: 1812
    Number of Cartesian functions: 2253
    Spherical Harmonics?: true
    Max angular momentum: 4

	-----------------------------------------------------------
	 ==================> DF-MP2 Energies <==================== 
	-----------------------------------------------------------
	 Reference Energy          =    -551.6756172987259106 [Eh]
	 Singles Energy            =      -0.0000000000000001 [Eh]
	 Same-Spin Energy          =      -0.5966421656153875 [Eh]
	 Opposite-Spin Energy      =      -1.8255124679370556 [Eh]
	 Correlation Energy        =      -2.4221546335524433 [Eh]
	 Total Energy              =    -554.0977719322783059 [Eh]
	-----------------------------------------------------------
	 ================> DF-SCS-MP2 Energies <================== 
	-----------------------------------------------------------
	 SCS Same-Spin Scale       =       0.3333333333333333 [-]
	 SCS Opposite-Spin Scale   =       1.2000000000000000 [-]
	 SCS Same-Spin Energy      =      -0.1988807218717958 [Eh]
	 SCS Opposite-Spin Energy  =      -2.1906149615244668 [Eh]
	 SCS Correlation Energy    =      -2.3894956833962624 [Eh]
	 SCS Total Energy          =    -554.0651129821221730 [Eh]
	-----------------------------------------------------------


  -Total Gradient:
     Atom            X                  Y                   Z
    ------   -----------------  -----------------  -----------------
       1        0.008910655439    -0.010134959788    -0.006665536354
       2        0.011182310770    -0.000464732835    -0.009363528232
       3       -0.001239337786    -0.001201501114     0.007771498109
       4       -0.011865202978     0.006526127656     0.005839530994
       5       -0.015438368922     0.009076272897     0.013780638001
       6       -0.019364329584     0.008591650555     0.008431698325
       7        0.008568553545    -0.010297936978     0.004695019158
       8        0.005595237156     0.003269586379    -0.013973546652
       9       -0.003178524288     0.001408305957     0.001491084312
      10        0.014619733857    -0.007120830086    -0.009557692861
      11        0.003759574819     0.000937105831    -0.013998366476
      12       -0.001814636198     0.000529141177     0.001513262565
      13       -0.003128476657     0.004991889502     0.009210706807
      14        0.002016282652     0.001401595697    -0.006039196030
      15        0.003753591792    -0.004473074083     0.002743223962
      16       -0.002704165155     0.002546458065    -0.005110419194
      17        0.000044073715    -0.000992289126     0.004514008334
      18       -0.005084281457     0.004314220830    -0.002921439183
      19       -0.001585115037    -0.000706533271     0.007049376761
      20        0.001880188079    -0.000462277360    -0.002576030840
      21        0.002420353649    -0.001678113671    -0.000083375768
      22        0.005135564579    -0.002746093873    -0.003236649417
      23       -0.002483681994    -0.003314012348     0.006485733687


*** tstop() called on gpu-1-12.local at Sun Nov 12 09:42:18 2017
Module time:
	user time   =    5547.67 seconds =      92.46 minutes
	system time =     130.59 seconds =       2.18 minutes
	total time  =       2532 seconds =      42.20 minutes
Total time:
	user time   =    5547.67 seconds =      92.46 minutes
	system time =     130.59 seconds =       2.18 minutes
	total time  =       2532 seconds =      42.20 minutes

			-----------------------------------------
			 OPTKING 2.0: for geometry optimizations 
			  - R.A. King,  Bethel University        
			-----------------------------------------

	Internal coordinates to be generated automatically.
	Detected frag 1 with atoms:  1 2 3 4 5 6 7 8 9 10 11 12 13 14 15 16 17 18 19 20
	 21 22 23
	---Fragment 1 Bond Connectivity---
	 1 : 3 9 14
	 2 : 4 9 15
	 3 : 1 11 16
	 4 : 2 11 17
	 5 : 7 10 18
	 6 : 8 10 19
	 7 : 5 12 20
	 8 : 6 12 21
	 9 : 1 2 10
	 10 : 5 6 9
	 11 : 3 4 13
	 12 : 7 8 22
	 13 : 11 23
	 14 : 1
	 15 : 2
	 16 : 3
	 17 : 4
	 18 : 5
	 19 : 6
	 20 : 7
	 21 : 8
	 22 : 12
	 23 : 13

	Assuming in current code that numbering for constraints corresponds to unified fragment.
	Fixed dihedral atom list: 
	     3    11    13    23
	---Fragment 1 Geometry and Gradient---
	 C          -2.4014204631        1.3631091787       -1.0938893171
	 C          -0.5249224131        0.1990378808        2.9009917279
	 C          -4.4385452343        2.4459222528        0.1778963704
	 C          -2.5620471844        1.2818509550        4.1746671414
	 C           2.4268298064        0.0724262299       -3.3804579378
	 C           2.9483942191       -2.9246794168        0.0040415662
	 C           4.4601751254       -1.0425121885       -4.6050004720
	 C           4.9704011813       -3.9640287899       -1.3055386439
	 C          -0.4436641894        0.2387221296        0.2667134986
	 C           1.6709393533       -0.8837751933       -1.0523153421
	 C          -4.5198034580        2.4062380041        2.8121745996
	 N           5.6582614937       -3.0059376405       -3.5448641114
	 O          -6.5077953498        3.4644846385        4.0537246689
	 H          -2.3655156666        1.4084626059       -3.1480216235
	 H           0.9868584932       -0.6702361403        3.9894739804
	 H          -5.9578850452        3.3189757262       -0.8935783470
	 H          -2.6149595161        1.2459461585        6.2269097217
	 H           1.4649592048        1.6635756338       -4.2497319590
	 H           2.3984839144       -3.7108054881        1.8181786537
	 H           5.1801607821       -0.4245717430       -6.4153581073
	 H           6.0702217906       -5.5476192893       -0.6290166884
	 H           7.1473656864       -3.7977328902       -4.4764990949
	 H          -6.5323617896        2.9126846077        5.8017213418
	             0.0089106554       -0.0101349598       -0.0066655364
	             0.0111823108       -0.0004647328       -0.0093635282
	            -0.0012393378       -0.0012015011        0.0077714981
	            -0.0118652030        0.0065261277        0.0058395310
	            -0.0154383689        0.0090762729        0.0137806380
	            -0.0193643296        0.0085916506        0.0084316983
	             0.0085685535       -0.0102979370        0.0046950192
	             0.0055952372        0.0032695864       -0.0139735467
	            -0.0031785243        0.0014083060        0.0014910843
	             0.0146197339       -0.0071208301       -0.0095576929
	             0.0037595748        0.0009371058       -0.0139983665
	            -0.0018146362        0.0005291412        0.0015132626
	            -0.0031284767        0.0049918895        0.0092107068
	             0.0020162827        0.0014015957       -0.0060391960
	             0.0037535918       -0.0044730741        0.0027432240
	            -0.0027041652        0.0025464581       -0.0051104192
	             0.0000440737       -0.0009922891        0.0045140083
	            -0.0050842815        0.0043142208       -0.0029214392
	            -0.0015851150       -0.0007065333        0.0070493768
	             0.0018801881       -0.0004622774       -0.0025760308
	             0.0024203536       -0.0016781137       -0.0000833758
	             0.0051355646       -0.0027460939       -0.0032366494
	            -0.0024836820       -0.0033140123        0.0064857337

	Previous optimization step data not found.  Starting new optimization.

	---Fragment 1 Intrafragment Coordinates---
	 - Coordinate -           - BOHR/RAD -       - ANG/DEG -
	 R(1,3)           =         2.634350	       1.394038
	 R(1,9)           =         2.635962	       1.394891
	 R(1,14)          =         2.054947	       1.087431
	 R(2,4)           =         2.635263	       1.394521
	 R(2,9)           =         2.635830	       1.394821
	 R(2,15)          =         2.055702	       1.087831
	 R(3,11)          =         2.635830	       1.394821
	 R(3,16)          =         2.053941	       1.086899
	 R(4,11)          =         2.636938	       1.395407
	 R(4,17)          =         2.053239	       1.086527
	 R(5,7)           =         2.622420	       1.387725
	 R(5,10)          =         2.627915	       1.390633
	 R(5,18)          =         2.052459	       1.086115
	 R(6,8)           =         2.623692	       1.388398
	 R(6,10)          =         2.629272	       1.391351
	 R(6,19)          =         2.052191	       1.085973
	 R(7,12)          =         2.532655	       1.340223
	 R(7,20)          =         2.043924	       1.081598
	 R(8,12)          =         2.530942	       1.339317
	 R(8,21)          =         2.043293	       1.081264
	 R(9,10)          =         2.733384	       1.446444
	 R(11,13)         =         2.571662	       1.360865
	 R(12,22)         =         1.926737	       1.019585
	 R(13,23)         =         1.833188	       0.970081
	 B(1,3,11)        =         2.094553	     120.009056
	 B(1,3,16)        =         2.088505	     119.662516
	 B(1,9,2)         =         2.093692	     119.959722
	 B(1,9,10)        =         2.095161	     120.043881
	 B(2,4,11)        =         2.093699	     119.960108
	 B(2,4,17)        =         2.089577	     119.723926
	 B(2,9,10)        =         2.094332	     119.996376
	 B(3,1,9)         =         2.094940	     120.031219
	 B(3,1,14)        =         2.079469	     119.144799
	 B(3,11,4)        =         2.094306	     119.994870
	 B(3,11,13)       =         2.094549	     120.008801
	 B(4,2,9)         =         2.095181	     120.045019
	 B(4,2,15)        =         2.078675	     119.099297
	 B(4,11,13)       =         2.094331	     119.996326
	 B(5,7,12)        =         2.095473	     120.061759
	 B(5,7,20)        =         2.162990	     123.930212
	 B(5,10,6)        =         2.092808	     119.909049
	 B(5,10,9)        =         2.095104	     120.040644
	 B(6,8,12)        =         2.095689	     120.074121
	 B(6,8,21)        =         2.161055	     123.819347
	 B(6,10,9)        =         2.095271	     120.050189
	 B(7,5,10)        =         2.073747	     118.816947
	 B(7,5,18)        =         2.088865	     119.683141
	 B(7,12,8)        =         2.135611	     122.361511
	 B(7,12,22)       =         2.073499	     118.802740
	 B(8,6,10)        =         2.073041	     118.776513
	 B(8,6,19)        =         2.089782	     119.735704
	 B(8,12,22)       =         2.074075	     118.835741
	 B(9,1,14)        =         2.108776	     120.823969
	 B(9,2,15)        =         2.109330	     120.855683
	 B(10,5,18)       =         2.120573	     121.499869
	 B(10,6,19)       =         2.120361	     121.487761
	 B(11,3,16)       =         2.100127	     120.328425
	 B(11,4,17)       =         2.099910	     120.315955
	 B(11,13,23)      =         1.924996	     110.294170
	 B(12,7,20)       =         2.024722	     116.007998
	 B(12,8,21)       =         2.026441	     116.106509
	 D(1,3,11,4)      =        -0.000325	      -0.018609
	 D(1,3,11,13)     =         3.140978	     179.964785
	 D(1,9,2,4)       =         0.000325	       0.018608
	 D(1,9,2,15)      =        -3.141497	    -179.994534
	 D(1,9,10,5)      =         0.522161	      29.917626
	 D(1,9,10,6)      =        -2.617252	    -149.957477
	 D(2,4,11,3)      =         0.000301	       0.017261
	 D(2,4,11,13)     =        -3.141002	    -179.966135
	 D(2,9,1,3)       =        -0.000348	      -0.019945
	 D(2,9,1,14)      =        -3.141221	    -179.978731
	 D(2,9,10,5)      =        -2.618515	    -150.029870
	 D(2,9,10,6)      =         0.525257	      30.095026
	 D(3,1,9,10)      =        -3.141025	    -179.967461
	 D(3,11,4,17)     =         3.141223	     179.978848
	 D(3,11,13,23)    =         2.879443	     164.979914
	 D(4,2,9,10)      =         3.141002	     179.966149
	 D(4,11,3,16)     =         3.141593	     180.000000
	 D(4,11,13,23)    =        -0.262440	     -15.036692
	 D(5,7,12,8)      =        -0.000900	      -0.051587
	 D(5,7,12,22)     =         3.141281	     179.982140
	 D(5,10,6,8)      =         0.001757	       0.100696
	 D(5,10,6,19)     =        -3.140779	    -179.953357
	 D(6,8,12,7)      =         0.001479	       0.084766
	 D(6,8,12,22)     =        -3.140702	    -179.948971
	 D(6,10,5,7)      =        -0.001201	      -0.068795
	 D(6,10,5,18)     =        -3.141485	    -179.993816
	 D(7,5,10,9)      =        -3.140617	    -179.944076
	 D(7,12,8,21)     =        -3.141052	    -179.969035
	 D(8,6,10,9)      =         3.141173	     179.975965
	 D(8,12,7,20)     =         3.139609	     179.886353
	 D(9,1,3,11)      =         0.000348	       0.019955
	 D(9,1,3,16)      =        -3.141571	    -179.998735
	 D(9,2,4,11)      =        -0.000301	      -0.017270
	 D(9,2,4,17)      =        -3.141228	    -179.979086
	 D(9,10,5,18)     =         0.002285	       0.130903
	 D(9,10,6,19)     =        -0.001363	      -0.078088
	 D(10,5,7,12)     =         0.000747	       0.042772
	 D(10,5,7,20)     =        -3.139673	    -179.890006
	 D(10,6,8,12)     =        -0.001882	      -0.107847
	 D(10,6,8,21)     =         3.140725	     179.950304
	 D(10,9,1,14)     =         0.001287	       0.073752
	 D(10,9,2,15)     =        -0.000820	      -0.046992
	 D(11,3,1,14)     =         3.141234	     179.979432
	 D(11,4,2,15)     =         3.141517	     179.995641
	 D(12,7,5,18)     =         3.141055	     179.969186
	 D(12,8,6,19)     =         3.140637	     179.945236
	 D(13,11,3,16)    =        -0.000286	      -0.016400
	 D(13,11,4,17)    =        -0.000079	      -0.004548
	 D(14,1,3,16)     =        -0.000685	      -0.039257
	 D(15,2,4,17)     =         0.000590	       0.033826
	 D(18,5,7,20)     =         0.000635	       0.036408
	 D(19,6,8,21)     =         0.000059	       0.003387
	 D(20,7,12,22)    =        -0.001395	      -0.079920
	 D(21,8,12,22)    =        -0.000048	      -0.002772

	Current energy   :      -554.0977719323

	Generating empirical Hessian (Schlegel '84) for each fragment.
	Adding user-defined constraint: Fragment 1; Coordinate 76:
		Value =     2.879443; Fixed value    =     2.879793
		Force =     0.000175; Force constant =     0.500000
	Removing off-diagonal coupling between coordinate 76 and others.
	Taking RFO optimization step.
	Going to follow RFO solution 1.
	Using RFO vector 1.

	Determining step-restricting scale parameter for RS-RFO.
	Maximum step size allowed    0.10000

	 Iter      |step|        alpha        rfo_root  
	------------------------------------------------
	    0     0.22173       1.00000           1
	    1     0.16360       4.35168           1
	    2     0.13030      11.75314           1
	    3     0.11002      23.48414           1
	    4     0.10150      31.73201           1
	    5     0.10004      33.43230           1
	    6     0.10000      33.48151           1
	------------------------------------------------
	Norm of target step-size    0.10000
	Projected energy change by RFO approximation:        -0.0046281044

	Back-transformation to cartesian coordinates...
	Could not converge backtransformation.
	Using first guess instead.

	--- Internal Coordinate Step in ANG or DEG, aJ/ANG or AJ/DEG ---
	 ---------------------------------------------------------------------------
	   Coordinate                Previous        Force       Change         New 
	   ----------                --------       ------       ------       ------
	    1 R(1,3)          =      1.394038    -0.100914    -0.010491     1.383547
	    2 R(1,9)          =      1.394891     0.021744     0.002440     1.397331
	    3 R(1,14)         =      1.087431    -0.050281    -0.006336     1.081095
	    4 R(2,4)          =      1.394521    -0.101988    -0.010521     1.384000
	    5 R(2,9)          =      1.394821     0.012461     0.001473     1.396294
	    6 R(2,15)         =      1.087831    -0.050292    -0.006370     1.081461
	    7 R(3,11)         =      1.394821    -0.056460    -0.006014     1.388807
	    8 R(3,16)         =      1.086899    -0.047362    -0.005960     1.080939
	    9 R(4,11)         =      1.395407    -0.009093    -0.001057     1.394350
	   10 R(4,17)         =      1.086527    -0.037305    -0.004716     1.081811
	   11 R(5,7)          =      1.387725    -0.115033    -0.011652     1.376072
	   12 R(5,10)         =      1.390633     0.071715     0.007513     1.398146
	   13 R(5,18)         =      1.086115    -0.057379    -0.007233     1.078882
	   14 R(6,8)          =      1.388398    -0.118697    -0.012103     1.376295
	   15 R(6,10)         =      1.391351     0.066404     0.007088     1.398439
	   16 R(6,19)         =      1.085973    -0.057070    -0.007146     1.078826
	   17 R(7,12)         =      1.340223     0.020203     0.001728     1.341951
	   18 R(7,20)         =      1.081598    -0.023103    -0.002853     1.078745
	   19 R(8,12)         =      1.339317     0.025909     0.002243     1.341560
	   20 R(8,21)         =      1.081264    -0.021221    -0.002646     1.078618
	   21 R(9,10)         =      1.446444     0.054074     0.006421     1.452865
	   22 R(11,13)        =      1.360865    -0.103864    -0.009162     1.351703
	   23 R(12,22)        =      1.019585    -0.054891    -0.005888     1.013697
	   24 R(13,23)        =      0.970081    -0.059443    -0.005312     0.964769
	   25 B(1,3,11)       =    120.009056    -0.000050    -0.151722   119.857334
	   26 B(1,3,16)       =    119.662516     0.000221     0.546983   120.209499
	   27 B(1,9,2)        =    119.959722    -0.000468    -0.833897   119.125824
	   28 B(1,9,10)       =    120.043881     0.000228     0.405151   120.449032
	   29 B(2,4,11)       =    119.960108     0.000063     0.103953   120.064061
	   30 B(2,4,17)       =    119.723926     0.000014     0.057254   119.781180
	   31 B(2,9,10)       =    119.996376     0.000241     0.428750   120.425126
	   32 B(3,1,9)        =    120.031219     0.000302     0.609289   120.640509
	   33 B(3,1,14)       =    119.144799    -0.000234    -0.508004   118.636796
	   34 B(3,11,4)       =    119.994870     0.000037     0.011322   120.006192
	   35 B(3,11,13)      =    120.008801    -0.000995    -1.837302   118.171499
	   36 B(4,2,9)        =    120.045019     0.000116     0.260268   120.305287
	   37 B(4,2,15)       =    119.099297    -0.000098    -0.228590   118.870707
	   38 B(4,11,13)      =    119.996326     0.000959     1.825947   121.822273
	   39 B(5,7,12)       =    120.061759    -0.000223    -0.484904   119.576855
	   40 B(5,7,20)       =    123.930212    -0.000010    -0.047479   123.882733
	   41 B(5,10,6)       =    119.909049    -0.000838    -1.547256   118.361793
	   42 B(5,10,9)       =    120.040644     0.000402     0.742507   120.783151
	   43 B(6,8,12)       =    120.074121    -0.000219    -0.478391   119.595729
	   44 B(6,8,21)       =    123.819347     0.000003    -0.015538   123.803808
	   45 B(6,10,9)       =    120.050189     0.000436     0.804775   120.854964
	   46 B(7,5,10)       =    118.816947     0.000526     1.054761   119.871708
	   47 B(7,5,18)       =    119.683141    -0.000350    -0.740395   118.942746
	   48 B(7,12,8)       =    122.361511     0.000217     0.388027   122.749538
	   49 B(7,12,22)      =    118.802740    -0.000108    -0.193776   118.608964
	   50 B(8,6,10)       =    118.776513     0.000537     1.067777   119.844290
	   51 B(8,6,19)       =    119.735704    -0.000361    -0.762731   118.972973
	   52 B(8,12,22)      =    118.835741    -0.000109    -0.194247   118.641494
	   53 B(9,1,14)       =    120.823969    -0.000068    -0.103384   120.720585
	   54 B(9,2,15)       =    120.855683    -0.000018    -0.033612   120.822070
	   55 B(10,5,18)      =    121.499869    -0.000177    -0.315253   121.184617
	   56 B(10,6,19)      =    121.487761    -0.000176    -0.305484   121.182277
	   57 B(11,3,16)      =    120.328425    -0.000170    -0.395258   119.933167
	   58 B(11,4,17)      =    120.315955    -0.000077    -0.161285   120.154670
	   59 B(11,13,23)     =    110.294170    -0.000176    -0.428260   109.865910
	   60 B(12,7,20)      =    116.007998     0.000232     0.532101   116.540099
	   61 B(12,8,21)      =    116.106509     0.000216     0.493660   116.600169
	   62 D(1,3,11,4)     =     -0.018609    -0.000007    -0.161293    -0.179902
	   63 D(1,3,11,13)    =    179.964785    -0.000013    -0.211609   179.753177
	   64 D(1,9,2,4)      =      0.018608    -0.000008    -0.153454    -0.134846
	   65 D(1,9,2,15)     =   -179.994534     0.000020     0.371613  -179.622921
	   66 D(1,9,10,5)     =     29.917626     0.000006     0.133811    30.051437
	   67 D(1,9,10,6)     =   -149.957477     0.000006     0.121105  -149.836372
	   68 D(2,4,11,3)     =      0.017261    -0.000007    -0.098450    -0.081189
	   69 D(2,4,11,13)    =   -179.966135    -0.000001    -0.045624  -180.011759
	   70 D(2,9,1,3)      =     -0.019945    -0.000006    -0.107944    -0.127889
	   71 D(2,9,1,14)     =   -179.978731     0.000020     0.386634  -179.592098
	   72 D(2,9,10,5)     =   -150.029870     0.000007     0.130140  -149.899730
	   73 D(2,9,10,6)     =     30.095026     0.000006     0.117435    30.212461
	   74 D(3,1,9,10)     =   -179.967461    -0.000006    -0.112225  -180.079686
	   75 D(3,11,4,17)    =    179.978848    -0.000010    -0.168442   179.810406
	   76 D(3,11,13,23)   =    164.979914     0.000019     0.141183   165.121097
	   77 D(4,2,9,10)     =    179.966149    -0.000008    -0.149187   179.816962
	   78 D(4,11,3,16)    =    180.000000    -0.000008    -0.174164   179.825836
	   79 D(4,11,13,23)   =    -15.036692     0.000013     0.089585   -14.947107
	   80 D(5,7,12,8)     =     -0.051587     0.000001     0.019466    -0.032121
	   81 D(5,7,12,22)    =    179.982140     0.000001     0.010629   179.992769
	   82 D(5,10,6,8)     =      0.100696    -0.000000    -0.008203     0.092492
	   83 D(5,10,6,19)    =   -179.953357     0.000016     0.295153  -179.658204
	   84 D(6,8,12,7)     =      0.084766    -0.000000    -0.003109     0.081657
	   85 D(6,8,12,22)    =   -179.948971     0.000000     0.005730  -179.943241
	   86 D(6,10,5,7)     =     -0.068795     0.000001     0.024988    -0.043806
	   87 D(6,10,5,18)    =   -179.993816     0.000016     0.304329  -179.689487
	   88 D(7,5,10,9)     =   -179.944076     0.000000     0.009719  -179.934356
	   89 D(7,12,8,21)    =   -179.969035    -0.000007    -0.138878  -180.107913
	   90 D(8,6,10,9)     =    179.975965     0.000000     0.006995   179.982960
	   91 D(8,12,7,20)    =    179.886353    -0.000006    -0.114093   179.772260
	   92 D(9,1,3,11)     =      0.019955     0.000013     0.264959     0.284913
	   93 D(9,1,3,16)     =   -179.998735     0.000014     0.277893  -179.720841
	   94 D(9,2,4,11)     =     -0.017270     0.000014     0.256101     0.238831
	   95 D(9,2,4,17)     =   -179.979086     0.000018     0.325915  -179.653170
	   96 D(9,10,5,18)    =      0.130903     0.000015     0.289060     0.419963
	   97 D(9,10,6,19)    =     -0.078088     0.000016     0.310352     0.232264
	   98 D(10,5,7,12)    =      0.042772    -0.000001    -0.029619     0.013154
	   99 D(10,5,7,20)    =   -179.890006     0.000006     0.113963  -179.776043
	  100 D(10,6,8,12)    =     -0.107847    -0.000000    -0.003352    -0.111199
	  101 D(10,6,8,21)    =    179.950304     0.000007     0.142485   180.092789
	  102 D(10,9,1,14)    =      0.073752     0.000020     0.382353     0.456106
	  103 D(10,9,2,15)    =     -0.046992     0.000020     0.375880     0.328888
	  104 D(11,3,1,14)    =    179.979432    -0.000012    -0.219318   179.760115
	  105 D(11,4,2,15)    =    179.995641    -0.000013    -0.258827   179.736814
	  106 D(12,7,5,18)    =    179.969186    -0.000016    -0.302416   179.666771
	  107 D(12,8,6,19)    =    179.945236    -0.000016    -0.300232   179.645004
	  108 D(13,11,3,16)   =     -0.016400    -0.000014    -0.224685    -0.241085
	  109 D(13,11,4,17)   =     -0.004548    -0.000004    -0.115616    -0.120164
	  110 D(14,1,3,16)    =     -0.039257    -0.000011    -0.206383    -0.245640
	  111 D(15,2,4,17)    =      0.033826    -0.000010    -0.189013    -0.155188
	  112 D(18,5,7,20)    =      0.036408    -0.000008    -0.158834    -0.122426
	  113 D(19,6,8,21)    =      0.003387    -0.000008    -0.154395    -0.151008
	  114 D(20,7,12,22)   =     -0.079920    -0.000006    -0.122930    -0.202850
	  115 D(21,8,12,22)   =     -0.002772    -0.000007    -0.130038    -0.132810
	 ---------------------------------------------------------------------------
	Successfully symmetrized geometry.
	 Forces used to impose fixed constraints are not included.
	  Forces zeroed: 76 

  ==> Convergence Check <==

  Measures of convergence in internal coordinates in au.
  Criteria marked as inactive (o), active & met (*), and active & unmet ( ).
  --------------------------------------------------------------------------------------------- ~
   Step     Total Energy     Delta E     MAX Force     RMS Force      MAX Disp      RMS Disp    ~
  --------------------------------------------------------------------------------------------- ~
    Convergence Criteria    1.00e-06 *    3.00e-04 *             o    1.20e-03 *             o  ~
  --------------------------------------------------------------------------------------------- ~
      1    -554.09777193   -5.54e+02      1.44e-02      4.47e-03 o    3.21e-02      9.31e-03 o  ~
  ---------------------------------------------------------------------------------------------

	Writing optimization data to binary file.
	Structure for next step:
	Cartesian Geometry (in Angstrom)
	    C    -1.2812688629   0.7248218582  -0.5582759887
	    C    -0.2855749487   0.1086608507   1.5465775239
	    C    -2.3527935073   1.2916911618   0.1085786574
	    C    -1.3540973007   0.6800625269   2.2153200599
	    C     1.2992234505   0.0300571729  -1.7919375437
	    C     1.5770379839  -1.5572252684  -0.0110936237
	    C     2.3638181462  -0.5492532427  -2.4435606727
	    C     2.6370923342  -2.1054743442  -0.6965838975
	    C    -0.2368967289   0.1261529472   0.1512422742
	    C     0.8854771012  -0.4694002565  -0.5533216996
	    C    -2.3916494206   1.2727699872   1.4967129177
	    N     2.9964148050  -1.5912714532  -1.8824446503
	    O    -3.4519824115   1.8408265186   2.1132403620
	    H    -1.2731259848   0.7471204875  -1.6391099922
	    H     0.5106852771  -0.3419324013   2.1232004191
	    H    -3.1591384658   1.7489953319  -0.4473971272
	    H    -1.3804138561   0.6666786872   3.2967278044
	    H     0.8015304949   0.8706757219  -2.2498105012
	    H     1.2930514213  -1.9822952299   0.9389240859
	    H     2.7389483074  -0.2147578819  -3.3980661260
	    H     3.2133199243  -2.9443892371  -0.3393715680
	    H     3.7787136579  -2.0068385683  -2.3752871789
	    H    -3.4812418948   1.5638297659   3.0369266732
			--------------------------
			 OPTKING Finished Execution 
			--------------------------

    Structure for next step:
    Molecular point group: c1
    Full point group: C1

    Geometry (in Angstrom), charge = 1, multiplicity = 1:

    C           -1.282055772734     0.725473857830    -0.557947519004
    C           -0.286361858527     0.109312850307     1.546905993569
    C           -2.353580417194     1.292343161410     0.108907127113
    C           -1.354884210533     0.680714526551     2.215648529576
    C            1.298436540685     0.030709172474    -1.791609073978
    C            1.576251074037    -1.556573268815    -0.010765153968
    C            2.363031236347    -0.548601243124    -2.443232202990
    C            2.636305424313    -2.104822344628    -0.696255427779
    C           -0.237683638733     0.126804946784     0.151570743920
    C            0.884690191319    -0.468748256909    -0.552993229900
    C           -2.392436330417     1.273421986824     1.497041387432
    N            2.995627895102    -1.590619453559    -1.882116180612
    O           -3.452769321387     1.841478518259     2.113568831753
    H           -1.273912894624     0.747772487084    -1.638781522474
    H            0.509898367220    -0.341280401662     2.123528888821
    H           -3.159925375631     1.749647331509    -0.447068657501
    H           -1.381200765933     0.667330686859     3.297056274143
    H            0.800743585038     0.871327721519    -2.249482031487
    H            1.292264511412    -1.981643230262     0.939252555602
    H            2.738161397521    -0.214105882264    -3.397737656252
    H            3.212533014421    -2.943737237478    -0.339043098328
    H            3.777926748086    -2.006186568691    -2.374958709182
    H           -3.482028804649     1.564481765558     3.037255142909

gradient() will perform analytic gradient computation.

*** tstart() called on gpu-1-12.local
*** at Sun Nov 12 09:42:19 2017

    SCF Algorithm Type (re)set to DF.

*** tstart() called on gpu-1-12.local
*** at Sun Nov 12 09:42:19 2017

   => Loading Basis Set <=

    Name: AUG-CC-PVTZ
    Role: ORBITAL
    Keyword: BASIS
    atoms 1-11  entry C          line   221 file /cbio/jclab/home/chayas/anaconda/envs/py35/share/psi4/basis/aug-cc-pvtz.gbs 
    atoms 12    entry N          line   267 file /cbio/jclab/home/chayas/anaconda/envs/py35/share/psi4/basis/aug-cc-pvtz.gbs 
    atoms 13    entry O          line   313 file /cbio/jclab/home/chayas/anaconda/envs/py35/share/psi4/basis/aug-cc-pvtz.gbs 
    atoms 14-23 entry H          line    34 file /cbio/jclab/home/chayas/anaconda/envs/py35/share/psi4/basis/aug-cc-pvtz.gbs 


         ---------------------------------------------------------
                                   SCF
            by Justin Turney, Rob Parrish, and Andy Simmonett
                              RHF Reference
                        8 Threads,   4768 MiB Core
         ---------------------------------------------------------

  ==> Geometry <==

    Molecular point group: c1
    Full point group: C1

    Geometry (in Angstrom), charge = 1, multiplicity = 1:

       Center              X                  Y                   Z               Mass       
    ------------   -----------------  -----------------  -----------------  -----------------
           C         -1.282055772734     0.725473857830    -0.557947519004    12.000000000000
           C         -0.286361858527     0.109312850307     1.546905993569    12.000000000000
           C         -2.353580417194     1.292343161410     0.108907127113    12.000000000000
           C         -1.354884210533     0.680714526551     2.215648529576    12.000000000000
           C          1.298436540685     0.030709172474    -1.791609073978    12.000000000000
           C          1.576251074037    -1.556573268815    -0.010765153968    12.000000000000
           C          2.363031236347    -0.548601243124    -2.443232202990    12.000000000000
           C          2.636305424313    -2.104822344628    -0.696255427779    12.000000000000
           C         -0.237683638733     0.126804946784     0.151570743920    12.000000000000
           C          0.884690191319    -0.468748256909    -0.552993229900    12.000000000000
           C         -2.392436330417     1.273421986824     1.497041387432    12.000000000000
           N          2.995627895102    -1.590619453559    -1.882116180612    14.003074004780
           O         -3.452769321387     1.841478518259     2.113568831753    15.994914619560
           H         -1.273912894624     0.747772487084    -1.638781522474     1.007825032070
           H          0.509898367220    -0.341280401662     2.123528888821     1.007825032070
           H         -3.159925375631     1.749647331509    -0.447068657501     1.007825032070
           H         -1.381200765933     0.667330686859     3.297056274143     1.007825032070
           H          0.800743585038     0.871327721519    -2.249482031487     1.007825032070
           H          1.292264511412    -1.981643230262     0.939252555602     1.007825032070
           H          2.738161397521    -0.214105882264    -3.397737656252     1.007825032070
           H          3.212533014421    -2.943737237478    -0.339043098328     1.007825032070
           H          3.777926748086    -2.006186568691    -2.374958709182     1.007825032070
           H         -3.482028804649     1.564481765558     3.037255142909     1.007825032070

  Running in c1 symmetry.

  Rotational constants: A =      0.09642  B =      0.01330  C =      0.01189 [cm^-1]
  Rotational constants: A =   2890.48411  B =    398.83119  C =    356.32326 [MHz]
  Nuclear repulsion =  713.437985331248910

  Charge       = 1
  Multiplicity = 1
  Electrons    = 90
  Nalpha       = 45
  Nbeta        = 45

  ==> Algorithm <==

  SCF Algorithm Type is DF.
  DIIS enabled.
  MOM disabled.
  Fractional occupation disabled.
  Guess Type is READ.
  Energy threshold   = 1.00e-10
  Density threshold  = 1.00e-10
  Integral threshold = 0.00e+00

  ==> Primary Basis <==

  Basis Set: AUG-CC-PVTZ
    Blend: AUG-CC-PVTZ
    Number of shells: 272
    Number of basis function: 828
    Number of Cartesian functions: 965
    Spherical Harmonics?: true
    Max angular momentum: 3

   => Loading Basis Set <=

    Name: (AUG-CC-PVTZ AUX)
    Role: JKFIT
    Keyword: DF_BASIS_SCF
    atoms 1-11  entry C          line   161 file /cbio/jclab/home/chayas/anaconda/envs/py35/share/psi4/basis/aug-cc-pvtz-jkfit.gbs 
    atoms 12    entry N          line   223 file /cbio/jclab/home/chayas/anaconda/envs/py35/share/psi4/basis/aug-cc-pvtz-jkfit.gbs 
    atoms 13    entry O          line   285 file /cbio/jclab/home/chayas/anaconda/envs/py35/share/psi4/basis/aug-cc-pvtz-jkfit.gbs 
    atoms 14-23 entry H          line    69 file /cbio/jclab/home/chayas/anaconda/envs/py35/share/psi4/basis/aug-cc-pvtz-jkfit.gbs 

  Reading orbitals from file 180, no projection.

  ==> Pre-Iterations <==

   -------------------------------------------------------
    Irrep   Nso     Nmo     Nalpha   Nbeta   Ndocc  Nsocc
   -------------------------------------------------------
     A        828     828       0       0       0       0
   -------------------------------------------------------
    Total     828     828      45      45      45       0
   -------------------------------------------------------

  ==> Integral Setup <==

  ==> DFJK: Density-Fitted J/K Matrices <==

    J tasked:                  Yes
    K tasked:                  Yes
    wK tasked:                  No
    OpenMP threads:              8
    Integrals threads:           8
    Memory (MB):              3576
    Algorithm:                Disk
    Integral Cache:           NONE
    Schwarz Cutoff:          1E-12
    Fitting Condition:       1E-12

   => Auxiliary Basis Set <=

  Basis Set: (AUG-CC-PVTZ AUX)
    Blend: AUG-CC-PVTZ-JKFIT
    Number of shells: 530
    Number of basis function: 1812
    Number of Cartesian functions: 2253
    Spherical Harmonics?: true
    Max angular momentum: 4

  Minimum eigenvalue in the overlap matrix is 5.4339936564E-07.
  Using Symmetric Orthogonalization.

  SCF Guess: Orbitals guess was supplied from a previous computation.

  ==> Iterations <==

                           Total Energy        Delta E     RMS |[F,P]|

   @DF-RHF iter   0:  -551.79331555260001   -5.51793e+02   3.56831e-04 
   @DF-RHF iter   1:  -551.68042569703334    1.12890e-01   1.00396e-04 
   @DF-RHF iter   2:  -551.68082685600166   -4.01159e-04   7.39907e-05 DIIS
   @DF-RHF iter   3:  -551.68111920945341   -2.92353e-04   9.09218e-06 DIIS
   @DF-RHF iter   4:  -551.68112789955580   -8.69010e-06   3.33292e-06 DIIS
   @DF-RHF iter   5:  -551.68113006546798   -2.16591e-06   9.60633e-07 DIIS
   @DF-RHF iter   6:  -551.68113048390387   -4.18436e-07   6.99563e-07 DIIS
   @DF-RHF iter   7:  -551.68113064406634   -1.60162e-07   3.80531e-07 DIIS
   @DF-RHF iter   8:  -551.68113069543267   -5.13663e-08   1.18625e-07 DIIS
   @DF-RHF iter   9:  -551.68113070095035   -5.51768e-09   4.70663e-08 DIIS
   @DF-RHF iter  10:  -551.68113070128811   -3.37764e-10   2.01165e-08 DIIS
   @DF-RHF iter  11:  -551.68113070133563   -4.75211e-11   5.10075e-09 DIIS
   @DF-RHF iter  12:  -551.68113070134496   -9.32232e-12   1.89790e-09 DIIS
   @DF-RHF iter  13:  -551.68113070132858    1.63709e-11   9.67718e-10 DIIS
   @DF-RHF iter  14:  -551.68113070134279   -1.42109e-11   4.12460e-10 DIIS
   @DF-RHF iter  15:  -551.68113070135166   -8.86757e-12   2.04193e-10 DIIS
   @DF-RHF iter  16:  -551.68113070133472    1.69393e-11   7.14865e-11 DIIS

  ==> Post-Iterations <==

    Orbital Energies (a.u.)
    -----------------------

    Doubly Occupied:                                                      

       1A    -20.704533     2A    -15.829650     3A    -11.481203  
       4A    -11.481070     5A    -11.449022     6A    -11.433088  
       7A    -11.411390     8A    -11.411056     9A    -11.379279  
      10A    -11.376808    11A    -11.372801    12A    -11.355816  
      13A    -11.350004    14A     -1.524994    15A     -1.508735  
      16A     -1.318579    17A     -1.266200    18A     -1.238424  
      19A     -1.156090    20A     -1.154376    21A     -1.065085  
      22A     -1.056307    23A     -0.977836    24A     -0.962245  
      25A     -0.952138    26A     -0.871656    27A     -0.860951  
      28A     -0.854690    29A     -0.821001    30A     -0.800339  
      31A     -0.782923    32A     -0.772642    33A     -0.757807  
      34A     -0.733938    35A     -0.722750    36A     -0.710162  
      37A     -0.705392    38A     -0.680853    39A     -0.657623  
      40A     -0.639286    41A     -0.617911    42A     -0.570132  
      43A     -0.539131    44A     -0.472420    45A     -0.437803  

    Virtual:                                                              

      46A     -0.106163    47A     -0.083642    48A     -0.062639  
      49A     -0.060421    50A     -0.058650    51A     -0.049054  
      52A     -0.043811    53A     -0.039174    54A     -0.034205  
      55A     -0.028201    56A     -0.025649    57A     -0.024083  
      58A     -0.016596    59A     -0.008654    60A     -0.006414  
      61A     -0.001585    62A      0.003285    63A      0.006365  
      64A      0.009383    65A      0.015627    66A      0.016745  
      67A      0.020060    68A      0.024706    69A      0.025035  
      70A      0.028765    71A      0.032283    72A      0.037032  
      73A      0.038359    74A      0.040895    75A      0.045091  
      76A      0.049005    77A      0.056882    78A      0.058387  
      79A      0.059496    80A      0.065659    81A      0.068360  
      82A      0.072538    83A      0.074123    84A      0.078657  
      85A      0.084182    86A      0.086630    87A      0.088382  
      88A      0.095569    89A      0.098569    90A      0.108369  
      91A      0.110400    92A      0.114661    93A      0.121436  
      94A      0.122867    95A      0.125542    96A      0.128509  
      97A      0.133366    98A      0.137330    99A      0.140262  
     100A      0.144760   101A      0.151603   102A      0.157107  
     103A      0.160358   104A      0.163429   105A      0.166977  
     106A      0.168750   107A      0.171931   108A      0.173167  
     109A      0.180652   110A      0.182837   111A      0.187988  
     112A      0.189743   113A      0.192925   114A      0.197452  
     115A      0.203824   116A      0.206786   117A      0.211302  
     118A      0.213325   119A      0.215827   120A      0.220248  
     121A      0.223784   122A      0.227574   123A      0.230823  
     124A      0.233289   125A      0.234546   126A      0.240428  
     127A      0.243144   128A      0.249554   129A      0.251566  
     130A      0.258222   131A      0.259121   132A      0.275195  
     133A      0.276519   134A      0.280511   135A      0.282312  
     136A      0.284211   137A      0.287587   138A      0.294090  
     139A      0.300960   140A      0.308791   141A      0.311358  
     142A      0.313100   143A      0.313842   144A      0.320320  
     145A      0.323964   146A      0.326014   147A      0.329694  
     148A      0.334248   149A      0.335684   150A      0.339846  
     151A      0.342826   152A      0.346929   153A      0.349393  
     154A      0.350968   155A      0.357529   156A      0.360796  
     157A      0.366001   158A      0.368743   159A      0.372674  
     160A      0.374307   161A      0.376072   162A      0.379619  
     163A      0.383111   164A      0.387789   165A      0.391342  
     166A      0.392711   167A      0.398944   168A      0.400688  
     169A      0.404277   170A      0.407826   171A      0.412711  
     172A      0.414828   173A      0.416407   174A      0.421299  
     175A      0.423288   176A      0.430491   177A      0.431729  
     178A      0.438426   179A      0.440228   180A      0.442776  
     181A      0.444158   182A      0.451572   183A      0.457447  
     184A      0.462530   185A      0.471854   186A      0.477894  
     187A      0.480955   188A      0.487966   189A      0.493759  
     190A      0.500880   191A      0.505984   192A      0.511916  
     193A      0.517494   194A      0.526548   195A      0.529745  
     196A      0.536842   197A      0.541048   198A      0.547886  
     199A      0.554078   200A      0.565752   201A      0.570133  
     202A      0.573690   203A      0.578357   204A      0.580857  
     205A      0.586229   206A      0.589154   207A      0.591552  
     208A      0.601672   209A      0.607021   210A      0.612984  
     211A      0.618306   212A      0.624223   213A      0.625965  
     214A      0.631949   215A      0.637478   216A      0.643289  
     217A      0.649970   218A      0.651747   219A      0.652383  
     220A      0.668256   221A      0.673608   222A      0.677670  
     223A      0.691196   224A      0.693747   225A      0.697105  
     226A      0.704496   227A      0.708795   228A      0.711151  
     229A      0.714254   230A      0.719166   231A      0.726390  
     232A      0.731658   233A      0.734986   234A      0.737862  
     235A      0.742755   236A      0.752875   237A      0.758281  
     238A      0.761572   239A      0.768796   240A      0.771052  
     241A      0.775585   242A      0.781387   243A      0.782710  
     244A      0.785950   245A      0.787607   246A      0.793422  
     247A      0.800546   248A      0.804379   249A      0.806893  
     250A      0.812507   251A      0.817485   252A      0.818455  
[...]
	 B(5,7,12)        =         2.085842	     119.509966
	 B(5,7,20)        =         2.156666	     123.567833
	 B(5,10,6)        =         2.036684	     116.693399
	 B(5,10,9)        =         2.121856	     121.573398
	 B(6,8,12)        =         2.085875	     119.511819
	 B(6,8,21)        =         2.156738	     123.571989
	 B(6,10,9)        =         2.124645	     121.733202
	 B(7,5,10)        =         2.111202	     120.962975
	 B(7,5,18)        =         2.063022	     118.202457
	 B(7,12,8)        =         2.135542	     122.357546
	 B(7,12,22)       =         2.073803	     118.820164
	 B(8,6,10)        =         2.111222	     120.964097
	 B(8,6,19)        =         2.062709	     118.184548
	 B(8,12,22)       =         2.073840	     118.822290
	 B(9,1,14)        =         2.102209	     120.447685
	 B(9,2,15)        =         2.103285	     120.509332
	 B(10,5,18)       =         2.108510	     120.808697
	 B(10,6,19)       =         2.108795	     120.825039
	 B(11,3,16)       =         2.072682	     118.755922
	 B(11,4,17)       =         2.094482	     120.004987
	 B(11,13,23)      =         1.931130	     110.645608
	 B(12,7,20)       =         2.040612	     116.918464
	 B(12,8,21)       =         2.040504	     116.912262
	 D(1,3,11,4)      =        -0.019281	      -1.104695
	 D(1,3,11,13)     =         3.124269	     179.007419
	 D(1,9,2,4)       =        -0.014602	      -0.836632
	 D(1,9,2,15)      =        -3.098772	    -177.546531
	 D(1,9,10,5)      =         0.449283	      25.741996
	 D(1,9,10,6)      =        -2.692070	    -154.244221
	 D(2,4,11,3)      =        -0.000932	      -0.053377
	 D(2,4,11,13)     =         3.138572	     179.826910
	 D(2,9,1,3)       =        -0.005820	      -0.333462
	 D(2,9,1,14)      =        -3.089562	    -177.018886
	 D(2,9,10,5)      =        -2.692833	    -154.287972
	 D(2,9,10,6)      =         0.449000	      25.725811
	 D(3,1,9,10)      =         3.135261	     179.637219
	 D(3,11,4,17)     =         3.127638	     179.200449
	 D(3,11,13,23)    =         2.883615	     165.218994
	 D(4,2,9,10)      =         3.127502	     179.192693
	 D(4,11,3,16)     =         3.115479	     178.503822
	 D(4,11,13,23)    =        -0.255944	     -14.664516
	 D(5,7,12,8)      =         0.001093	       0.062606
	 D(5,7,12,22)     =        -3.140676	    -179.947488
	 D(5,10,6,8)      =         0.001035	       0.059286
	 D(5,10,6,19)     =        -3.107399	    -178.040836
	 D(6,8,12,7)      =         0.001210	       0.069322
	 D(6,8,12,22)     =        -3.140207	    -179.920583
	 D(6,10,5,7)      =         0.001270	       0.072755
	 D(6,10,5,18)     =        -3.107451	    -178.043806
	 D(7,5,10,9)      =        -3.140094	    -179.914124
	 D(7,12,8,21)     =         3.130667	     179.374011
	 D(8,6,10,9)      =        -3.140787	    -179.953858
	 D(8,12,7,20)     =         3.130850	     179.384502
	 D(9,1,3,11)      =         0.022682	       1.299593
	 D(9,1,3,16)      =        -3.111905	    -178.299032
	 D(9,2,4,11)      =         0.017954	       1.028686
	 D(9,2,4,17)      =        -3.110617	    -178.225233
	 D(9,10,5,18)     =         0.034371	       1.969315
	 D(9,10,6,19)     =         0.033964	       1.946020
	 D(10,5,7,12)     =        -0.002344	      -0.134324
	 D(10,5,7,20)     =        -3.131272	    -179.408674
	 D(10,6,8,12)     =        -0.002278	      -0.130496
	 D(10,6,8,21)     =        -3.130883	    -179.386355
	 D(10,9,1,14)     =         0.051519	       2.951794
	 D(10,9,2,15)     =         0.043333	       2.482794
	 D(11,3,1,14)     =         3.107465	     178.044655
	 D(11,4,2,15)     =         3.103195	     177.799982
	 D(12,7,5,18)     =         3.107212	     178.030129
	 D(12,8,6,19)     =         3.107010	     178.018561
	 D(13,11,3,16)    =        -0.024156	      -1.384064
	 D(13,11,4,17)    =        -0.016044	      -0.919263
	 D(14,1,3,16)     =        -0.027122	      -1.553970
	 D(15,2,4,17)     =        -0.025376	      -1.453938
	 D(18,5,7,20)     =        -0.021716	      -1.244221
	 D(19,6,8,21)     =        -0.021595	      -1.237298
	 D(20,7,12,22)    =        -0.010919	      -0.625592
	 D(21,8,12,22)    =        -0.010749	      -0.615895

	Current energy   :      -554.1016694291

	Energy change for the previous step:
		Projected    :        -0.0000045103
		Actual       :        -0.0000031001

	Performing BFGS update.
	Previous computed or guess Hessian on step 1.
	Steps to be used in Hessian update: 5 4
	Adding user-defined constraint: Fragment 1; Coordinate 76:
		Value =     2.883615; Fixed value    =     2.879790
		Force =    -0.002391; Force constant =     0.625000
	Removing off-diagonal coupling between coordinate 76 and others.
	Taking RFO optimization step.
	Going to follow RFO solution 1.
	Rejecting RFO root 1 because normalization gives large value.
	Using RFO vector 2.
	Norm of target step-size    0.00292
	Projected energy change by RFO approximation:        -0.0000001925

	Back-transformation to cartesian coordinates...
	Successfully converged to displaced geometry.

	--- Internal Coordinate Step in ANG or DEG, aJ/ANG or AJ/DEG ---
	 ---------------------------------------------------------------------------
	   Coordinate                Previous        Force       Change         New 
	   ----------                --------       ------       ------       ------
	    1 R(1,3)          =      1.377122     0.000281     0.000043     1.377165
	    2 R(1,9)          =      1.400275    -0.000530    -0.000091     1.400184
	    3 R(1,14)         =      1.079397    -0.000094    -0.000006     1.079391
	    4 R(2,4)          =      1.379736    -0.000173    -0.000026     1.379710
	    5 R(2,9)          =      1.398237    -0.000121    -0.000016     1.398221
	    6 R(2,15)         =      1.079463    -0.000159    -0.000022     1.079441
	    7 R(3,11)         =      1.393347    -0.000708    -0.000083     1.393263
	    8 R(3,16)         =      1.078574    -0.000205    -0.000037     1.078536
	    9 R(4,11)         =      1.393151     0.000208     0.000039     1.393190
	   10 R(4,17)         =      1.080173    -0.000172    -0.000027     1.080147
	   11 R(5,7)          =      1.371346    -0.000084    -0.000017     1.371328
	   12 R(5,10)         =      1.402242    -0.000311    -0.000049     1.402193
	   13 R(5,18)         =      1.077320    -0.000154    -0.000011     1.077309
	   14 R(6,8)          =      1.371309    -0.000080    -0.000016     1.371293
	   15 R(6,10)         =      1.402128    -0.000166    -0.000025     1.402104
	   16 R(6,19)         =      1.077333    -0.000184    -0.000021     1.077313
	   17 R(7,12)         =      1.343475     0.000028     0.000020     1.343495
	   18 R(7,20)         =      1.077262    -0.000075    -0.000011     1.077251
	   19 R(8,12)         =      1.343547    -0.000050     0.000012     1.343558
	   20 R(8,21)         =      1.077250    -0.000076    -0.000011     1.077239
	   21 R(9,10)         =      1.443638     0.000297     0.000014     1.443652
	   22 R(11,13)        =      1.344067    -0.000079    -0.000016     1.344051
	   23 R(12,22)        =      1.011601    -0.000121    -0.000019     1.011582
	   24 R(13,23)        =      0.963720    -0.000212    -0.000026     0.963694
	   25 B(1,3,11)       =    120.010499     0.000000    -0.001128   120.009371
	   26 B(1,3,16)       =    121.232391    -0.000004    -0.017988   121.214403
	   27 B(1,9,2)        =    118.536638    -0.000001     0.000899   118.537537
	   28 B(1,9,10)       =    120.723983     0.000000    -0.001609   120.722374
	   29 B(2,4,11)       =    119.998151     0.000002     0.004768   120.002919
	   30 B(2,4,17)       =    119.992654    -0.000002    -0.006395   119.986259
	   31 B(2,9,10)       =    120.739373     0.000001     0.000711   120.740084
	   32 B(3,1,9)        =    120.857997     0.000002     0.003354   120.861351
	   33 B(3,1,14)       =    118.613487    -0.000005    -0.013916   118.599571
	   34 B(3,11,4)       =    119.776398    -0.000002    -0.003444   119.772954
	   35 B(3,11,13)      =    116.877096    -0.000000    -0.004374   116.872721
	   36 B(4,2,9)        =    120.802504    -0.000000    -0.003841   120.798663
	   37 B(4,2,15)       =    118.608530    -0.000003    -0.009783   118.598746
	   38 B(4,11,13)      =    123.346405     0.000002     0.007746   123.354150
	   39 B(5,7,12)       =    119.509966    -0.000001    -0.004100   119.505866
	   40 B(5,7,20)       =    123.567833    -0.000001    -0.002064   123.565770
	   41 B(5,10,6)       =    116.693399    -0.000000     0.002564   116.695963
	   42 B(5,10,9)       =    121.573398     0.000001    -0.000447   121.572951
	   43 B(6,8,12)       =    119.511819    -0.000001    -0.004661   119.507159
	   44 B(6,8,21)       =    123.571989    -0.000001    -0.001980   123.570009
	   45 B(6,10,9)       =    121.733202    -0.000000    -0.002122   121.731080
	   46 B(7,5,10)       =    120.962975     0.000001     0.000913   120.963888
	   47 B(7,5,18)       =    118.202457    -0.000003    -0.006898   118.195559
	   48 B(7,12,8)       =    122.357546     0.000000     0.004375   122.361920
	   49 B(7,12,22)      =    118.820164    -0.000000    -0.002205   118.817958
	   50 B(8,6,10)       =    120.964097     0.000001     0.000991   120.965088
	   51 B(8,6,19)       =    118.184548    -0.000003    -0.008193   118.176355
	   52 B(8,12,22)      =    118.822290    -0.000000    -0.002170   118.820120
	   53 B(9,1,14)       =    120.447685     0.000003     0.011358   120.459042
	   54 B(9,2,15)       =    120.509332     0.000004     0.014544   120.523876
	   55 B(10,5,18)      =    120.808697     0.000002     0.005360   120.814057
	   56 B(10,6,19)      =    120.825039     0.000002     0.006197   120.831236
	   57 B(11,3,16)      =    118.755922     0.000004     0.018861   118.774783
	   58 B(11,4,17)      =    120.004987     0.000000     0.000905   120.005893
	   59 B(11,13,23)     =    110.645608    -0.000003    -0.014070   110.631538
	   60 B(12,7,20)      =    116.918464     0.000001     0.006286   116.924750
	   61 B(12,8,21)      =    116.912262     0.000001     0.006640   116.918902
	   62 D(1,3,11,4)     =     -1.104695    -0.000001    -0.006021    -1.110716
	   63 D(1,3,11,13)    =    179.007419     0.000001     0.028640   179.036059
	   64 D(1,9,2,4)      =     -0.836632    -0.000000     0.021993    -0.814638
	   65 D(1,9,2,15)     =   -177.546531    -0.000000     0.003267  -177.543264
	   66 D(1,9,10,5)     =     25.741996    -0.000000    -0.006827    25.735169
	   67 D(1,9,10,6)     =   -154.244221     0.000000     0.008671  -154.235550
	   68 D(2,4,11,3)     =     -0.053377     0.000001     0.034716    -0.018662
	   69 D(2,4,11,13)    =    179.826910    -0.000001    -0.002315   179.824595
	   70 D(2,9,1,3)      =     -0.333462     0.000000     0.007012    -0.326449
	   71 D(2,9,1,14)     =   -177.018886     0.000000    -0.008873  -177.027759
	   72 D(2,9,10,5)     =   -154.287972    -0.000000    -0.002973  -154.290945
	   73 D(2,9,10,6)     =     25.725811    -0.000000     0.012525    25.738336
	   74 D(3,1,9,10)     =    179.637219     0.000000     0.010782   179.648001
	   75 D(3,11,4,17)    =    179.200449     0.000000    -0.026847   179.173603
	   76 D(3,11,13,23)   =    165.218994    -0.000005    -0.029778   165.189216
	   77 D(4,2,9,10)     =    179.192693     0.000000     0.018224   179.210916
	   78 D(4,11,3,16)    =    178.503822    -0.000001    -0.046197   178.457625
	   79 D(4,11,13,23)   =    -14.664516    -0.000004     0.006255   -14.658261
	   80 D(5,7,12,8)     =      0.062606    -0.000000    -0.015335     0.047271
	   81 D(5,7,12,22)    =   -179.947488    -0.000000    -0.019547  -179.967035
	   82 D(5,10,6,8)     =      0.059286    -0.000000    -0.007703     0.051583
	   83 D(5,10,6,19)    =   -178.040836     0.000000     0.028401  -178.012435
	   84 D(6,8,12,7)     =      0.069322    -0.000000    -0.015138     0.054185
	   85 D(6,8,12,22)    =   -179.920583    -0.000000    -0.010926  -179.931509
	   86 D(6,10,5,7)     =      0.072755    -0.000000    -0.022786     0.049969
	   87 D(6,10,5,18)    =   -178.043806     0.000000    -0.000064  -178.043870
	   88 D(7,5,10,9)     =   -179.914124    -0.000000    -0.008031  -179.922155
	   89 D(7,12,8,21)    =    179.374011    -0.000000    -0.015216   179.358795
	   90 D(8,6,10,9)     =   -179.953858    -0.000000    -0.022483  -179.976340
	   91 D(8,12,7,20)    =    179.384502    -0.000000    -0.004168   179.380335
	   92 D(9,1,3,11)     =      1.299593     0.000000    -0.014743     1.284849
	   93 D(9,1,3,16)     =   -178.299032     0.000000     0.026284  -178.272748
	   94 D(9,2,4,11)     =      1.028686    -0.000000    -0.042864     0.985822
	   95 D(9,2,4,17)     =   -178.225233    -0.000000     0.018631  -178.206602
	   96 D(9,10,5,18)    =      1.969315     0.000000     0.014691     1.984005
	   97 D(9,10,6,19)    =      1.946020     0.000000     0.013622     1.959642
	   98 D(10,5,7,12)    =     -0.134324     0.000000     0.034587    -0.099737
	   99 D(10,5,7,20)    =   -179.408674     0.000000     0.022579  -179.386095
	  100 D(10,6,8,12)    =     -0.130496     0.000000     0.026577    -0.103919
	  101 D(10,6,8,21)    =   -179.386355     0.000000     0.026599  -179.359755
	  102 D(10,9,1,14)    =      2.951794     0.000000    -0.005104     2.946691
	  103 D(10,9,2,15)    =      2.482794    -0.000000    -0.000503     2.482291
	  104 D(11,3,1,14)    =    178.044655     0.000000     0.001663   178.046318
	  105 D(11,4,2,15)    =    177.799982    -0.000000    -0.023708   177.776274
	  106 D(12,7,5,18)    =    178.030129     0.000000     0.012667   178.042795
	  107 D(12,8,6,19)    =    178.018561    -0.000000    -0.008330   178.010231
	  108 D(13,11,3,16)   =     -1.384064     0.000001    -0.011536    -1.395600
	  109 D(13,11,4,17)   =     -0.919263    -0.000001    -0.063877    -0.983141
	  110 D(14,1,3,16)    =     -1.553970     0.000000     0.042690    -1.511279
	  111 D(15,2,4,17)    =     -1.453938     0.000000     0.037787    -1.416150
	  112 D(18,5,7,20)    =     -1.244221     0.000000     0.000659    -1.243562
	  113 D(19,6,8,21)    =     -1.237298    -0.000000    -0.008308    -1.245606
	  114 D(20,7,12,22)   =     -0.625592    -0.000000    -0.008379    -0.633971
	  115 D(21,8,12,22)   =     -0.615895    -0.000000    -0.011004    -0.626899
	 ---------------------------------------------------------------------------
	Successfully symmetrized geometry.
	 Forces used to impose fixed constraints are not included.
	  Forces zeroed: 76 

  ==> Convergence Check <==

  Measures of convergence in internal coordinates in au.
  Criteria marked as inactive (o), active & met (*), and active & unmet ( ).
  ---------------------------------------------------------------------------------------------
   Step     Total Energy     Delta E     MAX Force     RMS Force      MAX Disp      RMS Disp   
  ---------------------------------------------------------------------------------------------
    Convergence Criteria    1.00e-06 *    3.00e-04 *             o    1.20e-03 *             o
  ---------------------------------------------------------------------------------------------
      6    -554.10166943   -3.10e-06      2.05e-04 *    3.07e-05 o    1.11e-03 *    2.72e-04 o  ~
  ---------------------------------------------------------------------------------------------


  **** Optimization is complete! (in 6 steps) ****

  ==> Optimization Summary <==

  Measures of convergence in internal coordinates in au.
  --------------------------------------------------------------------------------------------------------------- ~
   Step         Total Energy             Delta E       MAX Force       RMS Force        MAX Disp        RMS Disp  ~
  --------------------------------------------------------------------------------------------------------------- ~
      1    -554.097771932278   -554.097771932278      0.01440719      0.00446926      0.03206697      0.00931248  ~
      2    -554.100805855515     -0.003033923237      0.00537168      0.00150954      0.02248071      0.00932496  ~
      3    -554.101533405296     -0.000727549781      0.00162791      0.00037250      0.03473675      0.00932583  ~
      4    -554.101654138450     -0.000120733154      0.00049816      0.00011906      0.01880594      0.00373723  ~
      5    -554.101666328972     -0.000012190522      0.00018182      0.00005963      0.00948278      0.00180837  ~
      6    -554.101669429111     -0.000003100139      0.00029322      0.00004108      0.00111487      0.00027193  ~
  --------------------------------------------------------------------------------------------------------------- ~

	Writing optimization data to binary file.
	Final energy is   -554.1016694291108
	Final (previous) structure:
	Cartesian Geometry (in Angstrom)
	    C    -1.2655212711   0.7673955316  -0.5474610449
	    C    -0.3181797079   0.0643764974   1.5489213043
	    C    -2.3340148950   1.3254890088   0.1183606841
	    C    -1.3746765031   0.6430047248   2.2217333138
	    C     1.2777842071  -0.0054705466  -1.8086669415
	    C     1.6098063877  -1.5309402808  -0.0027381578
	    C     2.3376940984  -0.5771793993  -2.4646614810
	    C     2.6667769232  -2.0797699083  -0.6825091614
	    C    -0.2391046549   0.1232194734   0.1541626376
	    C     0.8757707100  -0.4676343794  -0.5472897524
	    C    -2.3903725936   1.2772640357   1.5097316804
	    N     3.0021494269  -1.5931170487  -1.8890793223
	    O    -3.4508891981   1.8593063291   2.0954352859
	    H    -1.2603527948   0.7892357084  -1.6266245177
	    H     0.4745085483  -0.3895583663   2.1240985326
	    H    -3.1412974206   1.7992316198  -0.4175348377
	    H    -1.4080340382   0.6146834959   3.3010199448
	    H     0.7803895768   0.8286684022  -2.2749604627
	    H     1.3391142325  -1.9587364679   0.9482418595
	    H     2.6876868770  -0.2499775538  -3.4295125779
	    H     3.2528475013  -2.9026639052  -0.3085656172
	    H     3.7828675205  -2.0065805912  -2.3818915142
	    H    -3.5252628284   1.5825444990   3.0155588943
	Saving final (previous) structure.
			--------------------------
			 OPTKING Finished Execution 
			--------------------------

    Final optimized geometry and variables:
    Molecular point group: c1
    Full point group: C1

    Geometry (in Angstrom), charge = 1, multiplicity = 1:

    C           -1.265521271056     0.767395531623    -0.547461044877
    C           -0.318179707874     0.064376497446     1.548921304252
    C           -2.334014894985     1.325489008792     0.118360684130
    C           -1.374676503109     0.643004724829     2.221733313779
    C            1.277784207105    -0.005470546560    -1.808666941479
    C            1.609806387711    -1.530940280777    -0.002738157773
    C            2.337694098445    -0.577179399257    -2.464661480982
    C            2.666776923170    -2.079769908334    -0.682509161433
    C           -0.239104654911     0.123219473395     0.154162637635
    C            0.875770710011    -0.467634379389    -0.547289752417
    C           -2.390372593556     1.277264035713     1.509731680387
    N            3.002149426881    -1.593117048693    -1.889079322302
    O           -3.450889198097     1.859306329052     2.095435285905
    H           -1.260352794835     0.789235708356    -1.626624517663
    H            0.474508548327    -0.389558366314     2.124098532554
    H           -3.141297420551     1.799231619763    -0.417534837718
    H           -1.408034038171     0.614683495885     3.301019944767
    H            0.780389576752     0.828668402224    -2.274960462658
    H            1.339114232460    -1.958736467865     0.948241859539
    H            2.687686876981    -0.249977553834    -3.429512577887
    H            3.252847501335    -2.902663905210    -0.308565617232
    H            3.782867520477    -2.006580591212    -2.381891514184
    H           -3.525262828376     1.582544498962     3.015558894283

	Cleaning optimization helper files.

*** Psi4 exiting successfully. Buy a developer a beer!
