
    -----------------------------------------------------------------------
          Psi4: An Open-Source Ab Initio Electronic Structure Package
                               Psi4 1.1 release

                         Git: Rev {HEAD} add49b9 


    R. M. Parrish, L. A. Burns, D. G. A. Smith, A. C. Simmonett,
    A. E. DePrince III, E. G. Hohenstein, U. Bozkaya, A. Yu. Sokolov,
    R. Di Remigio, R. M. Richard, J. F. Gonthier, A. M. James,
    H. R. McAlexander, A. Kumar, M. Saitow, X. Wang, B. P. Pritchard,
    P. Verma, H. F. Schaefer III, K. Patkowski, R. A. King, E. F. Valeev,
    F. A. Evangelista, J. M. Turney, T. D. Crawford, and C. D. Sherrill,
    J. Chem. Theory Comput. in press (2017).
    (doi: 10.1021/acs.jctc.7b00174)

    -----------------------------------------------------------------------


    Psi4 started on: Saturday, 11 November 2017 06:12PM

    Process ID:  25477
    PSIDATADIR: /cbio/jclab/home/chayas/anaconda/envs/py35/share/psi4
    Memory:     500.0 MiB
    Threads:    8
    
  ==> Input File <==

--------------------------------------------------------------------------

memory 5 Gb

molecule phepyrF {
  symmetry C1
  0 1 
  C      1.885   -1.036   -0.112
  C      0.807   -0.463   0.561
  C      2.921   -1.631   0.608
  C      0.764   -0.484   1.955
  C      4.285   -1.805   4.014
  C      4.664   -3.332   2.194
  C      5.323   -2.432   4.684
  C      5.685   -3.890   2.946
  C      2.878   -1.652   2.002
  C      3.955   -2.270   2.745
  C      1.800   -1.079   2.676
  N      6.034   -3.466   4.181
  F      1.744   -1.089   4.016
  H      1.918   -1.020   -1.198
  H      0.000   -0.000   -0.000
  H      3.755   -2.073   0.068
  H      -0.076   -0.038   2.480
  H      3.754   -0.980   4.477
  H      4.435   -3.720   1.207
  H      5.618   -2.108   5.677
  H      6.269   -4.719   2.560
  units Angstrom
}

dih_string = "3 9 10 5 150"
set optking fixed_dihedral = $dih_string

optimize('MP2/aug-cc-PVTZ')
--------------------------------------------------------------------------

  Memory set to   4.657 GiB by Python driver.
gradient() will perform analytic gradient computation.

*** tstart() called on gpu-1-12.local
*** at Sat Nov 11 18:12:59 2017

    SCF Algorithm Type (re)set to DF.

*** tstart() called on gpu-1-12.local
*** at Sat Nov 11 18:12:59 2017

   => Loading Basis Set <=

    Name: AUG-CC-PVTZ
    Role: ORBITAL
    Keyword: BASIS
    atoms 1-11  entry C          line   221 file /cbio/jclab/home/chayas/anaconda/envs/py35/share/psi4/basis/aug-cc-pvtz.gbs 
    atoms 12    entry N          line   267 file /cbio/jclab/home/chayas/anaconda/envs/py35/share/psi4/basis/aug-cc-pvtz.gbs 
    atoms 13    entry F          line   359 file /cbio/jclab/home/chayas/anaconda/envs/py35/share/psi4/basis/aug-cc-pvtz.gbs 
    atoms 14-21 entry H          line    34 file /cbio/jclab/home/chayas/anaconda/envs/py35/share/psi4/basis/aug-cc-pvtz.gbs 


         ---------------------------------------------------------
                                   SCF
            by Justin Turney, Rob Parrish, and Andy Simmonett
                              RHF Reference
                        8 Threads,   4768 MiB Core
         ---------------------------------------------------------

  ==> Geometry <==

    Molecular point group: c1
    Full point group: C1

    Geometry (in Angstrom), charge = 0, multiplicity = 1:

       Center              X                  Y                   Z               Mass       
    ------------   -----------------  -----------------  -----------------  -----------------
           C         -1.368740834019     0.841250436094    -2.663141416761    12.000000000000
           C         -2.446740834019     1.414250436094    -1.990141416761    12.000000000000
           C         -0.332740834019     0.246250436094    -1.943141416761    12.000000000000
           C         -2.489740834019     1.393250436094    -0.596141416761    12.000000000000
           C          1.031259165981     0.072250436094     1.462858583239    12.000000000000
           C          1.410259165981    -1.454749563906    -0.357141416761    12.000000000000
           C          2.069259165981    -0.554749563906     2.132858583239    12.000000000000
           C          2.431259165981    -2.012749563906     0.394858583239    12.000000000000
           C         -0.375740834019     0.225250436094    -0.549141416761    12.000000000000
           C          0.701259165981    -0.392749563906     0.193858583239    12.000000000000
           C         -1.453740834019     0.798250436094     0.124858583239    12.000000000000
           N          2.780259165981    -1.588749563906     1.629858583239    14.003074004780
           F         -1.509740834019     0.788250436094     1.464858583239    18.998403224000
           H         -1.335740834019     0.857250436094    -3.749141416761     1.007825032070
           H         -3.253740834019     1.877250436094    -2.551141416761     1.007825032070
           H          0.501259165981    -0.195749563906    -2.483141416761     1.007825032070
           H         -3.329740834019     1.839250436094    -0.071141416761     1.007825032070
           H          0.500259165981     0.897250436094     1.925858583239     1.007825032070
           H          1.181259165981    -1.842749563906    -1.344141416761     1.007825032070
           H          2.364259165981    -0.230749563906     3.125858583239     1.007825032070
           H          3.015259165981    -2.841749563906     0.008858583239     1.007825032070

  Running in c1 symmetry.

  Rotational constants: A =      0.06385  B =      0.01858  C =      0.01478 [cm^-1]
  Rotational constants: A =   1914.26855  B =    557.06053  C =    443.02947 [MHz]
  Nuclear repulsion =  717.856375314579850

  Charge       = 0
  Multiplicity = 1
  Electrons    = 90
  Nalpha       = 45
  Nbeta        = 45

  ==> Algorithm <==

  SCF Algorithm Type is DF.
  DIIS enabled.
  MOM disabled.
  Fractional occupation disabled.
  Guess Type is SAD.
  Energy threshold   = 1.00e-10
  Density threshold  = 1.00e-10
  Integral threshold = 0.00e+00

  ==> Primary Basis <==

  Basis Set: AUG-CC-PVTZ
    Blend: AUG-CC-PVTZ
    Number of shells: 254
    Number of basis function: 782
    Number of Cartesian functions: 915
    Spherical Harmonics?: true
    Max angular momentum: 3

   => Loading Basis Set <=

    Name: (AUG-CC-PVTZ AUX)
    Role: JKFIT
    Keyword: DF_BASIS_SCF
    atoms 1-11  entry C          line   161 file /cbio/jclab/home/chayas/anaconda/envs/py35/share/psi4/basis/aug-cc-pvtz-jkfit.gbs 
    atoms 12    entry N          line   223 file /cbio/jclab/home/chayas/anaconda/envs/py35/share/psi4/basis/aug-cc-pvtz-jkfit.gbs 
    atoms 13    entry F          line   347 file /cbio/jclab/home/chayas/anaconda/envs/py35/share/psi4/basis/aug-cc-pvtz-jkfit.gbs 
    atoms 14-21 entry H          line    69 file /cbio/jclab/home/chayas/anaconda/envs/py35/share/psi4/basis/aug-cc-pvtz-jkfit.gbs 

  ==> Pre-Iterations <==

   -------------------------------------------------------
    Irrep   Nso     Nmo     Nalpha   Nbeta   Ndocc  Nsocc
   -------------------------------------------------------
     A        782     782       0       0       0       0
   -------------------------------------------------------
    Total     782     782      45      45      45       0
   -------------------------------------------------------

  ==> Integral Setup <==

  ==> DFJK: Density-Fitted J/K Matrices <==

    J tasked:                  Yes
    K tasked:                  Yes
    wK tasked:                  No
    OpenMP threads:              8
    Integrals threads:           8
    Memory (MB):              3576
    Algorithm:                Disk
    Integral Cache:           NONE
    Schwarz Cutoff:          1E-12
    Fitting Condition:       1E-12

   => Auxiliary Basis Set <=

  Basis Set: (AUG-CC-PVTZ AUX)
    Blend: AUG-CC-PVTZ-JKFIT
    Number of shells: 502
    Number of basis function: 1720
    Number of Cartesian functions: 2143
    Spherical Harmonics?: true
    Max angular momentum: 4

  Minimum eigenvalue in the overlap matrix is 6.3578073818E-07.
  Using Symmetric Orthogonalization.

  SCF Guess: Superposition of Atomic Densities via on-the-fly atomic UHF.

  ==> Iterations <==

                           Total Energy        Delta E     RMS |[F,P]|

   @DF-RHF iter   0:  -580.32369933057680   -5.80324e+02   1.99459e-02 
   @DF-RHF iter   1:  -574.92040397802771    5.40330e+00   1.87273e-03 
   @DF-RHF iter   2:  -575.21384881165829   -2.93445e-01   1.05989e-03 DIIS
   @DF-RHF iter   3:  -575.26576329269517   -5.19145e-02   3.20126e-04 DIIS
   @DF-RHF iter   4:  -575.27813881331872   -1.23755e-02   8.88243e-05 DIIS
   @DF-RHF iter   5:  -575.27913558751902   -9.96774e-04   3.97217e-05 DIIS
   @DF-RHF iter   6:  -575.27938566944647   -2.50082e-04   1.32539e-05 DIIS
   @DF-RHF iter   7:  -575.27942256579115   -3.68963e-05   4.67202e-06 DIIS
   @DF-RHF iter   8:  -575.27942622792386   -3.66213e-06   1.11071e-06 DIIS
   @DF-RHF iter   9:  -575.27942679415378   -5.66230e-07   5.67020e-07 DIIS
   @DF-RHF iter  10:  -575.27942695196316   -1.57809e-07   4.75015e-07 DIIS
   @DF-RHF iter  11:  -575.27942700685526   -5.48921e-08   1.21067e-07 DIIS
   @DF-RHF iter  12:  -575.27942701466748   -7.81222e-09   3.94492e-08 DIIS
   @DF-RHF iter  13:  -575.27942701545044   -7.82961e-10   1.97157e-08 DIIS
   @DF-RHF iter  14:  -575.27942701558311   -1.32673e-10   7.21643e-09 DIIS
   @DF-RHF iter  15:  -575.27942701560517   -2.20552e-11   5.70198e-09 DIIS
   @DF-RHF iter  16:  -575.27942701559823    6.93490e-12   2.83094e-09 DIIS
   @DF-RHF iter  17:  -575.27942701560573   -7.50333e-12   1.03566e-09 DIIS
   @DF-RHF iter  18:  -575.27942701560744   -1.70530e-12   2.34278e-10 DIIS
   @DF-RHF iter  19:  -575.27942701560551    1.93268e-12   1.17236e-10 DIIS
   @DF-RHF iter  20:  -575.27942701560085    4.66116e-12   4.78809e-11 DIIS

  ==> Post-Iterations <==

    Orbital Energies (a.u.)
    -----------------------

    Doubly Occupied:                                                      

       1A    -26.326510     2A    -15.564219     3A    -11.343487  
       4A    -11.274257     5A    -11.272466     6A    -11.266111  
       7A    -11.262426     8A    -11.259669     9A    -11.259471  
      10A    -11.257016    11A    -11.251766    12A    -11.240059  
      13A    -11.235008    14A     -1.647754    15A     -1.249687  
      16A     -1.184894    17A     -1.114112    18A     -1.039205  
      19A     -1.031939    20A     -1.026130    21A     -0.893009  
      22A     -0.876101    23A     -0.843494    24A     -0.824174  
      25A     -0.759101    26A     -0.725798    27A     -0.720953  
      28A     -0.712823    29A     -0.670496    30A     -0.660441  
      31A     -0.651448    32A     -0.625781    33A     -0.610598  
      34A     -0.596121    35A     -0.586947    36A     -0.550271  
      37A     -0.540829    38A     -0.522498    39A     -0.516932  
      40A     -0.505588    41A     -0.418355    42A     -0.410572  
      43A     -0.354061    44A     -0.348432    45A     -0.326748  

    Virtual:                                                              

      46A      0.023357    47A      0.029206    48A      0.033861  
      49A      0.039394    50A      0.043663    51A      0.046284  
      52A      0.056043    53A      0.057353    54A      0.064728  
      55A      0.078918    56A      0.082771    57A      0.086119  
      58A      0.090990    59A      0.094192    60A      0.099823  
      61A      0.104217    62A      0.107238    63A      0.108458  
      64A      0.114357    65A      0.115450    66A      0.117130  
      67A      0.118754    68A      0.121497    69A      0.130929  
      70A      0.131583    71A      0.134012    72A      0.137708  
      73A      0.139641    74A      0.142308    75A      0.146619  
      76A      0.149645    77A      0.151570    78A      0.154758  
      79A      0.162801    80A      0.168140    81A      0.174801  
      82A      0.175507    83A      0.180011    84A      0.184095  
      85A      0.188323    86A      0.199594    87A      0.204577  
      88A      0.215862    89A      0.223832    90A      0.223981  
      91A      0.227425    92A      0.228640    93A      0.231156  
      94A      0.240011    95A      0.242386    96A      0.246573  
      97A      0.250148    98A      0.253219    99A      0.259732  
     100A      0.264783   101A      0.266794   102A      0.268573  
     103A      0.275545   104A      0.283978   105A      0.284825  
     106A      0.289544   107A      0.292265   108A      0.297142  
     109A      0.298593   110A      0.303112   111A      0.310518  
     112A      0.313524   113A      0.315190   114A      0.318292  
     115A      0.322558   116A      0.327818   117A      0.336155  
     118A      0.337806   119A      0.340563   120A      0.346170  
     121A      0.351554   122A      0.355877   123A      0.363780  
     124A      0.367134   125A      0.377747   126A      0.380288  
     127A      0.382275   128A      0.388437   129A      0.395618  
     130A      0.403394   131A      0.411812   132A      0.412533  
     133A      0.417712   134A      0.421582   135A      0.429745  
     136A      0.432095   137A      0.434345   138A      0.436887  
     139A      0.439762   140A      0.446663   141A      0.446940  
     142A      0.453085   143A      0.456730   144A      0.460455  
     145A      0.466585   146A      0.468758   147A      0.473425  
     148A      0.475859   149A      0.477394   150A      0.484926  
     151A      0.488422   152A      0.493790   153A      0.495392  
     154A      0.499631   155A      0.503073   156A      0.505761  
     157A      0.507577   158A      0.508481   159A      0.511833  
     160A      0.520173   161A      0.522570   162A      0.524429  
     163A      0.528312   164A      0.532342   165A      0.534557  
     166A      0.537705   167A      0.540656   168A      0.543799  
     169A      0.547046   170A      0.552107   171A      0.559094  
     172A      0.560375   173A      0.573079   174A      0.575085  
     175A      0.579903   176A      0.586306   177A      0.590719  
     178A      0.601879   179A      0.608402   180A      0.609258  
     181A      0.617709   182A      0.626540   183A      0.630275  
     184A      0.637172   185A      0.646667   186A      0.648720  
     187A      0.652086   188A      0.665818   189A      0.676373  
     190A      0.681716   191A      0.687431   192A      0.692283  
     193A      0.700024   194A      0.704718   195A      0.706657  
     196A      0.707293   197A      0.717935   198A      0.723940  
     199A      0.726276   200A      0.739779   201A      0.741023  
     202A      0.743827   203A      0.744170   204A      0.749999  
     205A      0.754161   206A      0.769324   207A      0.772589  
     208A      0.777714   209A      0.779492   210A      0.790927  
     211A      0.803354   212A      0.804105   213A      0.809482  
     214A      0.819366   215A      0.823698   216A      0.833713  
     217A      0.842312   218A      0.851540   219A      0.856264  
     220A      0.857621   221A      0.862794   222A      0.871614  
     223A      0.872513   224A      0.878095   225A      0.882980  
     226A      0.884236   227A      0.887408   228A      0.888271  
     229A      0.893942   230A      0.907022   231A      0.907668  
     232A      0.913869   233A      0.915339   234A      0.919804  
     235A      0.922980   236A      0.929865   237A      0.937489  
     238A      0.943228   239A      0.947981   240A      0.954362  
     241A      0.958942   242A      0.965906   243A      0.970132  
     244A      0.974124   245A      0.978254   246A      0.985222  
     247A      0.988814   248A      0.990935   249A      0.994108  
     250A      1.001108   251A      1.007289   252A      1.011265  
     253A      1.013771   254A      1.017581   255A      1.024380  
     256A      1.026884   257A      1.028174   258A      1.037844  
     259A      1.044654   260A      1.045896   261A      1.050097  
     262A      1.061818   263A      1.067157   264A      1.068975  
     265A      1.070042   266A      1.075567   267A      1.078266  
     268A      1.085414   269A      1.088235   270A      1.088448  
     271A      1.096023   272A      1.099352   273A      1.107210  
     274A      1.110379   275A      1.118438   276A      1.124105  
     277A      1.126843   278A      1.136038   279A      1.136718  
     280A      1.146117   281A      1.146787   282A      1.159073  
     283A      1.168282   284A      1.174088   285A      1.174919  
     286A      1.179144   287A      1.186387   288A      1.188194  
     289A      1.189001   290A      1.198126   291A      1.202963  
     292A      1.203236   293A      1.207104   294A      1.211286  
     295A      1.216204   296A      1.220574   297A      1.229347  
     298A      1.235705   299A      1.237744   300A      1.248914  
     301A      1.262737   302A      1.263377   303A      1.268456  
     304A      1.274131   305A      1.282609   306A      1.286811  
     307A      1.293239   308A      1.296424   309A      1.300356  
     310A      1.313209   311A      1.318049   312A      1.323380  
     313A      1.331060   314A      1.337419   315A      1.352664  
     316A      1.361512   317A      1.364756   318A      1.368412  
     319A      1.376675   320A      1.390612   321A      1.393649  
     322A      1.403868   323A      1.410342   324A      1.418111  
     325A      1.422618   326A      1.427021   327A      1.435021  
     328A      1.438024   329A      1.450915   330A      1.474496  
     331A      1.477626   332A      1.493426   333A      1.495991  
     334A      1.498629   335A      1.512884   336A      1.514337  
     337A      1.525734   338A      1.527012   339A      1.543614  
     340A      1.546202   341A      1.555150   342A      1.560546  
     343A      1.578145   344A      1.582348   345A      1.592923  
     346A      1.598289   347A      1.603517   348A      1.617581  
     349A      1.625959   350A      1.637233   351A      1.645790  
     352A      1.653837   353A      1.658218   354A      1.665336  
     355A      1.673177   356A      1.678612   357A      1.689271  
     358A      1.698671   359A      1.709665   360A      1.710274  
     361A      1.716386   362A      1.725186   363A      1.733252  
     364A      1.735609   365A      1.738400   366A      1.747382  
     367A      1.755636   368A      1.776681   369A      1.777892  
     370A      1.784659   371A      1.794159   372A      1.798540  
     373A      1.807540   374A      1.817396   375A      1.825278  
     376A      1.830816   377A      1.833265   378A      1.844263  
     379A      1.859799   380A      1.864972   381A      1.870974  
     382A      1.879992   383A      1.895788   384A      1.900014  
     385A      1.919002   386A      1.922830   387A      1.933662  
     388A      1.941389   389A      1.945117   390A      1.954229  
     391A      1.966298   392A      1.968670   393A      1.977211  
     394A      1.986788   395A      1.989755   396A      1.995669  
     397A      2.001725   398A      2.014836   399A      2.018360  
     400A      2.024845   401A      2.028167   402A      2.035432  
     403A      2.045245   404A      2.046503   405A      2.055205  
     406A      2.065987   407A      2.073280   408A      2.081774  
     409A      2.087752   410A      2.089859   411A      2.098802  
     412A      2.112443   413A      2.116309   414A      2.126707  
     415A      2.130433   416A      2.133623   417A      2.145073  
     418A      2.161297   419A      2.163300   420A      2.171135  
     421A      2.181389   422A      2.189927   423A      2.199718  
     424A      2.210354   425A      2.214862   426A      2.231386  
     427A      2.237854   428A      2.242484   429A      2.249996  
     430A      2.257985   431A      2.274434   432A      2.288433  
     433A      2.294867   434A      2.306342   435A      2.312834  
     436A      2.327521   437A      2.331918   438A      2.339845  
     439A      2.354489   440A      2.365831   441A      2.368462  
     442A      2.380748   443A      2.388017   444A      2.401796  
     445A      2.408085   446A      2.419073   447A      2.427993  
     448A      2.442954   449A      2.465453   450A      2.478147  
     451A      2.482593   452A      2.507285   453A      2.516153  
     454A      2.528963   455A      2.531276   456A      2.544612  
     457A      2.561730   458A      2.566383   459A      2.586745  
     460A      2.594232   461A      2.614370   462A      2.625080  
     463A      2.629451   464A      2.653073   465A      2.665522  
     466A      2.696645   467A      2.705870   468A      2.731867  
     469A      2.753859   470A      2.760882   471A      2.785883  
     472A      2.796605   473A      2.818567   474A      2.830801  
     475A      2.849538   476A      2.867516   477A      2.892447  
     478A      2.904158   479A      2.944866   480A      2.981831  
     481A      3.000232   482A      3.021943   483A      3.035625  
     484A      3.054843   485A      3.065584   486A      3.089014  
     487A      3.110343   488A      3.133701   489A      3.139162  
     490A      3.161854   491A      3.172679   492A      3.176586  
     493A      3.178965   494A      3.205652   495A      3.215713  
     496A      3.236819   497A      3.248697   498A      3.256514  
     499A      3.282217   500A      3.300315   501A      3.305567  
     502A      3.322543   503A      3.330656   504A      3.336663  
     505A      3.345207   506A      3.357724   507A      3.362880  
     508A      3.376140   509A      3.394320   510A      3.401063  
     511A      3.414404   512A      3.423006   513A      3.435032  
     514A      3.443502   515A      3.452736   516A      3.455038  
     517A      3.465023   518A      3.468680   519A      3.488517  
     520A      3.493402   521A      3.502973   522A      3.506120  
     523A      3.506897   524A      3.515206   525A      3.529226  
     526A      3.537458   527A      3.552491   528A      3.562098  
     529A      3.565217   530A      3.575374   531A      3.576053  
     532A      3.577741   533A      3.585324   534A      3.600042  
     535A      3.612368   536A      3.633272   537A      3.640262  
     538A      3.649075   539A      3.656551   540A      3.668251  
     541A      3.675303   542A      3.681180   543A      3.692790  
     544A      3.705919   545A      3.709137   546A      3.718304  
     547A      3.728452   548A      3.740528   549A      3.747456  
     550A      3.765433   551A      3.769757   552A      3.778792  
     553A      3.791949   554A      3.799318   555A      3.801939  
     556A      3.815914   557A      3.818180   558A      3.827568  
     559A      3.842020   560A      3.851169   561A      3.858342  
     562A      3.863101   563A      3.866094   564A      3.879044  
     565A      3.885115   566A      3.888475   567A      3.899498  
     568A      3.906038   569A      3.919633   570A      3.927625  
     571A      3.934241   572A      3.942357   573A      3.949702  
     574A      3.968462   575A      3.970414   576A      3.979023  
     577A      3.985060   578A      3.999844   579A      4.003962  
     580A      4.012212   581A      4.017154   582A      4.026787  
     583A      4.033498   584A      4.043876   585A      4.046284  
     586A      4.052496   587A      4.069647   588A      4.078984  
     589A      4.091881   590A      4.101794   591A      4.107964  
     592A      4.123549   593A      4.134944   594A      4.140279  
     595A      4.143290   596A      4.155378   597A      4.160943  
     598A      4.178105   599A      4.193219   600A      4.203119  
     601A      4.207571   602A      4.220183   603A      4.225524  
     604A      4.239758   605A      4.250734   606A      4.258432  
     607A      4.267064   608A      4.280495   609A      4.290044  
     610A      4.295141   611A      4.310824   612A      4.316930  
     613A      4.333238   614A      4.339597   615A      4.344654  
     616A      4.356114   617A      4.363593   618A      4.365249  
     619A      4.379296   620A      4.384052   621A      4.393217  
     622A      4.405306   623A      4.416182   624A      4.421236  
     625A      4.430907   626A      4.433580   627A      4.459831  
     628A      4.463804   629A      4.475222   630A      4.489580  
     631A      4.496138   632A      4.502166   633A      4.505648  
     634A      4.511300   635A      4.522030   636A      4.547294  
     637A      4.563040   638A      4.590274   639A      4.596626  
     640A      4.610674   641A      4.618514   642A      4.642005  
     643A      4.648680   644A      4.675559   645A      4.679312  
     646A      4.691230   647A      4.708630   648A      4.719692  
     649A      4.727555   650A      4.737544   651A      4.747204  
     652A      4.762666   653A      4.786583   654A      4.795865  
     655A      4.805065   656A      4.812683   657A      4.859047  
     658A      4.872200   659A      4.874161   660A      4.896815  
     661A      4.903328   662A      4.924934   663A      4.937400  
     664A      4.953957   665A      4.966138   666A      4.974494  
     667A      4.996279   668A      4.999477   669A      5.009544  
     670A      5.025332   671A      5.032036   672A      5.045881  
     673A      5.051382   674A      5.073807   675A      5.077093  
     676A      5.100512   677A      5.116726   678A      5.124418  
     679A      5.127158   680A      5.133334   681A      5.143205  
     682A      5.163052   683A      5.170110   684A      5.186373  
     685A      5.193260   686A      5.205399   687A      5.211220  
     688A      5.220114   689A      5.235944   690A      5.249622  
     691A      5.255544   692A      5.295655   693A      5.305900  
     694A      5.318288   695A      5.337718   696A      5.356014  
     697A      5.370155   698A      5.379660   699A      5.396069  
     700A      5.405013   701A      5.420170   702A      5.449785  
     703A      5.459088   704A      5.473788   705A      5.529340  
     706A      5.541990   707A      5.562108   708A      5.569358  
     709A      5.575931   710A      5.603162   711A      5.665888  
     712A      5.679392   713A      5.689939   714A      5.695307  
     715A      5.705818   716A      5.757199   717A      5.783151  
     718A      5.802636   719A      5.832152   720A      5.837485  
     721A      5.853351   722A      5.863067   723A      5.885686  
     724A      5.910324   725A      5.965252   726A      6.002423  
     727A      6.053575   728A      6.085283   729A      6.139128  
     730A      6.187174   731A      6.194292   732A      6.204399  
     733A      6.230399   734A      6.259538   735A      6.287675  
     736A      6.341518   737A      6.372502   738A      6.414725  
     739A      6.474484   740A      6.486542   741A      6.495076  
     742A      6.556433   743A      6.603528   744A      6.673197  
     745A      6.713611   746A      6.714306   747A      6.735869  
     748A      6.819837   749A      6.886429   750A      6.947839  
     751A      6.985211   752A      7.012075   753A      7.070477  
     754A      7.091921   755A      7.302010   756A      7.442000  
     757A      7.485038   758A      9.103953   759A      9.128407  
     760A      9.275572   761A      9.292723   762A      9.425778  
     763A      9.525915   764A      9.560494   765A      9.630054  
     766A      9.669317   767A      9.733706   768A     10.043006  
     769A     10.108377   770A     15.591786   771A     16.245604  
     772A     16.546047   773A     16.703193   774A     16.773311  
     775A     18.457305   776A     18.796497   777A     19.121193  
     778A     19.362134   779A     20.023348   780A     20.193972  
     781A     20.567164   782A     21.726593  

    Final Occupation by Irrep:
              A 
    DOCC [    45 ]

  Energy converged.

  @DF-RHF Final Energy:  -575.27942701560085

   => Energetics <=

    Nuclear Repulsion Energy =            717.8563753145798501
    One-Electron Energy =               -2207.5560949103969506
    Two-Electron Energy =                 914.4202925802161417
    DFT Exchange-Correlation Energy =       0.0000000000000000
    Empirical Dispersion Energy =           0.0000000000000000
    PCM Polarization Energy =               0.0000000000000000
    EFP Energy =                            0.0000000000000000
    Total Energy =                       -575.2794270156008452



Properties will be evaluated at   0.000000,   0.000000,   0.000000 Bohr

Properties computed using the SCF density matrix

  Nuclear Dipole Moment: (a.u.)
     X:     1.0815      Y:    -0.4015      Z:    -6.2035

  Electronic Dipole Moment: (a.u.)
     X:    -1.9224      Y:     0.9163      Z:     5.0597

  Dipole Moment: (a.u.)
     X:    -0.8409      Y:     0.5148      Z:    -1.1438     Total:     1.5101

  Dipole Moment: (Debye)
     X:    -2.1373      Y:     1.3086      Z:    -2.9072     Total:     3.8383


*** tstop() called on gpu-1-12.local at Sat Nov 11 18:20:53 2017
Module time:
	user time   =    1371.58 seconds =      22.86 minutes
	system time =      48.58 seconds =       0.81 minutes
	total time  =        474 seconds =       7.90 minutes
Total time:
	user time   =    1371.58 seconds =      22.86 minutes
	system time =      48.58 seconds =       0.81 minutes
	total time  =        474 seconds =       7.90 minutes

  //>>>>>>>>>>>>>>>>>>>>>>>>>>>>>>>>>>>//
  //               DFMP2               //
  //<<<<<<<<<<<<<<<<<<<<<<<<<<<<<<<<<<<//

   => Loading Basis Set <=

    Name: (AUG-CC-PVTZ AUX)
    Role: RIFIT
    Keyword: DF_BASIS_MP2
    atoms 1-11  entry C          line   147 file /cbio/jclab/home/chayas/anaconda/envs/py35/share/psi4/basis/aug-cc-pvtz-ri.gbs 
    atoms 12    entry N          line   205 file /cbio/jclab/home/chayas/anaconda/envs/py35/share/psi4/basis/aug-cc-pvtz-ri.gbs 
    atoms 13    entry F          line   321 file /cbio/jclab/home/chayas/anaconda/envs/py35/share/psi4/basis/aug-cc-pvtz-ri.gbs 
    atoms 14-21 entry H          line    29 file /cbio/jclab/home/chayas/anaconda/envs/py35/share/psi4/basis/aug-cc-pvtz-ri.gbs 

	 --------------------------------------------------------
	                          DF-MP2                         
	      2nd-Order Density-Fitted Moller-Plesset Theory     
	              RMP2 Wavefunction,   8 Threads             
	                                                         
	        Rob Parrish, Justin Turney, Andy Simmonett,      
	           Ed Hohenstein, and C. David Sherrill          
	 --------------------------------------------------------

   => Auxiliary Basis Set <=

  Basis Set: (AUG-CC-PVTZ AUX)
    Blend: AUG-CC-PVTZ-RI
    Number of shells: 476
    Number of basis function: 1746
    Number of Cartesian functions: 2208
    Spherical Harmonics?: true
    Max angular momentum: 4

	 --------------------------------------------------------
	                 NBF =   782, NAUX =  1746
	 --------------------------------------------------------
	   CLASS    FOCC     OCC    AOCC    AVIR     VIR    FVIR
	   PAIRS       0      45      45     737     737       0
	 --------------------------------------------------------


         ------------------------------------------------------------
                                     CPHF                           
                                  Rob Parrish                       
         ------------------------------------------------------------

  ==> Geometry <==

    Molecular point group: c1
    Full point group: C1

    Geometry (in Angstrom), charge = 0, multiplicity = 1:

       Center              X                  Y                   Z               Mass       
    ------------   -----------------  -----------------  -----------------  -----------------
           C         -1.368740834019     0.841250436094    -2.663141416761    12.000000000000
           C         -2.446740834019     1.414250436094    -1.990141416761    12.000000000000
           C         -0.332740834019     0.246250436094    -1.943141416761    12.000000000000
           C         -2.489740834019     1.393250436094    -0.596141416761    12.000000000000
           C          1.031259165981     0.072250436094     1.462858583239    12.000000000000
           C          1.410259165981    -1.454749563906    -0.357141416761    12.000000000000
           C          2.069259165981    -0.554749563906     2.132858583239    12.000000000000
           C          2.431259165981    -2.012749563906     0.394858583239    12.000000000000
           C         -0.375740834019     0.225250436094    -0.549141416761    12.000000000000
           C          0.701259165981    -0.392749563906     0.193858583239    12.000000000000
           C         -1.453740834019     0.798250436094     0.124858583239    12.000000000000
           N          2.780259165981    -1.588749563906     1.629858583239    14.003074004780
           F         -1.509740834019     0.788250436094     1.464858583239    18.998403224000
           H         -1.335740834019     0.857250436094    -3.749141416761     1.007825032070
           H         -3.253740834019     1.877250436094    -2.551141416761     1.007825032070
           H          0.501259165981    -0.195749563906    -2.483141416761     1.007825032070
           H         -3.329740834019     1.839250436094    -0.071141416761     1.007825032070
           H          0.500259165981     0.897250436094     1.925858583239     1.007825032070
           H          1.181259165981    -1.842749563906    -1.344141416761     1.007825032070
           H          2.364259165981    -0.230749563906     3.125858583239     1.007825032070
           H          3.015259165981    -2.841749563906     0.008858583239     1.007825032070

  Nuclear repulsion =  717.856375314579850
  Reference energy  = -575.279427015600845

  ==> Basis Set <==

  Basis Set: AUG-CC-PVTZ
    Blend: AUG-CC-PVTZ
    Number of shells: 254
    Number of basis function: 782
    Number of Cartesian functions: 915
    Spherical Harmonics?: true
    Max angular momentum: 3

  ==> CGRSolver (by Rob Parrish) <==

   Number of roots    =         1
   Preconditioning    =    JACOBI
   Convergence cutoff =     1E-06
   Maximum iterations =       100

  ==> CPHFRHamiltonian (by Rob Parrish) <== 

  ==> DFJK: Density-Fitted J/K Matrices <==

    J tasked:                  Yes
    K tasked:                  Yes
    wK tasked:                  No
    OpenMP threads:              8
    Integrals threads:           8
    Memory (MB):              3576
    Algorithm:                Disk
    Integral Cache:           NONE
    Schwarz Cutoff:          1E-12
    Fitting Condition:       1E-12

   => Auxiliary Basis Set <=

  Basis Set: (AUG-CC-PVTZ AUX)
    Blend: AUG-CC-PVTZ-JKFIT
    Number of shells: 502
    Number of basis function: 1720
    Number of Cartesian functions: 2143
    Spherical Harmonics?: true
    Max angular momentum: 4

  ==> CPHF Iterations <==

  => Iterations <=

             Iter  Converged  Remaining    Residual
  CGR           1          0          1   9.778E-02
  CGR           2          0          1   2.982E-02
  CGR           3          0          1   1.967E-02
  CGR           4          0          1   9.684E-03
  CGR           5          0          1   3.851E-03
  CGR           6          0          1   1.468E-03
  CGR           7          0          1   4.549E-04
  CGR           8          0          1   1.826E-04
  CGR           9          0          1   9.151E-05
  CGR          10          0          1   3.927E-05
  CGR          11          0          1   1.512E-05
  CGR          12          0          1   4.957E-06
  CGR          13          0          1   1.619E-06
  CGR          14          1          0   5.611E-07

    CGRSolver converged.

  ==> DFCorrGrad: Density-Fitted Correlated Gradients <==

    OpenMP threads:              8
    Integrals threads:           8
    Memory (MB):              3576
    Schwarz Cutoff:          0E+00
    Fitting Condition:       1E-12

   => Auxiliary Basis Set <=

  Basis Set: (AUG-CC-PVTZ AUX)
    Blend: AUG-CC-PVTZ-JKFIT
    Number of shells: 502
    Number of basis function: 1720
    Number of Cartesian functions: 2143
    Spherical Harmonics?: true
    Max angular momentum: 4

	-----------------------------------------------------------
	 ==================> DF-MP2 Energies <==================== 
	-----------------------------------------------------------
	 Reference Energy          =    -575.2794270156008452 [Eh]
	 Singles Energy            =      -0.0000000000000001 [Eh]
	 Same-Spin Energy          =      -0.6090787196562922 [Eh]
	 Opposite-Spin Energy      =      -1.8334503625532601 [Eh]
	 Correlation Energy        =      -2.4425290822095524 [Eh]
	 Total Energy              =    -577.7219560978104482 [Eh]
	-----------------------------------------------------------
	 ================> DF-SCS-MP2 Energies <================== 
	-----------------------------------------------------------
	 SCS Same-Spin Scale       =       0.3333333333333333 [-]
	 SCS Opposite-Spin Scale   =       1.2000000000000000 [-]
	 SCS Same-Spin Energy      =      -0.2030262398854307 [Eh]
	 SCS Opposite-Spin Energy  =      -2.2001404350639122 [Eh]
	 SCS Correlation Energy    =      -2.4031666749493428 [Eh]
	 SCS Total Energy          =    -577.6825936905502203 [Eh]
	-----------------------------------------------------------


  -Total Gradient:
     Atom            X                  Y                   Z
    ------   -----------------  -----------------  -----------------
       1       -0.002074868197     0.001802166827     0.000653784983
       2       -0.003358170891     0.002134724279    -0.002258620189
       3        0.015001934261    -0.006792500527     0.007385869198
       4        0.000726237854     0.000033348878    -0.004968830226
       5       -0.009475228671     0.004848165404    -0.004906376241
       6       -0.006692741092     0.000620948927    -0.006845831487
       7       -0.009550583362     0.009642904438     0.001446406279
       8       -0.007042694220    -0.000861167745    -0.010243978657
       9       -0.002998248842     0.001362597648    -0.004174972459
      10        0.003293205340    -0.001322403315     0.000202268981
      11        0.010265145058    -0.009243006704     0.026504081470
      12        0.012477184797    -0.006642321406     0.007839537994
      13        0.007677031431     0.000662034307     0.002399545819
      14        0.000050712841    -0.000221215309    -0.005361871416
      15       -0.003604633048     0.001922149575    -0.003839758965
      16        0.003324490928    -0.003567670125    -0.005908496619
      17       -0.004829987159     0.002793876311     0.000908141443
      18       -0.006813199147     0.005426661189     0.003943364152
      19        0.000334915624    -0.000861956554    -0.005368908770
      20        0.001201237233     0.000255762447     0.003015203522
      21        0.002088259255    -0.001993098542    -0.000420558817


*** tstop() called on gpu-1-12.local at Sat Nov 11 18:50:06 2017
Module time:
	user time   =    5926.52 seconds =      98.78 minutes
	system time =     104.32 seconds =       1.74 minutes
	total time  =       2227 seconds =      37.12 minutes
Total time:
	user time   =    5926.52 seconds =      98.78 minutes
	system time =     104.32 seconds =       1.74 minutes
	total time  =       2227 seconds =      37.12 minutes

			-----------------------------------------
			 OPTKING 2.0: for geometry optimizations 
			  - R.A. King,  Bethel University        
			-----------------------------------------

	Internal coordinates to be generated automatically.
	Detected frag 1 with atoms:  1 2 3 4 5 6 7 8 9 10 11 12 13 14 15 16 17 18 19 20
	 21
	---Fragment 1 Bond Connectivity---
	 1 : 2 3 14
	 2 : 1 4 15
	 3 : 1 9 16
	 4 : 2 11 17
	 5 : 7 10 18
	 6 : 8 10 19
	 7 : 5 12 20
	 8 : 6 12 21
	 9 : 3 10 11
	 10 : 5 6 9
	 11 : 4 9 13
	 12 : 7 8
	 13 : 11
	 14 : 1
	 15 : 2
	 16 : 3
	 17 : 4
	 18 : 5
	 19 : 6
	 20 : 7
	 21 : 8

	Assuming in current code that numbering for constraints corresponds to unified fragment.
	Fixed dihedral atom list: 
	     3     9    10     5
	---Fragment 1 Geometry and Gradient---
	 C          -2.5865453232        1.5897329334       -5.0326079308
	 C          -4.6236700944        2.6725460075       -3.7608222434
	 C          -0.6287890495        0.4653458843       -3.6720051151
	 C          -4.7049283182        2.6328617587       -1.1265440141
	 C           1.9487973957        0.1365335372        2.7644020935
	 C           2.6650036001       -2.7490782677       -0.6748994684
	 C           3.9103331217       -1.0483247481        4.0305186025
	 C           4.5944139818       -3.8035454499        0.7461745835
	 C          -0.7100472732        0.4256616355       -1.0377268859
	 C           1.3251877719       -0.7421891146        0.3663396308
	 C          -2.7471720445        1.5084747097        0.2359485277
	 N           5.2539284021       -3.0023015695        3.0799863577
	 F          -2.8529967079        1.4895774483        2.7681815457
	 H          -2.5241843608        1.6199685515       -7.0848505111
	 H          -6.1486790837        3.5474892071       -4.8209586039
	 H           0.9472425453       -0.3699130664       -4.6924572269
	 H          -6.2922982698        3.4756796140       -0.1344377944
	 H           0.9453528192        1.6955575968        3.6393452930
	 H           2.2322563157       -3.4822920073       -2.5400591615
	 H           4.4678023309       -0.4360534811        5.9070166525
	 H           5.6980140434       -5.3701284140        0.0167402962
	            -0.0020748682        0.0018021668        0.0006537850
	            -0.0033581709        0.0021347243       -0.0022586202
	             0.0150019343       -0.0067925005        0.0073858692
	             0.0007262379        0.0000333489       -0.0049688302
	            -0.0094752287        0.0048481654       -0.0049063762
	            -0.0066927411        0.0006209489       -0.0068458315
	            -0.0095505834        0.0096429044        0.0014464063
	            -0.0070426942       -0.0008611677       -0.0102439787
	            -0.0029982488        0.0013625976       -0.0041749725
	             0.0032932053       -0.0013224033        0.0002022690
	             0.0102651451       -0.0092430067        0.0265040815
	             0.0124771848       -0.0066423214        0.0078395380
	             0.0076770314        0.0006620343        0.0023995458
	             0.0000507128       -0.0002212153       -0.0053618714
	            -0.0036046330        0.0019221496       -0.0038397590
	             0.0033244909       -0.0035676701       -0.0059084966
	            -0.0048299872        0.0027938763        0.0009081414
	            -0.0068131991        0.0054266612        0.0039433642
	             0.0003349156       -0.0008619566       -0.0053689088
	             0.0012012372        0.0002557624        0.0030152035
	             0.0020882593       -0.0019930985       -0.0004205588

	Previous optimization step data not found.  Starting new optimization.

	---Fragment 1 Intrafragment Coordinates---
	 - Coordinate -           - BOHR/RAD -       - ANG/DEG -
	 R(1,2)           =         2.634350	       1.394038
	 R(1,3)           =         2.635962	       1.394891
	 R(1,14)          =         2.053412	       1.086619
	 R(2,4)           =         2.635830	       1.394821
	 R(2,15)          =         2.053063	       1.086434
	 R(3,9)           =         2.635830	       1.394821
	 R(3,16)          =         2.054959	       1.087437
	 R(4,11)          =         2.636938	       1.395407
	 R(4,17)          =         2.052891	       1.086343
	 R(5,7)           =         2.618122	       1.385450
	 R(5,10)          =         2.629020	       1.391217
	 R(5,18)          =         2.050118	       1.084876
	 R(6,8)           =         2.618010	       1.385391
	 R(6,10)          =         2.628096	       1.390729
	 R(6,19)          =         2.050291	       1.084967
	 R(7,12)          =         2.554757	       1.351919
	 R(7,20)          =         2.051071	       1.085380
	 R(8,12)          =         2.554139	       1.351592
	 R(8,21)          =         2.050412	       1.085031
	 R(9,10)          =         2.734494	       1.447032
	 R(9,11)          =         2.635263	       1.394521
	 R(11,13)         =         2.534514	       1.341207
	 B(1,2,4)         =         2.094553	     120.009056
	 B(1,2,15)        =         2.094721	     120.018646
	 B(1,3,9)         =         2.093692	     119.959722
	 B(1,3,16)        =         2.079074	     119.122177
	 B(2,1,3)         =         2.094940	     120.031219
	 B(2,1,14)        =         2.094311	     119.995189
	 B(2,4,11)        =         2.094306	     119.994870
	 B(2,4,17)        =         2.095140	     120.042665
	 B(3,1,14)        =         2.093934	     119.973570
	 B(3,9,10)        =         2.090528	     119.778448
	 B(3,9,11)        =         2.095181	     120.045019
	 B(4,2,15)        =         2.093912	     119.972298
	 B(4,11,9)        =         2.093699	     119.960108
	 B(4,11,13)       =         2.081063	     119.236128
	 B(5,7,12)        =         2.165463	     124.071908
	 B(5,7,20)        =         2.107114	     120.728718
	 B(5,10,6)        =         2.089434	     119.715774
	 B(5,10,9)        =         2.096886	     120.142693
	 B(6,8,12)        =         2.165096	     124.050841
	 B(6,8,21)        =         2.107486	     120.750081
	 B(6,10,9)        =         2.096865	     120.141515
	 B(7,5,10)        =         2.057331	     117.876379
	 B(7,5,18)        =         2.099567	     120.296340
	 B(7,12,8)        =         2.030968	     116.365875
	 B(8,6,10)        =         2.058079	     117.919219
	 B(8,6,19)        =         2.100534	     120.351730
	 B(9,3,16)        =         2.110419	     120.918077
	 B(9,11,13)       =         2.108422	     120.803676
	 B(10,5,18)       =         2.126286	     121.827195
	 B(10,6,19)       =         2.124572	     121.729034
	 B(10,9,11)       =         2.097476	     120.176533
	 B(11,4,17)       =         2.093740	     119.962450
	 B(12,7,20)       =         2.010607	     115.199322
	 B(12,8,21)       =         2.010601	     115.198968
	 D(1,2,4,11)      =        -0.000325	      -0.018609
	 D(1,2,4,17)      =        -3.141151	    -179.974682
	 D(1,3,9,10)      =        -3.141334	    -179.985190
	 D(1,3,9,11)      =         0.000325	       0.018608
	 D(2,1,3,9)       =        -0.000348	      -0.019945
	 D(2,1,3,16)      =        -3.140969	    -179.964243
	 D(2,4,11,9)      =         0.000301	       0.017261
	 D(2,4,11,13)     =         3.140029	     179.910408
	 D(3,1,2,4)       =         0.000348	       0.019955
	 D(3,1,2,15)      =        -3.141142	    -179.974167
	 D(3,9,10,5)      =         2.617591	     149.976892
	 D(3,9,10,6)      =        -0.524842	     -30.071253
	 D(3,9,11,4)      =        -0.000301	      -0.017270
	 D(3,9,11,13)     =        -3.139999	    -179.908714
	 D(4,2,1,14)      =         3.141002	     179.966134
	 D(4,11,9,10)     =         3.141358	     179.986543
	 D(5,7,12,8)      =        -0.000133	      -0.007596
	 D(5,10,6,8)      =         0.000287	       0.016455
	 D(5,10,6,19)     =        -3.140486	    -179.936584
	 D(5,10,9,11)     =        -0.524068	     -30.026910
	 D(6,8,12,7)      =        -0.000030	      -0.001746
	 D(6,10,5,7)      =        -0.000433	      -0.024808
	 D(6,10,5,18)     =        -3.140176	    -179.918825
	 D(6,10,9,11)     =         2.616684	     149.924944
	 D(7,5,10,9)      =         3.140323	     179.927252
	 D(7,12,8,21)     =         3.139471	     179.878453
	 D(8,6,10,9)      =        -3.140469	    -179.935605
	 D(8,12,7,20)     =         3.140025	     179.910195
	 D(9,3,1,14)      =        -3.141002	    -179.966136
	 D(9,10,5,18)     =         0.000580	       0.033234
	 D(9,10,6,19)     =         0.001944	       0.111355
	 D(9,11,4,17)     =         3.141128	     179.973370
	 D(10,5,7,12)     =         0.000365	       0.020932
	 D(10,5,7,20)     =        -3.139717	    -179.892533
	 D(10,6,8,12)     =        -0.000050	      -0.002890
	 D(10,6,8,21)     =        -3.139442	    -179.876756
	 D(10,9,3,16)     =        -0.000731	      -0.041910
	 D(10,9,11,13)    =         0.001660	       0.095099
	 D(11,4,2,15)     =         3.141165	     179.975516
	 D(11,9,3,16)     =         3.140927	     179.961888
	 D(12,7,5,18)     =         3.140138	     179.916641
	 D(12,8,6,19)     =         3.140734	     179.950824
	 D(13,11,4,17)    =        -0.002330	      -0.133484
	 D(14,1,2,15)     =        -0.000488	      -0.027988
	 D(14,1,3,16)     =         0.001563	       0.089566
	 D(15,2,4,17)     =         0.000339	       0.019443
	 D(18,5,7,20)     =         0.000055	       0.003177
	 D(19,6,8,21)     =         0.001343	       0.076958
	 R(5,13)          =         4.988784	       2.639951

	Current energy   :      -577.7219560978

	Generating empirical Hessian (Schlegel '84) for each fragment.
	Adding user-defined constraint: Fragment 1; Coordinate 67:
		Value =     2.617591; Fixed value    =     2.617994
		Force =     0.000202; Force constant =     0.500000
	Removing off-diagonal coupling between coordinate 67 and others.
	Taking RFO optimization step.
	Going to follow RFO solution 1.
	Using RFO vector 1.

	Determining step-restricting scale parameter for RS-RFO.
	Maximum step size allowed    0.10000

	 Iter      |step|        alpha        rfo_root  
	------------------------------------------------
	    0     0.32833       1.00000           1
	    1     0.22153       4.09665           1
	    2     0.16006      11.20000           1
	    3     0.12443      24.09533           1
	    4     0.10636      38.27545           1
	    5     0.10061      44.90264           1
	    6     0.10001      45.68267           1
	------------------------------------------------
	Norm of target step-size    0.10001
	Projected energy change by RFO approximation:        -0.0050162290

	Back-transformation to cartesian coordinates...
	Could not converge backtransformation.
	Using first guess instead.

	--- Internal Coordinate Step in ANG or DEG, aJ/ANG or AJ/DEG ---
	 ---------------------------------------------------------------------------
	   Coordinate                Previous        Force       Change         New 
	   ----------                --------       ------       ------       ------
	    1 R(1,2)          =      1.394038    -0.047097    -0.004497     1.389541
	    2 R(1,3)          =      1.394891    -0.060892    -0.005646     1.389245
	    3 R(1,14)         =      1.086619    -0.044137    -0.004932     1.081687
	    4 R(2,4)          =      1.394821    -0.073146    -0.006995     1.387826
	    5 R(2,15)         =      1.086434    -0.045143    -0.005022     1.081412
	    6 R(3,9)          =      1.394821    -0.005463    -0.000167     1.394654
	    7 R(3,16)         =      1.087437    -0.057127    -0.006391     1.081046
	    8 R(4,11)         =      1.395407    -0.112217    -0.010444     1.384964
	    9 R(4,17)         =      1.086343    -0.043834    -0.004786     1.081557
	   10 R(5,7)          =      1.385450     0.004023     0.000390     1.385841
	   11 R(5,10)         =      1.391217     0.013342     0.001775     1.392993
	   12 R(5,18)         =      1.084876    -0.075340    -0.008330     1.076545
	   13 R(6,8)          =      1.385391    -0.006039    -0.000590     1.384801
	   14 R(6,10)         =      1.390729     0.005954     0.001138     1.391867
	   15 R(6,19)         =      1.084967    -0.042195    -0.004663     1.080304
	   16 R(7,12)         =      1.351919    -0.121203    -0.010445     1.341474
	   17 R(7,20)         =      1.085380    -0.026047    -0.002900     1.082480
	   18 R(8,12)         =      1.351592    -0.123578    -0.010686     1.340906
	   19 R(8,21)         =      1.085031    -0.023037    -0.002547     1.082484
	   20 R(9,10)         =      1.447032     0.135175     0.014722     1.461754
	   21 R(9,11)         =      1.394521    -0.048581    -0.003920     1.390601
	   22 R(11,13)        =      1.341207    -0.020278    -0.001566     1.339641
	   23 B(1,2,4)        =    120.009056     0.000002    -0.021823   119.987233
	   24 B(1,2,15)       =    120.018646     0.000091     0.193425   120.212071
	   25 B(1,3,9)        =    119.959722     0.000396     0.734913   120.694634
	   26 B(1,3,16)       =    119.122177     0.000020     0.062302   119.184480
	   27 B(2,1,3)        =    120.031219    -0.000049    -0.073137   119.958082
	   28 B(2,1,14)       =    119.995189     0.000021     0.029414   120.024604
	   29 B(2,4,11)       =    119.994870    -0.000274    -0.486484   119.508386
	   30 B(2,4,17)       =    120.042665     0.000286     0.537230   120.579895
	   31 B(3,1,14)       =    119.973570     0.000028     0.043745   120.017315
	   32 B(3,9,10)       =    119.778448     0.000861     1.255175   121.033623
	   33 B(3,9,11)       =    120.045019    -0.001043    -1.685985   118.359034
	   34 B(4,2,15)       =    119.972298    -0.000093    -0.171606   119.800692
	   35 B(4,11,9)       =    119.960108     0.000968     1.532433   121.492541
	   36 B(4,11,13)      =    119.236128    -0.000169    -0.349722   118.886406
	   37 B(5,7,12)       =    124.071908     0.000124     0.158270   124.230178
	   38 B(5,7,20)       =    120.728718    -0.000119    -0.192077   120.536642
	   39 B(5,10,6)       =    119.715774    -0.001033    -1.576834   118.138940
	   40 B(5,10,9)       =    120.142693     0.000532     0.889159   121.031852
	   41 B(6,8,12)       =    124.050841     0.000006    -0.062895   123.987946
	   42 B(6,8,21)       =    120.750081    -0.000065    -0.091289   120.658792
	   43 B(6,10,9)       =    120.141515     0.000501     0.687498   120.829013
	   44 B(7,5,10)       =    117.876379     0.000318     0.618263   118.494642
	   45 B(7,5,18)       =    120.296340    -0.000253    -0.498709   119.797631
	   46 B(7,12,8)       =    116.365875     0.000094    -0.035449   116.330426
	   47 B(8,6,10)       =    117.919219     0.000492     0.898547   118.817765
	   48 B(8,6,19)       =    120.351730    -0.000222    -0.405336   119.946395
	   49 B(9,3,16)       =    120.918077    -0.000416    -0.797791   120.120286
	   50 B(9,11,13)      =    120.803676    -0.000799    -1.183081   119.620595
	   51 B(10,5,18)      =    121.827195    -0.000065    -0.120075   121.707120
	   52 B(10,6,19)      =    121.729034    -0.000270    -0.493405   121.235629
	   53 B(10,9,11)      =    120.176533     0.000182     0.430536   120.607069
	   54 B(11,4,17)      =    119.962450    -0.000012    -0.050803   119.911648
	   55 B(12,7,20)      =    115.199322    -0.000005     0.033842   115.233164
	   56 B(12,8,21)      =    115.198968     0.000059     0.154293   115.353261
	   57 D(1,2,4,11)     =     -0.018609     0.000004     0.064435     0.045826
	   58 D(1,2,4,17)     =   -179.974682     0.000007     0.117476  -179.857205
	   59 D(1,3,9,10)     =   -179.985190    -0.000005    -0.096980  -180.082170
	   60 D(1,3,9,11)     =      0.018608     0.000004     0.088404     0.107012
	   61 D(2,1,3,9)      =     -0.019945    -0.000004    -0.073907    -0.093852
	   62 D(2,1,3,16)     =   -179.964243     0.000011     0.151799  -179.812444
	   63 D(2,4,11,9)     =      0.017261    -0.000004    -0.048549    -0.031287
	   64 D(2,4,11,13)    =    179.910408     0.000021     0.305615   180.216023
	   65 D(3,1,2,4)      =      0.019955     0.000000    -0.003965     0.015989
	   66 D(3,1,2,15)     =   -179.974167     0.000001     0.013073  -179.961094
	   67 D(3,9,10,5)     =    149.976892    -0.000019    -0.175065   149.801827
	   68 D(3,9,10,6)     =    -30.071253    -0.000026    -0.290108   -30.361361
	   69 D(3,9,11,4)     =     -0.017270     0.000000    -0.027275    -0.044545
	   70 D(3,9,11,13)    =   -179.908714    -0.000025    -0.384923  -180.293636
	   71 D(4,2,1,14)     =    179.966134     0.000004     0.046400   180.012534
	   72 D(4,11,9,10)    =    179.986543     0.000009     0.157256   180.143799
	   73 D(5,7,12,8)     =     -0.007596     0.000006     0.086870     0.079274
	   74 D(5,10,6,8)     =      0.016455    -0.000004    -0.060551    -0.044096
	   75 D(5,10,6,19)    =   -179.936584    -0.000020    -0.274638  -180.211222
	   76 D(5,10,9,11)    =    -30.026910    -0.000028    -0.364689   -30.391599
	   77 D(6,8,12,7)     =     -0.001746    -0.000001    -0.012189    -0.013935
	   78 D(6,10,5,7)     =     -0.024808     0.000009     0.127363     0.102555
	   79 D(6,10,5,18)    =   -179.918825    -0.000020    -0.262680  -180.181506
	   80 D(6,10,9,11)    =    149.924944    -0.000035    -0.479732   149.445213
	   81 D(7,5,10,9)     =    179.927252     0.000003     0.016391   179.943643
	   82 D(7,12,8,21)    =    179.878453     0.000007     0.096317   179.974771
	   83 D(8,6,10,9)     =   -179.935605     0.000002     0.050085  -179.885521
	   84 D(8,12,7,20)    =    179.910195     0.000010     0.123840   180.034035
	   85 D(9,3,1,14)     =   -179.966136    -0.000008    -0.124261  -180.090397
	   86 D(9,10,5,18)    =      0.033234    -0.000026    -0.373652    -0.340418
	   87 D(9,10,6,19)    =      0.111355    -0.000014    -0.164002    -0.052647
	   88 D(9,11,4,17)    =    179.973370    -0.000008    -0.100969   179.872401
	   89 D(10,5,7,12)    =      0.020932    -0.000010    -0.146845    -0.125913
	   90 D(10,5,7,20)    =   -179.892533    -0.000014    -0.185868  -180.078401
	   91 D(10,6,8,12)    =     -0.002890    -0.000000     0.001594    -0.001296
	   92 D(10,6,8,21)    =   -179.876756    -0.000008    -0.112675  -179.989431
	   93 D(10,9,3,16)    =     -0.041910    -0.000021    -0.324297    -0.366207
	   94 D(10,9,11,13)   =      0.095099    -0.000016    -0.200392    -0.105293
	   95 D(11,4,2,15)    =    179.975516     0.000004     0.047489   180.023004
	   96 D(11,9,3,16)    =    179.961888    -0.000012    -0.138913   179.822975
	   97 D(12,7,5,18)    =    179.916641     0.000018     0.235928   180.152569
	   98 D(12,8,6,19)    =    179.950824     0.000015     0.212797   180.163622
	   99 D(13,11,4,17)   =     -0.133484     0.000017     0.253195     0.119711
	  100 D(14,1,2,15)    =     -0.027988     0.000005     0.063438     0.035450
	  101 D(14,1,3,16)    =      0.089566     0.000008     0.101445     0.191011
	  102 D(15,2,4,17)    =      0.019443     0.000007     0.100530     0.119973
	  103 D(18,5,7,20)    =      0.003177     0.000014     0.196905     0.200081
	  104 D(19,6,8,21)    =      0.076958     0.000007     0.098529     0.175486
	  105 R(5,13)         =      2.639951     0.082468     0.020241     2.660192
	 ---------------------------------------------------------------------------
	Successfully symmetrized geometry.
	 Forces used to impose fixed constraints are not included.
	  Forces zeroed: 67 

  ==> Convergence Check <==

  Measures of convergence in internal coordinates in au.
  Criteria marked as inactive (o), active & met (*), and active & unmet ( ).
  --------------------------------------------------------------------------------------------- ~
   Step     Total Energy     Delta E     MAX Force     RMS Force      MAX Disp      RMS Disp    ~
  --------------------------------------------------------------------------------------------- ~
    Convergence Criteria    1.00e-06 *    3.00e-04 *             o    1.20e-03 *             o  ~
  --------------------------------------------------------------------------------------------- ~
      1    -577.72195610   -5.78e+02      1.64e-02      4.94e-03 o    3.83e-02      9.77e-03 o  ~
  ---------------------------------------------------------------------------------------------

	Writing optimization data to binary file.
	Structure for next step:
	Cartesian Geometry (in Angstrom)
	    C    -1.3870195137   0.8559074012  -2.6711994848
	    C    -2.4612715135   1.4214171410  -1.9951784657
	    C    -0.3524560786   0.2637081021  -1.9577701741
	    C    -2.4997894190   1.3945527295  -0.6081467527
	    C     1.0479684323   0.0634310564   1.4657726563
	    C     1.4251486790  -1.4605567659  -0.3346979314
	    C     2.0834136880  -0.5662734617   2.1379927609
	    C     2.4418604249  -2.0205898609   0.4205064364
	    C    -0.3767250834   0.2306439709  -0.5637190593
	    C     0.7069522207  -0.3920760376   0.1942973223
	    C    -1.4617233708   0.8023839538   0.0917671270
	    N     2.7865274531  -1.5969504590   1.6451545179
	    F    -1.5137726343   0.7795594263   1.4302021692
	    H    -1.3562813638   0.8766859928  -3.7522500130
	    H    -3.2691099151   1.8829082451  -2.5464266652
	    H     0.4786635697  -0.1697452111  -2.4963038399
	    H    -3.3323751019   1.8297843081  -0.0722920718
	    H     0.5325435443   0.8874401726   1.9286933609
	    H     1.2006351214  -1.8560762603  -1.3146038076
	    H     2.3767433112  -0.2384996451   3.1270760239
	    H     3.0195100352  -2.8523956403   0.0381561387
			--------------------------
			 OPTKING Finished Execution 
			--------------------------

    Structure for next step:
    Molecular point group: c1
    Full point group: C1

    Geometry (in Angstrom), charge = 0, multiplicity = 1:

    C           -1.386468167959     0.856360023304    -2.666787864089
    C           -2.460720167745     1.421869763067    -1.990766845037
    C           -0.351904732855     0.264160724215    -1.953358553421
    C           -2.499238073250     1.395005351549    -0.603735132029
    C            1.048519778048     0.063883678519     1.470184277024
    C            1.425700024770    -1.460104143834    -0.330286310645
    C            2.083965033815    -0.565820839639     2.142404381600
    C            2.442411770665    -2.020137238774     0.424918057073
    C           -0.376173737627     0.231096592960    -0.559307438552
    C            0.707503566487    -0.391623415477     0.198708943019
    C           -1.461172025006     0.802836575891     0.096178747684
    N            2.787078798893    -1.596497836892     1.649566138650
    F           -1.513221288535     0.780012048401     1.434613789920
    H           -1.355730017980     0.877138614886    -3.747838392258
    H           -3.268558569276     1.883360867199    -2.542015044451
    H            0.479214915491    -0.169292589048    -2.491892219148
    H           -3.331823756087     1.830236930201    -0.067880451053
    H            0.533094890106     0.887892794631     1.933104981574
    H            1.201186467161    -1.855623638226    -1.310192186904
    H            2.377294657008    -0.238047023060     3.131487644620
    H            3.020061380961    -2.851943018237     0.042567759362

gradient() will perform analytic gradient computation.

*** tstart() called on gpu-1-12.local
*** at Sat Nov 11 18:50:08 2017

    SCF Algorithm Type (re)set to DF.

*** tstart() called on gpu-1-12.local
*** at Sat Nov 11 18:50:08 2017

   => Loading Basis Set <=

    Name: AUG-CC-PVTZ
    Role: ORBITAL
    Keyword: BASIS
    atoms 1-11  entry C          line   221 file /cbio/jclab/home/chayas/anaconda/envs/py35/share/psi4/basis/aug-cc-pvtz.gbs 
    atoms 12    entry N          line   267 file /cbio/jclab/home/chayas/anaconda/envs/py35/share/psi4/basis/aug-cc-pvtz.gbs 
    atoms 13    entry F          line   359 file /cbio/jclab/home/chayas/anaconda/envs/py35/share/psi4/basis/aug-cc-pvtz.gbs 
    atoms 14-21 entry H          line    34 file /cbio/jclab/home/chayas/anaconda/envs/py35/share/psi4/basis/aug-cc-pvtz.gbs 


         ---------------------------------------------------------
                                   SCF
            by Justin Turney, Rob Parrish, and Andy Simmonett
                              RHF Reference
                        8 Threads,   4768 MiB Core
         ---------------------------------------------------------

  ==> Geometry <==

    Molecular point group: c1
    Full point group: C1

    Geometry (in Angstrom), charge = 0, multiplicity = 1:

       Center              X                  Y                   Z               Mass       
    ------------   -----------------  -----------------  -----------------  -----------------
           C         -1.386468167959     0.856360023304    -2.666787864089    12.000000000000
           C         -2.460720167745     1.421869763067    -1.990766845037    12.000000000000
           C         -0.351904732855     0.264160724215    -1.953358553421    12.000000000000
           C         -2.499238073250     1.395005351549    -0.603735132029    12.000000000000
           C          1.048519778048     0.063883678519     1.470184277024    12.000000000000
           C          1.425700024770    -1.460104143834    -0.330286310645    12.000000000000
           C          2.083965033815    -0.565820839639     2.142404381600    12.000000000000
           C          2.442411770665    -2.020137238774     0.424918057073    12.000000000000
           C         -0.376173737627     0.231096592960    -0.559307438552    12.000000000000
           C          0.707503566487    -0.391623415477     0.198708943019    12.000000000000
           C         -1.461172025006     0.802836575891     0.096178747684    12.000000000000
           N          2.787078798893    -1.596497836892     1.649566138650    14.003074004780
           F         -1.513221288535     0.780012048401     1.434613789920    18.998403224000
           H         -1.355730017980     0.877138614886    -3.747838392258     1.007825032070
           H         -3.268558569276     1.883360867199    -2.542015044451     1.007825032070
           H          0.479214915491    -0.169292589048    -2.491892219148     1.007825032070
           H         -3.331823756087     1.830236930201    -0.067880451053     1.007825032070
           H          0.533094890106     0.887892794631     1.933104981574     1.007825032070
           H          1.201186467161    -1.855623638226    -1.310192186904     1.007825032070
           H          2.377294657008    -0.238047023060     3.131487644620     1.007825032070
           H          3.020061380961    -2.851943018237     0.042567759362     1.007825032070

  Running in c1 symmetry.

  Rotational constants: A =      0.06495  B =      0.01831  C =      0.01467 [cm^-1]
  Rotational constants: A =   1947.29874  B =    549.03863  C =    439.79566 [MHz]
  Nuclear repulsion =  717.696373136016177

  Charge       = 0
  Multiplicity = 1
  Electrons    = 90
  Nalpha       = 45
  Nbeta        = 45

  ==> Algorithm <==

  SCF Algorithm Type is DF.
  DIIS enabled.
  MOM disabled.
  Fractional occupation disabled.
  Guess Type is READ.
  Energy threshold   = 1.00e-10
  Density threshold  = 1.00e-10
  Integral threshold = 0.00e+00

  ==> Primary Basis <==

  Basis Set: AUG-CC-PVTZ
    Blend: AUG-CC-PVTZ
    Number of shells: 254
    Number of basis function: 782
    Number of Cartesian functions: 915
    Spherical Harmonics?: true
    Max angular momentum: 3

   => Loading Basis Set <=

    Name: (AUG-CC-PVTZ AUX)
    Role: JKFIT
    Keyword: DF_BASIS_SCF
    atoms 1-11  entry C          line   161 file /cbio/jclab/home/chayas/anaconda/envs/py35/share/psi4/basis/aug-cc-pvtz-jkfit.gbs 
    atoms 12    entry N          line   223 file /cbio/jclab/home/chayas/anaconda/envs/py35/share/psi4/basis/aug-cc-pvtz-jkfit.gbs 
    atoms 13    entry F          line   347 file /cbio/jclab/home/chayas/anaconda/envs/py35/share/psi4/basis/aug-cc-pvtz-jkfit.gbs 
    atoms 14-21 entry H          line    69 file /cbio/jclab/home/chayas/anaconda/envs/py35/share/psi4/basis/aug-cc-pvtz-jkfit.gbs 

  Reading orbitals from file 180, no projection.

  ==> Pre-Iterations <==

   -------------------------------------------------------
    Irrep   Nso     Nmo     Nalpha   Nbeta   Ndocc  Nsocc
   -------------------------------------------------------
     A        782     782       0       0       0       0
   -------------------------------------------------------
    Total     782     782      45      45      45       0
   -------------------------------------------------------

  ==> Integral Setup <==

  ==> DFJK: Density-Fitted J/K Matrices <==

    J tasked:                  Yes
    K tasked:                  Yes
    wK tasked:                  No
    OpenMP threads:              8
    Integrals threads:           8
    Memory (MB):              3576
    Algorithm:                Disk
    Integral Cache:           NONE
    Schwarz Cutoff:          1E-12
    Fitting Condition:       1E-12

   => Auxiliary Basis Set <=

  Basis Set: (AUG-CC-PVTZ AUX)
    Blend: AUG-CC-PVTZ-JKFIT
    Number of shells: 502
    Number of basis function: 1720
    Number of Cartesian functions: 2143
    Spherical Harmonics?: true
    Max angular momentum: 4

  Minimum eigenvalue in the overlap matrix is 6.1812571721E-07.
  Using Symmetric Orthogonalization.

  SCF Guess: Orbitals guess was supplied from a previous computation.

  ==> Iterations <==

                           Total Energy        Delta E     RMS |[F,P]|

   @DF-RHF iter   0:  -575.39212698537222   -5.75392e+02   5.37994e-04 
   @DF-RHF iter   1:  -575.28474470663093    1.07382e-01   1.08146e-04 
   @DF-RHF iter   2:  -575.28533599246566   -5.91286e-04   1.11944e-04 DIIS
   @DF-RHF iter   3:  -575.28581810719777   -4.82115e-04   1.20388e-05 DIIS
   @DF-RHF iter   4:  -575.28582753500677   -9.42781e-06   3.47425e-06 DIIS
   @DF-RHF iter   5:  -575.28582955942272   -2.02442e-06   1.26786e-06 DIIS
   @DF-RHF iter   6:  -575.28582991651456   -3.57092e-07   9.85030e-07 DIIS
   @DF-RHF iter   7:  -575.28583005464748   -1.38133e-07   2.26717e-07 DIIS
   @DF-RHF iter   8:  -575.28583008992564   -3.52782e-08   8.05157e-08 DIIS
   @DF-RHF iter   9:  -575.28583009338513   -3.45949e-09   5.25988e-08 DIIS
   @DF-RHF iter  10:  -575.28583009374449   -3.59364e-10   8.95835e-09 DIIS
   @DF-RHF iter  11:  -575.28583009377530   -3.08091e-11   3.62363e-09 DIIS
   @DF-RHF iter  12:  -575.28583009377883   -3.52429e-12   1.74397e-09 DIIS
   @DF-RHF iter  13:  -575.28583009378110   -2.27374e-12   7.21591e-10 DIIS
   @DF-RHF iter  14:  -575.28583009378099    1.13687e-13   2.98203e-10 DIIS
   @DF-RHF iter  15:  -575.28583009378201   -1.02318e-12   9.68580e-11 DIIS

  ==> Post-Iterations <==

    Orbital Energies (a.u.)
    -----------------------

    Doubly Occupied:                                                      

       1A    -26.323627     2A    -15.562707     3A    -11.340764  
       4A    -11.272426     5A    -11.270625     6A    -11.268636  
       7A    -11.263051     8A    -11.258265     9A    -11.257832  
      10A    -11.253574    11A    -11.249346    12A    -11.239613  
      13A    -11.234774    14A     -1.646275    15A     -1.255292  
      16A     -1.186344    17A     -1.114538    18A     -1.039812  
      19A     -1.033116    20A     -1.028685    21A     -0.893399  
      22A     -0.875563    23A     -0.845683    24A     -0.826434  
      25A     -0.759344    26A     -0.724464    27A     -0.721611  
      28A     -0.711660    29A     -0.672258    30A     -0.661497  
      31A     -0.651692    32A     -0.626121    33A     -0.611880  
      34A     -0.596168    35A     -0.589575    36A     -0.551249  
      37A     -0.541374    38A     -0.524585    39A     -0.519277  
      40A     -0.506572    41A     -0.418416    42A     -0.411535  
      43A     -0.354981    44A     -0.347823    45A     -0.328868  

    Virtual:                                                              

      46A      0.023386    47A      0.029281    48A      0.033867  
      49A      0.039408    50A      0.043620    51A      0.046635  
      52A      0.056004    53A      0.057280    54A      0.065343  
      55A      0.079074    56A      0.082877    57A      0.086179  
      58A      0.091457    59A      0.094636    60A      0.099901  
      61A      0.104197    62A      0.107329    63A      0.108683  
      64A      0.114318    65A      0.115398    66A      0.117062  
      67A      0.118637    68A      0.121447    69A      0.130857  
      70A      0.131694    71A      0.134098    72A      0.137683  
      73A      0.139545    74A      0.142368    75A      0.146461  
      76A      0.149502    77A      0.151428    78A      0.154761  
      79A      0.162559    80A      0.168048    81A      0.174895  
      82A      0.175166    83A      0.179616    84A      0.184054  
      85A      0.187980    86A      0.199684    87A      0.204803  
      88A      0.215895    89A      0.223251    90A      0.223842  
      91A      0.227754    92A      0.228330    93A      0.231644  
      94A      0.239905    95A      0.242436    96A      0.246367  
      97A      0.249761    98A      0.253090    99A      0.259725  
     100A      0.264816   101A      0.266913   102A      0.268500  
     103A      0.275492   104A      0.284008   105A      0.285406  
     106A      0.289783   107A      0.292616   108A      0.297142  
     109A      0.299953   110A      0.303548   111A      0.311110  
     112A      0.314318   113A      0.315782   114A      0.318469  
     115A      0.321967   116A      0.328931   117A      0.336471  
     118A      0.338129   119A      0.340253   120A      0.346767  
     121A      0.351713   122A      0.355592   123A      0.364145  
     124A      0.367173   125A      0.377757   126A      0.380917  
     127A      0.382810   128A      0.389614   129A      0.396433  
     130A      0.402934   131A      0.412036   132A      0.412547  
     133A      0.417264   134A      0.422715   135A      0.428993  
     136A      0.431827   137A      0.433833   138A      0.437324  
     139A      0.440318   140A      0.446383   141A      0.447509  
     142A      0.453897   143A      0.456977   144A      0.461498  
     145A      0.466526   146A      0.469432   147A      0.473691  
     148A      0.475930   149A      0.477672   150A      0.484082  
     151A      0.488895   152A      0.494044   153A      0.496052  
     154A      0.499840   155A      0.502758   156A      0.505287  
     157A      0.507793   158A      0.509420   159A      0.511623  
     160A      0.521171   161A      0.523913   162A      0.525087  
     163A      0.528700   164A      0.532049   165A      0.533833  
     166A      0.536884   167A      0.540976   168A      0.543778  
     169A      0.547724   170A      0.551363   171A      0.558537  
     172A      0.559563   173A      0.573262   174A      0.574808  
     175A      0.580043   176A      0.584574   177A      0.590339  
     178A      0.602050   179A      0.607639   180A      0.609038  
     181A      0.617899   182A      0.624122   183A      0.630803  
     184A      0.637148   185A      0.646281   186A      0.647513  
     187A      0.653495   188A      0.665734   189A      0.676734  
     190A      0.682236   191A      0.688645   192A      0.692087  
     193A      0.700223   194A      0.704341   195A      0.706334  
     196A      0.707864   197A      0.719203   198A      0.724596  
     199A      0.727127   200A      0.738779   201A      0.739848  
     202A      0.743557   203A      0.745114   204A      0.750132  
     205A      0.753633   206A      0.768677   207A      0.772233  
     208A      0.778424   209A      0.780525   210A      0.789878  
     211A      0.803327   212A      0.804361   213A      0.808960  
     214A      0.819948   215A      0.824756   216A      0.835286  
     217A      0.842844   218A      0.851443   219A      0.855902  
     220A      0.858310   221A      0.864868   222A      0.871866  
     223A      0.872572   224A      0.878462   225A      0.883303  
     226A      0.884984   227A      0.886893   228A      0.887657  
     229A      0.893518   230A      0.906122   231A      0.907206  
     232A      0.911690   233A      0.914516   234A      0.920632  
     235A      0.923619   236A      0.929839   237A      0.938077  
     238A      0.944320   239A      0.948706   240A      0.955009  
     241A      0.958878   242A      0.965461   243A      0.968717  
     244A      0.973767   245A      0.978210   246A      0.984495  
     247A      0.989294   248A      0.990754   249A      0.991500  
     250A      1.000265   251A      1.008070   252A      1.010376  
     253A      1.014030   254A      1.018083   255A      1.025221  
     256A      1.027140   257A      1.029298   258A      1.036496  
     259A      1.043533   260A      1.045072   261A      1.049227  
     262A      1.062401   263A      1.066359   264A      1.068082  
     265A      1.071255   266A      1.075533   267A      1.076299  
     268A      1.084727   269A      1.088012   270A      1.089002  
     271A      1.094802   272A      1.099432   273A      1.107006  
     274A      1.109375   275A      1.118634   276A      1.123460  
     277A      1.126693   278A      1.136087   279A      1.137345  
     280A      1.145490   281A      1.147015   282A      1.159955  
     283A      1.168417   284A      1.173170   285A      1.176521  
     286A      1.179467   287A      1.184725   288A      1.187273  
     289A      1.188594   290A      1.198578   291A      1.201005  
     292A      1.202762   293A      1.206994   294A      1.211538  
     295A      1.216308   296A      1.218367   297A      1.228732  
     298A      1.236422   299A      1.238280   300A      1.249142  
     301A      1.260846   302A      1.263282   303A      1.269017  
     304A      1.275146   305A      1.285537   306A      1.288655  
     307A      1.293556   308A      1.297855   309A      1.300776  
     310A      1.314490   311A      1.318602   312A      1.324671  
     313A      1.330456   314A      1.336996   315A      1.352952  
     316A      1.359619   317A      1.363770   318A      1.368038  
     319A      1.377268   320A      1.388845   321A      1.392729  
     322A      1.406075   323A      1.410068   324A      1.420768  
     325A      1.423086   326A      1.426332   327A      1.433119  
     328A      1.439095   329A      1.451187   330A      1.473727  
     331A      1.476382   332A      1.489869   333A      1.494209  
     334A      1.498687   335A      1.508680   336A      1.513253  
     337A      1.523854   338A      1.527051   339A      1.542943  
     340A      1.546219   341A      1.554466   342A      1.562189  
     343A      1.576695   344A      1.582092   345A      1.592642  
     346A      1.596405   347A      1.603107   348A      1.616247  
     349A      1.623659   350A      1.635567   351A      1.645933  
     352A      1.655710   353A      1.657322   354A      1.665159  
     355A      1.674446   356A      1.677619   357A      1.693206  
     358A      1.699988   359A      1.710196   360A      1.711462  
     361A      1.720324   362A      1.725351   363A      1.737010  
     364A      1.738687   365A      1.741260   366A      1.749609  
     367A      1.756995   368A      1.773837   369A      1.780691  
     370A      1.787160   371A      1.795493   372A      1.802797  
     373A      1.808641   374A      1.818621   375A      1.822895  
     376A      1.831377   377A      1.836306   378A      1.846896  
     379A      1.861572   380A      1.865603   381A      1.874563  
     382A      1.881218   383A      1.896303   384A      1.900027  
     385A      1.918623   386A      1.925598   387A      1.931438  
     388A      1.941861   389A      1.949274   390A      1.951647  
     391A      1.965631   392A      1.967269   393A      1.979193  
     394A      1.986235   395A      1.990455   396A      1.995928  
     397A      1.999589   398A      2.012968   399A      2.020005  
     400A      2.025866   401A      2.028982   402A      2.037820  
     403A      2.045734   404A      2.050594   405A      2.054141  
     406A      2.066722   407A      2.073279   408A      2.082288  
     409A      2.088279   410A      2.094625   411A      2.097341  
     412A      2.111889   413A      2.113713   414A      2.126519  
     415A      2.131483   416A      2.133622   417A      2.143969  
[...]
	 R(5,10)          =         2.632560	       1.393091
	 R(5,18)          =         2.034692	       1.076713
	 R(6,8)           =         2.616790	       1.384746
	 R(6,10)          =         2.633344	       1.393506
	 R(6,19)          =         2.039231	       1.079115
	 R(7,12)          =         2.522208	       1.334695
	 R(7,20)          =         2.042649	       1.080923
	 R(8,12)          =         2.522612	       1.334909
	 R(8,21)          =         2.042854	       1.081032
	 R(9,10)          =         2.765650	       1.463519
	 R(9,11)          =         2.629994	       1.391733
	 R(11,13)         =         2.546397	       1.347495
	 B(1,2,4)         =         2.087960	     119.631288
	 B(1,2,15)        =         2.104653	     120.587724
	 B(1,3,9)         =         2.128804	     121.971504
	 B(1,3,16)        =         2.086075	     119.523321
	 B(2,1,3)         =         2.092499	     119.891386
	 B(2,1,14)        =         2.099378	     120.285479
	 B(2,4,11)        =         2.081235	     119.245979
	 B(2,4,17)        =         2.127454	     121.894111
	 B(3,1,14)        =         2.091280	     119.821539
	 B(3,9,10)        =         2.104635	     120.586686
	 B(3,9,11)        =         2.028134	     116.203546
	 B(4,2,15)        =         2.090572	     119.780958
	 B(4,11,9)        =         2.147656	     123.051643
	 B(4,11,13)       =         2.048449	     117.367500
	 B(5,7,12)        =         2.164314	     124.006063
	 B(5,7,20)        =         2.090495	     119.776557
	 B(5,10,6)        =         2.034318	     116.557856
	 B(5,10,9)        =         2.147467	     123.040803
	 B(6,8,12)        =         2.158666	     123.682457
	 B(6,8,21)        =         2.094174	     119.987321
	 B(6,10,9)        =         2.101334	     120.397592
	 B(7,5,10)        =         2.084986	     119.460910
	 B(7,5,18)        =         2.087584	     119.609766
	 B(7,12,8)        =         2.032812	     116.471574
	 B(8,6,10)        =         2.091091	     119.810706
	 B(8,6,19)        =         2.086078	     119.523472
	 B(9,3,16)        =         2.067714	     118.471261
	 B(9,11,13)       =         2.086671	     119.557454
	 B(10,5,18)       =         2.110293	     120.910911
	 B(10,6,19)       =         2.105653	     120.645050
	 B(10,9,11)       =         2.149528	     123.158873
	 B(11,4,17)       =         2.074463	     118.857985
	 B(12,7,20)       =         2.028375	     116.217298
	 B(12,8,21)       =         2.030322	     116.328871
	 D(1,2,4,11)      =         0.005216	       0.298861
	 D(1,2,4,17)      =        -3.127464	    -179.190498
	 D(1,3,9,10)      =         3.111088	     178.252231
	 D(1,3,9,11)      =         0.013374	       0.766258
	 D(2,1,3,9)       =        -0.006027	      -0.345331
	 D(2,1,3,16)      =        -3.110074	    -178.194088
	 D(2,4,11,9)      =         0.002843	       0.162875
	 D(2,4,11,13)     =        -3.107853	    -178.066886
	 D(3,1,2,4)       =        -0.003650	      -0.209107
	 D(3,1,2,15)      =         3.139043	     179.853912
	 D(3,9,10,5)      =         2.612603	     149.691112
	 D(3,9,10,6)      =        -0.541714	     -31.037904
	 D(3,9,11,4)      =        -0.011857	      -0.679350
	 D(3,9,11,13)     =         3.098192	     177.513330
	 D(4,2,1,14)      =        -3.137208	    -179.748771
	 D(4,11,9,10)     =        -3.108328	    -178.094093
	 D(5,7,12,8)      =         0.000292	       0.016741
	 D(5,10,6,8)      =        -0.017380	      -0.995795
	 D(5,10,6,19)     =         3.095141	     177.338535
	 D(5,10,9,11)     =        -0.576019	     -33.003449
	 D(6,8,12,7)      =         0.003927	       0.224998
	 D(6,10,5,7)      =         0.021175	       1.213253
	 D(6,10,5,18)     =         3.135418	     179.646221
	 D(6,10,9,11)     =         2.552850	     146.267535
	 D(7,5,10,9)      =        -3.132687	    -179.489723
	 D(7,12,8,21)     =        -3.130265	    -179.350949
	 D(8,6,10,9)      =         3.136137	     179.687414
	 D(8,12,7,20)     =         3.140056	     179.911940
	 D(9,3,1,14)      =         3.127569	     179.196484
	 D(9,10,5,18)     =        -0.018444	      -1.056756
	 D(9,10,6,19)     =        -0.034527	      -1.978255
	 D(9,11,4,17)     =         3.135796	     179.667855
	 D(10,5,7,12)     =        -0.013349	      -0.764865
	 D(10,5,7,20)     =         3.130134	     179.343457
	 D(10,6,8,12)     =         0.005020	       0.287640
	 D(10,6,8,21)     =         3.138954	     179.848838
	 D(10,9,3,16)     =        -0.067670	      -3.877219
	 D(10,9,11,13)    =         0.001721	       0.098586
	 D(11,4,2,15)     =        -3.137467	    -179.763644
	 D(11,9,3,16)     =         3.117800	     178.636808
	 D(12,7,5,18)     =        -3.127952	    -179.218464
	 D(12,8,6,19)     =        -3.107829	    -178.065478
	 D(13,11,4,17)    =         0.025099	       1.438095
	 D(14,1,2,15)     =         0.005485	       0.314248
	 D(14,1,3,16)     =         0.023522	       1.347728
	 D(15,2,4,17)     =         0.013038	       0.746997
	 D(18,5,7,20)     =         0.015531	       0.889858
	 D(19,6,8,21)     =         0.026105	       1.495719
	 R(5,13)          =         5.316992	       2.813631

	Current energy   :      -577.7274874380

	Energy change for the previous step:
		Projected    :        -0.0000000632
		Actual       :         0.0000003282

	Performing BFGS update.
	Previous computed or guess Hessian on step 1.
	Steps to be used in Hessian update: 6 5
	Adding user-defined constraint: Fragment 1; Coordinate 67:
		Value =     2.612603; Fixed value    =     2.617990
		Force =     0.003502; Force constant =     0.650000
	Removing off-diagonal coupling between coordinate 67 and others.
	Taking RFO optimization step.
	Going to follow RFO solution 1.
	Using RFO vector 1.
	Norm of target step-size    0.00392
	Projected energy change by RFO approximation:        -0.0000009404

	Back-transformation to cartesian coordinates...
	Successfully converged to displaced geometry.

	--- Internal Coordinate Step in ANG or DEG, aJ/ANG or AJ/DEG ---
	 ---------------------------------------------------------------------------
	   Coordinate                Previous        Force       Change         New 
	   ----------                --------       ------       ------       ------
	    1 R(1,2)          =      1.387904     0.000070     0.000008     1.387913
	    2 R(1,3)          =      1.384518    -0.000219    -0.000034     1.384484
	    3 R(1,14)         =      1.078474    -0.000146    -0.000025     1.078448
	    4 R(2,4)          =      1.385801    -0.000414    -0.000061     1.385740
	    5 R(2,15)         =      1.078759    -0.000134    -0.000023     1.078736
	    6 R(3,9)          =      1.397431     0.000047     0.000017     1.397448
	    7 R(3,16)         =      1.079202    -0.000213    -0.000034     1.079168
	    8 R(4,11)         =      1.379776     0.000068     0.000015     1.379791
	    9 R(4,17)         =      1.077932    -0.000070    -0.000012     1.077920
	   10 R(5,7)          =      1.385867    -0.000135    -0.000017     1.385849
	   11 R(5,10)         =      1.393091     0.000171     0.000025     1.393116
	   12 R(5,18)         =      1.076713    -0.000231    -0.000028     1.076685
	   13 R(6,8)          =      1.384746     0.000108     0.000016     1.384761
	   14 R(6,10)         =      1.393506    -0.000291    -0.000034     1.393472
	   15 R(6,19)         =      1.079115    -0.000207    -0.000034     1.079081
	   16 R(7,12)         =      1.334695    -0.000053    -0.000008     1.334687
	   17 R(7,20)         =      1.080923    -0.000098    -0.000017     1.080906
	   18 R(8,12)         =      1.334909    -0.000389    -0.000045     1.334864
	   19 R(8,21)         =      1.081032    -0.000079    -0.000015     1.081017
	   20 R(9,10)         =      1.463519     0.000878     0.000146     1.463665
	   21 R(9,11)         =      1.391733    -0.000302    -0.000025     1.391708
	   22 R(11,13)        =      1.347495    -0.001487    -0.000151     1.347344
	   23 B(1,2,4)        =    119.631288    -0.000000    -0.002290   119.628998
	   24 B(1,2,15)       =    120.587724     0.000001     0.004814   120.592538
	   25 B(1,3,9)        =    121.971504     0.000002     0.008056   121.979561
	   26 B(1,3,16)       =    119.523321    -0.000000    -0.000805   119.522516
	   27 B(2,1,3)        =    119.891386    -0.000002    -0.005905   119.885482
	   28 B(2,1,14)       =    120.285479     0.000001     0.004044   120.289523
	   29 B(2,4,11)       =    119.245979     0.000002     0.009851   119.255831
	   30 B(2,4,17)       =    121.894111    -0.000002    -0.007026   121.887085
	   31 B(3,1,14)       =    119.821539     0.000001     0.001963   119.823502
	   32 B(3,9,10)       =    120.586686    -0.000003    -0.017019   120.569666
	   33 B(3,9,11)       =    116.203546     0.000000    -0.002237   116.201309
	   34 B(4,2,15)       =    119.780958    -0.000001    -0.002520   119.778439
	   35 B(4,11,9)       =    123.051643    -0.000002    -0.007501   123.044142
	   36 B(4,11,13)      =    117.367500     0.000001    -0.002119   117.365381
	   37 B(5,7,12)       =    124.006063    -0.000001    -0.002422   124.003641
	   38 B(5,7,20)       =    119.776557     0.000002     0.005731   119.782288
	   39 B(5,10,6)       =    116.557856    -0.000000    -0.002336   116.555520
	   40 B(5,10,9)       =    123.040803    -0.000001     0.002320   123.043123
	   41 B(6,8,12)       =    123.682457     0.000000     0.000299   123.682756
	   42 B(6,8,21)       =    119.987321     0.000000    -0.000030   119.987291
	   43 B(6,10,9)       =    120.397592     0.000001     0.000435   120.398027
	   44 B(7,5,10)       =    119.460910     0.000000     0.002747   119.463657
	   45 B(7,5,18)       =    119.609766     0.000001     0.007436   119.617202
	   46 B(7,12,8)       =    116.471574     0.000001     0.001673   116.473247
	   47 B(8,6,10)       =    119.810706     0.000000     0.000618   119.811324
	   48 B(8,6,19)       =    119.523472     0.000000     0.001114   119.524587
	   49 B(9,3,16)       =    118.471261    -0.000001    -0.006869   118.464392
	   50 B(9,11,13)      =    119.557454     0.000001     0.010029   119.567483
	   51 B(10,5,18)      =    120.910911    -0.000001    -0.009576   120.901335
	   52 B(10,6,19)      =    120.645050    -0.000000    -0.000636   120.644414
	   53 B(10,9,11)      =    123.158873     0.000003     0.018871   123.177744
	   54 B(11,4,17)      =    118.857985    -0.000000    -0.002962   118.855023
	   55 B(12,7,20)      =    116.217298    -0.000001    -0.003228   116.214070
	   56 B(12,8,21)      =    116.328871    -0.000000    -0.000257   116.328614
	   57 D(1,2,4,11)     =      0.298861     0.000000    -0.022990     0.275871
	   58 D(1,2,4,17)     =   -179.190498     0.000000    -0.005156  -179.195654
	   59 D(1,3,9,10)     =    178.252231    -0.000001    -0.003572   178.248659
	   60 D(1,3,9,11)     =      0.766258     0.000001     0.005419     0.771677
	   61 D(2,1,3,9)      =     -0.345331    -0.000000    -0.005784    -0.351115
	   62 D(2,1,3,16)     =   -178.194088    -0.000000    -0.017797  -178.211885
	   63 D(2,4,11,9)     =      0.162875     0.000000     0.023609     0.186484
	   64 D(2,4,11,13)    =   -178.066886     0.000000     0.007910  -178.058975
	   65 D(3,1,2,4)      =     -0.209107    -0.000000     0.014519    -0.194588
	   66 D(3,1,2,15)     =    179.853912     0.000000     0.010217   179.864129
	   67 D(3,9,10,5)     =    149.691112     0.000004     0.014645   149.705757
	   68 D(3,9,10,6)     =    -31.037904     0.000003     0.056579   -30.981325
	   69 D(3,9,11,4)     =     -0.679350    -0.000001    -0.014429    -0.693779
	   70 D(3,9,11,13)    =    177.513330    -0.000001     0.001387   177.514717
	   71 D(4,2,1,14)     =   -179.748771    -0.000000    -0.000461  -179.749232
	   72 D(4,11,9,10)    =   -178.094093     0.000001    -0.004168  -178.098261
	   73 D(5,7,12,8)     =      0.016741    -0.000000    -0.047844    -0.031103
	   74 D(5,10,6,8)     =     -0.995795    -0.000001     0.001650    -0.994145
	   75 D(5,10,6,19)    =    177.338535    -0.000000     0.046219   177.384755
	   76 D(5,10,9,11)    =    -33.003449     0.000002     0.004373   -32.999076
	   77 D(6,8,12,7)     =      0.224998     0.000000     0.000363     0.225361
	   78 D(6,10,5,7)     =      1.213253     0.000000    -0.044907     1.168347
	   79 D(6,10,5,18)    =    179.646221     0.000000    -0.018736   179.627485
	   80 D(6,10,9,11)    =    146.267535     0.000001     0.046307   146.313842
	   81 D(7,5,10,9)     =   -179.489723    -0.000001    -0.004454  -179.494177
	   82 D(7,12,8,21)    =   -179.350949     0.000000    -0.001444  -179.352393
	   83 D(8,6,10,9)     =    179.687414     0.000001    -0.037679   179.649736
	   84 D(8,12,7,20)    =    179.911940     0.000000     0.066823   179.978763
	   85 D(9,3,1,14)     =    179.196484    -0.000000     0.009135   179.205619
	   86 D(9,10,5,18)    =     -1.056756    -0.000001     0.021717    -1.035039
	   87 D(9,10,6,19)    =     -1.978255     0.000001     0.006890    -1.971365
	   88 D(9,11,4,17)    =    179.667855     0.000000     0.006296   179.674152
	   89 D(10,5,7,12)    =     -0.764865     0.000000     0.071845    -0.693020
	   90 D(10,5,7,20)    =    179.343457    -0.000000    -0.046675   179.296782
	   91 D(10,6,8,12)    =      0.287640     0.000000     0.021997     0.309637
	   92 D(10,6,8,21)    =    179.848838     0.000000     0.023865   179.872703
	   93 D(10,9,3,16)    =     -3.877219    -0.000001     0.008440    -3.868779
	   94 D(10,9,11,13)   =      0.098586     0.000001     0.011648     0.110234
	   95 D(11,4,2,15)    =   -179.763644    -0.000000    -0.018719  -179.782363
	   96 D(11,9,3,16)    =    178.636808     0.000001     0.017431   178.654239
	   97 D(12,7,5,18)    =   -179.218464     0.000000     0.046283  -179.172180
	   98 D(12,8,6,19)    =   -178.065478     0.000000    -0.022041  -178.087519
	   99 D(13,11,4,17)   =      1.438095     0.000000    -0.009403     1.428692
	  100 D(14,1,2,15)    =      0.314248    -0.000000    -0.004763     0.309486
	  101 D(14,1,3,16)    =      1.347728    -0.000000    -0.002877     1.344850
	  102 D(15,2,4,17)    =      0.746997     0.000000    -0.000885     0.746112
	  103 D(18,5,7,20)    =      0.889858    -0.000000    -0.072237     0.817621
	  104 D(19,6,8,21)    =      1.495719    -0.000000    -0.020173     1.475546
	  105 R(5,13)         =      2.813631     0.000319     0.000914     2.814545
	 ---------------------------------------------------------------------------
	Successfully symmetrized geometry.
	 Forces used to impose fixed constraints are not included.
	  Forces zeroed: 67 

  ==> Convergence Check <==

  Measures of convergence in internal coordinates in au.
  Criteria marked as inactive (o), active & met (*), and active & unmet ( ).
  ---------------------------------------------------------------------------------------------
   Step     Total Energy     Delta E     MAX Force     RMS Force      MAX Disp      RMS Disp   
  ---------------------------------------------------------------------------------------------
    Convergence Criteria    1.00e-06 *    3.00e-04 *             o    1.20e-03 *             o
  ---------------------------------------------------------------------------------------------
      7    -577.72748744    3.28e-07 *    1.80e-04 *    3.64e-05 o    1.73e-03      3.83e-04 o  ~
  ---------------------------------------------------------------------------------------------


  **** Optimization is complete! (in 7 steps) ****

  ==> Optimization Summary <==

  Measures of convergence in internal coordinates in au.
  --------------------------------------------------------------------------------------------------------------- ~
   Step         Total Energy             Delta E       MAX Force       RMS Force        MAX Disp        RMS Disp  ~
  --------------------------------------------------------------------------------------------------------------- ~
      1    -577.721956097810   -577.721956097810      0.01640724      0.00494093      0.03825037      0.00977116  ~
      2    -577.725384392904     -0.003428295093      0.00809363      0.00204845      0.07138362      0.00976873  ~
      3    -577.726668029773     -0.001283636869      0.00549670      0.00081086      0.08170993      0.00976090  ~
      4    -577.727203739444     -0.000535709671      0.00315856      0.00038817      0.08282889      0.00976511  ~
      5    -577.727445570123     -0.000241830679      0.00120053      0.00017823      0.04620693      0.00519636  ~
      6    -577.727487766213     -0.000042196090      0.00043583      0.00008598      0.00782794      0.00098556  ~
      7    -577.727487438017      0.000000328196      0.00022003      0.00004225      0.00172771      0.00038295  ~
  --------------------------------------------------------------------------------------------------------------- ~

	Writing optimization data to binary file.
	Final energy is   -577.7274874380170
	Final (previous) structure:
	Cartesian Geometry (in Angstrom)
	    C    -1.3045725084   0.8461973545  -2.6968060159
	    C    -2.4240739583   1.3862051113  -2.0792412032
	    C    -0.2926651195   0.2938275094  -1.9301119470
	    C    -2.5217673230   1.3639657199  -0.6970671719
	    C     1.0690941541   0.0610134824   1.5249282878
	    C     1.4282080289  -1.4394753766  -0.2745240828
	    C     2.1016169619  -0.5785799453   2.1923436750
	    C     2.4418391045  -2.0180183568   0.4707010629
	    C    -0.3535009058   0.2651245763  -0.5343007149
	    C     0.7157280971  -0.3604366262   0.2450006896
	    C    -1.4975450339   0.8088644926   0.0422665367
	    N     2.7913970743  -1.6054443937   1.6911819885
	    F    -1.6496371031   0.7710796578   1.3806174938
	    H    -1.2157566182   0.8615093717  -3.7715074573
	    H    -3.2180671464   1.8215414100  -2.6655664807
	    H     0.5883617358  -0.0979712225  -2.4148417069
	    H    -3.3802855645   1.7612949242  -0.1803341205
	    H     0.5680650564   0.8919389620   1.9916646755
	    H     1.1805833119  -1.8473065736  -1.2424310486
	    H     2.3870801500  -0.2488424995   3.1813728752
	    H     2.9947575756  -2.8567784271   0.0714608208
	Saving final (previous) structure.
			--------------------------
			 OPTKING Finished Execution 
			--------------------------

    Final optimized geometry and variables:
    Molecular point group: c1
    Full point group: C1

    Geometry (in Angstrom), charge = 0, multiplicity = 1:

    C           -1.304572508392     0.846197354457    -2.696806015858
    C           -2.424073958265     1.386205111340    -2.079241203168
    C           -0.292665119483     0.293827509392    -1.930111947040
    C           -2.521767322959     1.363965719912    -0.697067171912
    C            1.069094154115     0.061013482447     1.524928287846
    C            1.428208028908    -1.439475376649    -0.274524082801
    C            2.101616961945    -0.578579945307     2.192343674951
    C            2.441839104499    -2.018018356773     0.470701062893
    C           -0.353500905810     0.265124576332    -0.534300714925
    C            0.715728097146    -0.360436626169     0.245000689608
    C           -1.497545033891     0.808864492589     0.042266536682
    N            2.791397074256    -1.605444393655     1.691181988509
    F           -1.649637103082     0.771079657799     1.380617493805
    H           -1.215756618178     0.861509371702    -3.771507457321
    H           -3.218067146358     1.821541409990    -2.665566480682
    H            0.588361735822    -0.097971222531    -2.414841706881
    H           -3.380285564532     1.761294924205    -0.180334120493
    H            0.568065056407     0.891938962020     1.991664675502
    H            1.180583311907    -1.847306573612    -1.242431048586
    H            2.387080149979    -0.248842499488     3.181372875181
    H            2.994757575569    -2.856778427100     0.071460820818

	Cleaning optimization helper files.

*** Psi4 exiting successfully. Buy a developer a beer!
