
    -----------------------------------------------------------------------
          Psi4: An Open-Source Ab Initio Electronic Structure Package
                               Psi4 1.1 release

                         Git: Rev {HEAD} add49b9 


    R. M. Parrish, L. A. Burns, D. G. A. Smith, A. C. Simmonett,
    A. E. DePrince III, E. G. Hohenstein, U. Bozkaya, A. Yu. Sokolov,
    R. Di Remigio, R. M. Richard, J. F. Gonthier, A. M. James,
    H. R. McAlexander, A. Kumar, M. Saitow, X. Wang, B. P. Pritchard,
    P. Verma, H. F. Schaefer III, K. Patkowski, R. A. King, E. F. Valeev,
    F. A. Evangelista, J. M. Turney, T. D. Crawford, and C. D. Sherrill,
    J. Chem. Theory Comput. in press (2017).
    (doi: 10.1021/acs.jctc.7b00174)

    -----------------------------------------------------------------------


    Psi4 started on: Sunday, 12 November 2017 02:04AM

    Process ID:  31738
    PSIDATADIR: /cbio/jclab/home/chayas/anaconda/envs/py35/share/psi4
    Memory:     500.0 MiB
    Threads:    8
    
  ==> Input File <==

--------------------------------------------------------------------------

memory 5 Gb

molecule phepyrFOH_zwitterion {
  symmetry C1
  0 1 
  C      1.885   -1.036   -0.112
  C      0.807   -0.463   0.561
  C      4.830   -1.442   -0.930
  C      4.321   -3.577   0.063
  C      1.800   -1.079   2.676
  C      5.894   -2.038   -1.592
  C      5.398   -4.119   -0.625
  C      2.921   -1.631   0.608
  C      4.038   -2.224   -0.095
  C      0.764   -0.484   1.955
  C      2.878   -1.652   2.002
  N      6.145   -3.343   -1.422
  O      -0.227   0.043   2.574
  F      3.866   -2.220   2.709
  H      1.904   -1.013   -1.200
  H      0.011   -0.007   -0.025
  H      4.632   -0.384   -1.071
  H      3.720   -4.212   0.707
  H      1.791   -1.109   3.764
  H      6.562   -1.509   -2.258
  H      5.692   -5.158   -0.563
  H      6.931   -3.761   -1.919
  units Angstrom
}

dih_string = "1 8 9 3 60"
set optking fixed_dihedral = $dih_string

optimize('MP2/aug-cc-PVTZ')
--------------------------------------------------------------------------

  Memory set to   4.657 GiB by Python driver.
gradient() will perform analytic gradient computation.

*** tstart() called on gpu-2-7.local
*** at Sun Nov 12 02:04:15 2017

    SCF Algorithm Type (re)set to DF.

*** tstart() called on gpu-2-7.local
*** at Sun Nov 12 02:04:15 2017

   => Loading Basis Set <=

    Name: AUG-CC-PVTZ
    Role: ORBITAL
    Keyword: BASIS
    atoms 1-11  entry C          line   221 file /cbio/jclab/home/chayas/anaconda/envs/py35/share/psi4/basis/aug-cc-pvtz.gbs 
    atoms 12    entry N          line   267 file /cbio/jclab/home/chayas/anaconda/envs/py35/share/psi4/basis/aug-cc-pvtz.gbs 
    atoms 13    entry O          line   313 file /cbio/jclab/home/chayas/anaconda/envs/py35/share/psi4/basis/aug-cc-pvtz.gbs 
    atoms 14    entry F          line   359 file /cbio/jclab/home/chayas/anaconda/envs/py35/share/psi4/basis/aug-cc-pvtz.gbs 
    atoms 15-22 entry H          line    34 file /cbio/jclab/home/chayas/anaconda/envs/py35/share/psi4/basis/aug-cc-pvtz.gbs 


         ---------------------------------------------------------
                                   SCF
            by Justin Turney, Rob Parrish, and Andy Simmonett
                              RHF Reference
                        8 Threads,   4768 MiB Core
         ---------------------------------------------------------

  ==> Geometry <==

    Molecular point group: c1
    Full point group: C1

    Geometry (in Angstrom), charge = 0, multiplicity = 1:

       Center              X                  Y                   Z               Mass       
    ------------   -----------------  -----------------  -----------------  -----------------
           C         -1.361528195502     0.775752877703    -0.769319394010    12.000000000000
           C         -2.439528195502     1.348752877703    -0.096319394010    12.000000000000
           C          1.583471804498     0.369752877703    -1.587319394010    12.000000000000
           C          1.074471804498    -1.765247122297    -0.594319394010    12.000000000000
           C         -1.446528195502     0.732752877703     2.018680605990    12.000000000000
           C          2.647471804498    -0.226247122297    -2.249319394010    12.000000000000
           C          2.151471804498    -2.307247122297    -1.282319394010    12.000000000000
           C         -0.325528195502     0.180752877703    -0.049319394010    12.000000000000
           C          0.791471804498    -0.412247122297    -0.752319394010    12.000000000000
           C         -2.482528195502     1.327752877703     1.297680605990    12.000000000000
           C         -0.368528195502     0.159752877703     1.344680605990    12.000000000000
           N          2.898471804498    -1.531247122297    -2.079319394010    14.003074004780
           O         -3.473528195502     1.854752877703     1.916680605990    15.994914619560
           F          0.619471804498    -0.408247122297     2.051680605990    18.998403224000
           H         -1.342528195502     0.798752877703    -1.857319394010     1.007825032070
           H         -3.235528195502     1.804752877703    -0.682319394010     1.007825032070
           H          1.385471804498     1.427752877703    -1.728319394010     1.007825032070
           H          0.473471804498    -2.400247122297     0.049680605990     1.007825032070
           H         -1.455528195502     0.702752877703     3.106680605990     1.007825032070
           H          3.315471804498     0.302752877703    -2.915319394010     1.007825032070
           H          2.445471804498    -3.346247122297    -1.220319394010     1.007825032070
           H          3.684471804498    -1.949247122297    -2.576319394010     1.007825032070

  Running in c1 symmetry.

  Rotational constants: A =      0.06297  B =      0.01324  C =      0.01178 [cm^-1]
  Rotational constants: A =   1887.79282  B =    396.87844  C =    353.18039 [MHz]
  Nuclear repulsion =  817.057434410239694

  Charge       = 0
  Multiplicity = 1
  Electrons    = 98
  Nalpha       = 49
  Nbeta        = 49

  ==> Algorithm <==

  SCF Algorithm Type is DF.
  DIIS enabled.
  MOM disabled.
  Fractional occupation disabled.
  Guess Type is SAD.
  Energy threshold   = 1.00e-10
  Density threshold  = 1.00e-10
  Integral threshold = 0.00e+00

  ==> Primary Basis <==

  Basis Set: AUG-CC-PVTZ
    Blend: AUG-CC-PVTZ
    Number of shells: 268
    Number of basis function: 828
    Number of Cartesian functions: 970
    Spherical Harmonics?: true
    Max angular momentum: 3

   => Loading Basis Set <=

    Name: (AUG-CC-PVTZ AUX)
    Role: JKFIT
    Keyword: DF_BASIS_SCF
    atoms 1-11  entry C          line   161 file /cbio/jclab/home/chayas/anaconda/envs/py35/share/psi4/basis/aug-cc-pvtz-jkfit.gbs 
    atoms 12    entry N          line   223 file /cbio/jclab/home/chayas/anaconda/envs/py35/share/psi4/basis/aug-cc-pvtz-jkfit.gbs 
    atoms 13    entry O          line   285 file /cbio/jclab/home/chayas/anaconda/envs/py35/share/psi4/basis/aug-cc-pvtz-jkfit.gbs 
    atoms 14    entry F          line   347 file /cbio/jclab/home/chayas/anaconda/envs/py35/share/psi4/basis/aug-cc-pvtz-jkfit.gbs 
    atoms 15-22 entry H          line    69 file /cbio/jclab/home/chayas/anaconda/envs/py35/share/psi4/basis/aug-cc-pvtz-jkfit.gbs 

  ==> Pre-Iterations <==

   -------------------------------------------------------
    Irrep   Nso     Nmo     Nalpha   Nbeta   Ndocc  Nsocc
   -------------------------------------------------------
     A        828     828       0       0       0       0
   -------------------------------------------------------
    Total     828     828      49      49      49       0
   -------------------------------------------------------

  ==> Integral Setup <==

  ==> DFJK: Density-Fitted J/K Matrices <==

    J tasked:                  Yes
    K tasked:                  Yes
    wK tasked:                  No
    OpenMP threads:              8
    Integrals threads:           8
    Memory (MB):              3576
    Algorithm:                Disk
    Integral Cache:           NONE
    Schwarz Cutoff:          1E-12
    Fitting Condition:       1E-12

   => Auxiliary Basis Set <=

  Basis Set: (AUG-CC-PVTZ AUX)
    Blend: AUG-CC-PVTZ-JKFIT
    Number of shells: 532
    Number of basis function: 1824
    Number of Cartesian functions: 2274
    Spherical Harmonics?: true
    Max angular momentum: 4

  Minimum eigenvalue in the overlap matrix is 7.8524426021E-07.
  Using Symmetric Orthogonalization.

  SCF Guess: Superposition of Atomic Densities via on-the-fly atomic UHF.

  ==> Iterations <==

                           Total Energy        Delta E     RMS |[F,P]|

   @DF-RHF iter   0:  -657.87000907976210   -6.57870e+02   2.44715e-02 
   @DF-RHF iter   1:  -649.63059368161339    8.23942e+00   1.88912e-03 
   @DF-RHF iter   2:  -649.93986851628301   -3.09275e-01   1.78317e-03 DIIS
   @DF-RHF iter   3:  -650.06743969362935   -1.27571e-01   5.49649e-04 DIIS
   @DF-RHF iter   4:  -650.08846687275218   -2.10272e-02   1.79156e-04 DIIS
   @DF-RHF iter   5:  -650.09188766179136   -3.42079e-03   8.29495e-05 DIIS
   @DF-RHF iter   6:  -650.09279816477465   -9.10503e-04   3.30194e-05 DIIS
   @DF-RHF iter   7:  -650.09305625624540   -2.58091e-04   1.62457e-05 DIIS
   @DF-RHF iter   8:  -650.09310810565103   -5.18494e-05   6.37911e-06 DIIS
   @DF-RHF iter   9:  -650.09312280412450   -1.46985e-05   2.81351e-06 DIIS
   @DF-RHF iter  10:  -650.09312537020003   -2.56608e-06   1.22136e-06 DIIS
   @DF-RHF iter  11:  -650.09312589245258   -5.22253e-07   5.03888e-07 DIIS
   @DF-RHF iter  12:  -650.09312597196879   -7.95162e-08   1.72695e-07 DIIS
   @DF-RHF iter  13:  -650.09312598655242   -1.45836e-08   1.02463e-07 DIIS
   @DF-RHF iter  14:  -650.09312598942108   -2.86866e-09   3.05733e-08 DIIS
   @DF-RHF iter  15:  -650.09312598965425   -2.33172e-10   1.57564e-08 DIIS
   @DF-RHF iter  16:  -650.09312598967472   -2.04636e-11   4.95216e-09 DIIS
   @DF-RHF iter  17:  -650.09312598969143   -1.67120e-11   2.02934e-09 DIIS
   @DF-RHF iter  18:  -650.09312598970382   -1.23919e-11   1.00550e-09 DIIS
   @DF-RHF iter  19:  -650.09312598969018    1.36424e-11   4.16613e-10 DIIS
   @DF-RHF iter  20:  -650.09312598968882    1.36424e-12   1.27899e-10 DIIS
   @DF-RHF iter  21:  -650.09312598971587   -2.70575e-11   6.04626e-11 DIIS

  ==> Post-Iterations <==

    Orbital Energies (a.u.)
    -----------------------

    Doubly Occupied:                                                      

       1A    -26.303118     2A    -20.412545     3A    -15.726049  
       4A    -11.375708     5A    -11.374136     6A    -11.324589  
       7A    -11.310046     8A    -11.302763     9A    -11.301656  
      10A    -11.234831    11A    -11.227759    12A    -11.212114  
      13A    -11.178279    14A    -11.177343    15A     -1.622400  
      16A     -1.405074    17A     -1.241435    18A     -1.191878  
      19A     -1.128261    20A     -1.110578    21A     -0.999975  
      22A     -0.988019    23A     -0.955465    24A     -0.913088  
      25A     -0.855828    26A     -0.822646    27A     -0.801215  
      28A     -0.756401    29A     -0.741279    30A     -0.706934  
      31A     -0.694911    32A     -0.692158    33A     -0.681790  
      34A     -0.674948    35A     -0.664877    36A     -0.616688  
      37A     -0.601522    38A     -0.586383    39A     -0.575661  
      40A     -0.532373    41A     -0.505953    42A     -0.490555  
      43A     -0.468437    44A     -0.461315    45A     -0.431080  
      46A     -0.396470    47A     -0.328907    48A     -0.314292  
      49A     -0.229974  

    Virtual:                                                              

      50A     -0.015187    51A      0.006791    52A      0.007978  
      53A      0.020094    54A      0.030879    55A      0.038530  
      56A      0.041040    57A      0.044398    58A      0.051087  
      59A      0.057641    60A      0.062833    61A      0.065374  
      62A      0.069731    63A      0.075509    64A      0.079246  
      65A      0.088803    66A      0.095717    67A      0.099847  
      68A      0.102509    69A      0.105356    70A      0.115352  
      71A      0.119640    72A      0.124529    73A      0.125433  
      74A      0.126179    75A      0.130000    76A      0.131994  
      77A      0.138394    78A      0.143444    79A      0.149328  
      80A      0.152141    81A      0.159072    82A      0.160682  
      83A      0.163541    84A      0.166934    85A      0.177060  
      86A      0.178175    87A      0.181189    88A      0.185774  
      89A      0.188881    90A      0.193034    91A      0.195491  
      92A      0.202940    93A      0.203319    94A      0.206129  
      95A      0.210925    96A      0.215152    97A      0.221483  
      98A      0.225838    99A      0.229874   100A      0.235500  
     101A      0.241610   102A      0.246812   103A      0.248930  
     104A      0.250062   105A      0.255011   106A      0.258673  
     107A      0.261009   108A      0.267223   109A      0.268733  
     110A      0.272538   111A      0.279798   112A      0.282210  
     113A      0.291578   114A      0.294689   115A      0.296107  
     116A      0.300907   117A      0.304195   118A      0.311578  
     119A      0.313712   120A      0.318936   121A      0.323390  
     122A      0.326674   123A      0.331258   124A      0.339360  
     125A      0.340697   126A      0.342750   127A      0.348550  
     128A      0.349325   129A      0.359851   130A      0.361724  
     131A      0.365488   132A      0.368237   133A      0.370209  
     134A      0.374223   135A      0.376504   136A      0.381364  
     137A      0.384366   138A      0.395265   139A      0.396783  
     140A      0.398674   141A      0.409017   142A      0.414636  
     143A      0.417565   144A      0.418913   145A      0.422942  
     146A      0.428406   147A      0.431808   148A      0.437208  
     149A      0.437319   150A      0.444044   151A      0.453640  
     152A      0.455666   153A      0.458349   154A      0.461703  
     155A      0.467514   156A      0.471143   157A      0.473851  
     158A      0.475212   159A      0.479532   160A      0.486716  
     161A      0.488316   162A      0.489616   163A      0.491833  
     164A      0.497228   165A      0.498513   166A      0.501625  
     167A      0.503224   168A      0.507743   169A      0.514765  
     170A      0.521336   171A      0.523263   172A      0.530825  
     173A      0.537528   174A      0.538544   175A      0.544005  
     176A      0.545821   177A      0.550530   178A      0.559948  
     179A      0.565097   180A      0.569905   181A      0.574906  
     182A      0.582181   183A      0.587169   184A      0.593793  
     185A      0.596495   186A      0.600412   187A      0.602764  
     188A      0.609721   189A      0.610948   190A      0.625565  
     191A      0.631635   192A      0.632738   193A      0.637230  
     194A      0.645246   195A      0.648960   196A      0.663619  
     197A      0.666174   198A      0.668939   199A      0.669595  
     200A      0.673279   201A      0.678956   202A      0.687458  
     203A      0.696845   204A      0.699649   205A      0.702799  
     206A      0.712011   207A      0.712541   208A      0.718910  
     209A      0.723795   210A      0.728033   211A      0.732347  
     212A      0.738576   213A      0.742519   214A      0.753687  
     215A      0.756247   216A      0.758707   217A      0.768931  
     218A      0.769396   219A      0.772145   220A      0.789463  
     221A      0.794784   222A      0.799252   223A      0.806929  
     224A      0.812035   225A      0.822023   226A      0.827246  
     227A      0.832002   228A      0.834582   229A      0.844803  
     230A      0.851193   231A      0.858930   232A      0.864870  
     233A      0.869969   234A      0.873281   235A      0.876864  
     236A      0.881905   237A      0.891324   238A      0.894291  
     239A      0.896320   240A      0.900297   241A      0.906950  
     242A      0.909744   243A      0.911949   244A      0.917492  
     245A      0.923102   246A      0.925547   247A      0.928303  
     248A      0.928678   249A      0.935819   250A      0.942500  
     251A      0.948927   252A      0.957964   253A      0.960938  
     254A      0.962628   255A      0.970997   256A      0.975748  
     257A      0.981151   258A      0.987238   259A      0.996254  
     260A      0.999393   261A      1.002379   262A      1.007291  
     263A      1.013847   264A      1.015844   265A      1.017299  
     266A      1.020828   267A      1.027612   268A      1.033223  
     269A      1.038851   270A      1.043993   271A      1.044489  
     272A      1.050010   273A      1.054232   274A      1.057266  
     275A      1.062057   276A      1.069735   277A      1.073662  
     278A      1.078616   279A      1.079718   280A      1.085035  
     281A      1.090359   282A      1.097692   283A      1.097931  
     284A      1.103394   285A      1.107062   286A      1.108650  
     287A      1.110446   288A      1.125171   289A      1.126605  
     290A      1.133366   291A      1.135126   292A      1.142945  
     293A      1.146216   294A      1.151456   295A      1.159327  
     296A      1.164734   297A      1.173065   298A      1.174271  
     299A      1.184579   300A      1.189454   301A      1.194192  
     302A      1.196881   303A      1.200896   304A      1.211071  
     305A      1.215465   306A      1.222552   307A      1.225675  
     308A      1.226208   309A      1.233608   310A      1.241126  
     311A      1.248308   312A      1.250426   313A      1.253017  
     314A      1.260139   315A      1.267629   316A      1.272473  
     317A      1.273895   318A      1.278377   319A      1.286151  
     320A      1.291983   321A      1.301717   322A      1.309674  
     323A      1.311884   324A      1.319727   325A      1.324119  
     326A      1.331304   327A      1.338437   328A      1.348873  
     329A      1.354813   330A      1.358108   331A      1.367038  
     332A      1.372424   333A      1.381987   334A      1.386683  
     335A      1.394831   336A      1.397255   337A      1.406403  
     338A      1.410175   339A      1.417157   340A      1.425422  
     341A      1.431864   342A      1.435440   343A      1.440022  
     344A      1.451849   345A      1.456565   346A      1.459978  
     347A      1.470369   348A      1.476149   349A      1.487117  
     350A      1.487914   351A      1.499078   352A      1.500909  
     353A      1.513143   354A      1.522125   355A      1.535752  
     356A      1.537452   357A      1.545509   358A      1.552988  
     359A      1.561646   360A      1.573936   361A      1.574944  
     362A      1.585116   363A      1.590658   364A      1.605418  
     365A      1.613314   366A      1.617010   367A      1.625157  
     368A      1.627714   369A      1.636984   370A      1.640065  
     371A      1.648306   372A      1.651017   373A      1.658786  
     374A      1.663671   375A      1.673097   376A      1.684139  
     377A      1.689160   378A      1.708674   379A      1.711806  
     380A      1.716936   381A      1.731181   382A      1.735028  
     383A      1.745792   384A      1.748503   385A      1.759407  
     386A      1.771329   387A      1.775963   388A      1.796440  
     389A      1.800028   390A      1.804798   391A      1.811033  
     392A      1.814989   393A      1.825973   394A      1.833499  
     395A      1.835610   396A      1.842221   397A      1.850674  
     398A      1.863885   399A      1.871609   400A      1.875424  
     401A      1.896927   402A      1.906834   403A      1.911722  
     404A      1.922224   405A      1.926224   406A      1.932501  
     407A      1.940960   408A      1.948524   409A      1.948763  
     410A      1.955874   411A      1.958138   412A      1.967222  
     413A      1.979301   414A      1.986582   415A      1.990742  
     416A      1.999212   417A      2.009171   418A      2.015804  
     419A      2.018315   420A      2.025835   421A      2.030772  
     422A      2.036971   423A      2.049623   424A      2.055546  
     425A      2.065026   426A      2.073576   427A      2.082717  
     428A      2.086257   429A      2.100969   430A      2.118541  
     431A      2.123360   432A      2.131736   433A      2.138442  
     434A      2.147711   435A      2.154537   436A      2.161105  
     437A      2.165849   438A      2.182907   439A      2.187951  
     440A      2.194372   441A      2.203860   442A      2.208106  
     443A      2.212942   444A      2.216262   445A      2.232280  
     446A      2.244787   447A      2.255247   448A      2.272556  
     449A      2.283233   450A      2.302476   451A      2.303783  
     452A      2.310404   453A      2.317661   454A      2.325202  
     455A      2.341825   456A      2.353080   457A      2.356365  
     458A      2.366446   459A      2.380874   460A      2.383843  
     461A      2.398937   462A      2.414810   463A      2.420802  
     464A      2.429231   465A      2.434716   466A      2.442295  
     467A      2.459931   468A      2.468771   469A      2.486864  
     470A      2.492547   471A      2.497186   472A      2.506625  
     473A      2.517310   474A      2.518078   475A      2.528278  
     476A      2.549230   477A      2.551210   478A      2.560051  
     479A      2.577189   480A      2.598141   481A      2.615672  
     482A      2.626748   483A      2.636617   484A      2.639849  
     485A      2.659164   486A      2.675329   487A      2.679235  
     488A      2.695944   489A      2.701468   490A      2.712999  
     491A      2.732979   492A      2.751061   493A      2.766691  
     494A      2.770726   495A      2.784089   496A      2.801641  
     497A      2.821797   498A      2.844884   499A      2.865980  
     500A      2.884195   501A      2.905435   502A      2.916135  
     503A      2.924908   504A      2.960963   505A      2.985710  
     506A      3.014338   507A      3.025626   508A      3.049950  
     509A      3.052735   510A      3.064463   511A      3.072931  
     512A      3.093873   513A      3.107820   514A      3.114139  
     515A      3.132605   516A      3.141637   517A      3.151846  
     518A      3.178240   519A      3.180816   520A      3.192792  
     521A      3.208874   522A      3.217772   523A      3.240389  
     524A      3.243208   525A      3.257586   526A      3.264502  
     527A      3.274800   528A      3.282873   529A      3.302309  
     530A      3.321535   531A      3.323563   532A      3.345223  
     533A      3.352854   534A      3.362150   535A      3.371712  
     536A      3.378824   537A      3.390157   538A      3.397451  
     539A      3.409798   540A      3.424787   541A      3.433898  
     542A      3.439706   543A      3.443528   544A      3.461642  
     545A      3.475656   546A      3.483171   547A      3.493133  
     548A      3.504176   549A      3.507132   550A      3.512822  
     551A      3.523506   552A      3.528645   553A      3.537014  
     554A      3.544201   555A      3.548478   556A      3.560492  
     557A      3.568354   558A      3.577556   559A      3.590975  
     560A      3.600432   561A      3.614174   562A      3.614327  
     563A      3.620443   564A      3.639682   565A      3.641003  
     566A      3.653230   567A      3.668350   568A      3.675905  
     569A      3.683148   570A      3.696442   571A      3.699629  
     572A      3.703014   573A      3.709167   574A      3.721853  
     575A      3.729572   576A      3.745044   577A      3.750821  
     578A      3.758575   579A      3.774310   580A      3.778013  
     581A      3.785474   582A      3.790473   583A      3.800458  
     584A      3.807804   585A      3.822792   586A      3.834140  
     587A      3.841616   588A      3.844149   589A      3.852731  
     590A      3.858109   591A      3.869161   592A      3.883413  
     593A      3.892660   594A      3.896854   595A      3.903073  
     596A      3.916816   597A      3.923661   598A      3.925152  
     599A      3.944109   600A      3.948542   601A      3.960654  
     602A      3.966481   603A      3.978122   604A      3.988903  
     605A      3.992701   606A      4.002790   607A      4.006561  
     608A      4.012091   609A      4.018106   610A      4.027281  
     611A      4.029574   612A      4.044607   613A      4.055156  
     614A      4.066713   615A      4.081910   616A      4.087271  
     617A      4.089111   618A      4.102323   619A      4.111272  
     620A      4.119916   621A      4.133576   622A      4.142852  
     623A      4.149213   624A      4.152242   625A      4.160708  
     626A      4.181641   627A      4.190456   628A      4.195600  
     629A      4.202310   630A      4.220205   631A      4.226393  
     632A      4.232442   633A      4.251395   634A      4.255568  
     635A      4.263559   636A      4.277836   637A      4.288634  
     638A      4.294294   639A      4.310500   640A      4.311022  
     641A      4.325746   642A      4.327967   643A      4.340227  
     644A      4.341461   645A      4.344782   646A      4.356156  
     647A      4.368867   648A      4.383515   649A      4.391164  
     650A      4.398161   651A      4.400922   652A      4.414622  
     653A      4.416440   654A      4.418501   655A      4.432296  
     656A      4.436636   657A      4.449516   658A      4.457792  
     659A      4.476713   660A      4.486193   661A      4.503949  
     662A      4.506168   663A      4.513784   664A      4.531139  
     665A      4.554826   666A      4.558511   667A      4.568824  
     668A      4.580189   669A      4.588296   670A      4.609082  
     671A      4.615297   672A      4.633401   673A      4.647306  
     674A      4.658896   675A      4.682057   676A      4.701005  
     677A      4.710849   678A      4.724173   679A      4.742457  
     680A      4.751885   681A      4.757503   682A      4.763766  
     683A      4.788122   684A      4.789533   685A      4.805364  
     686A      4.815628   687A      4.833661   688A      4.863779  
     689A      4.865997   690A      4.875350   691A      4.884942  
     692A      4.895208   693A      4.914073   694A      4.920663  
     695A      4.936842   696A      4.942172   697A      4.950213  
     698A      4.967089   699A      4.972653   700A      4.993278  
     701A      5.014230   702A      5.027222   703A      5.037233  
     704A      5.053119   705A      5.060248   706A      5.063561  
     707A      5.073070   708A      5.084666   709A      5.113197  
     710A      5.126166   711A      5.140997   712A      5.144323  
     713A      5.154115   714A      5.168945   715A      5.183326  
     716A      5.189364   717A      5.193716   718A      5.202461  
     719A      5.226798   720A      5.234112   721A      5.243760  
     722A      5.273922   723A      5.288267   724A      5.298397  
     725A      5.313986   726A      5.338569   727A      5.358989  
     728A      5.362529   729A      5.376158   730A      5.380171  
     731A      5.392153   732A      5.409220   733A      5.440934  
     734A      5.457019   735A      5.497379   736A      5.499104  
     737A      5.508147   738A      5.532134   739A      5.568246  
     740A      5.597626   741A      5.614373   742A      5.637805  
     743A      5.665793   744A      5.682561   745A      5.705696  
     746A      5.718954   747A      5.730506   748A      5.742706  
     749A      5.775226   750A      5.792549   751A      5.806735  
     752A      5.815195   753A      5.839768   754A      5.885128  
     755A      5.913550   756A      5.946069   757A      5.968816  
     758A      6.016316   759A      6.042992   760A      6.062412  
     761A      6.091405   762A      6.107115   763A      6.140654  
     764A      6.180633   765A      6.250176   766A      6.269509  
     767A      6.301164   768A      6.317622   769A      6.345929  
     770A      6.405262   771A      6.437976   772A      6.475781  
     773A      6.498328   774A      6.549720   775A      6.564653  
     776A      6.626125   777A      6.675675   778A      6.702996  
     779A      6.768804   780A      6.789676   781A      6.794889  
     782A      6.854766   783A      6.876591   784A      6.890625  
     785A      6.945849   786A      6.984283   787A      7.038220  
     788A      7.079159   789A      7.083336   790A      7.191730  
     791A      7.215989   792A      7.247146   793A      7.477749  
     794A      7.501312   795A      7.533676   796A      7.558826  
     797A      7.649048   798A      7.807614   799A      7.832209  
     800A      7.912809   801A      8.038986   802A      8.107666  
     803A      9.024198   804A      9.064127   805A      9.289318  
     806A      9.309652   807A      9.425211   808A      9.538058  
     809A      9.560208   810A      9.607571   811A      9.661348  
     812A      9.737846   813A     10.053059   814A     10.097517  
     815A     15.847234   816A     16.120034   817A     16.235889  
     818A     16.572563   819A     16.780368   820A     17.076293  
     821A     18.849380   822A     19.285743   823A     19.658258  
     824A     19.865614   825A     20.245633   826A     20.251598  
     827A     20.454222   828A     21.782598  

    Final Occupation by Irrep:
              A 
    DOCC [    49 ]

  Energy converged.

  @DF-RHF Final Energy:  -650.09312598971587

   => Energetics <=

    Nuclear Repulsion Energy =            817.0574344102396935
    One-Electron Energy =               -2509.0017082501644836
    Two-Electron Energy =                1041.8511478502089176
    DFT Exchange-Correlation Energy =       0.0000000000000000
    Empirical Dispersion Energy =           0.0000000000000000
    PCM Polarization Energy =               0.0000000000000000
    EFP Energy =                            0.0000000000000000
    Total Energy =                       -650.0931259897158725



Properties will be evaluated at   0.000000,   0.000000,   0.000000 Bohr

Properties computed using the SCF density matrix

  Nuclear Dipole Moment: (a.u.)
     X:     4.3317      Y:    -2.0942      Z:    -9.2546

  Electronic Dipole Moment: (a.u.)
     X:     1.9301      Y:    -1.2245      Z:     4.7074

  Dipole Moment: (a.u.)
     X:     6.2618      Y:    -3.3187      Z:    -4.5471     Total:     8.4203

  Dipole Moment: (Debye)
     X:    15.9160      Y:    -8.4353      Z:   -11.5576     Total:    21.4022


*** tstop() called on gpu-2-7.local at Sun Nov 12 02:14:33 2017
Module time:
	user time   =    1331.67 seconds =      22.19 minutes
	system time =      62.41 seconds =       1.04 minutes
	total time  =        618 seconds =      10.30 minutes
Total time:
	user time   =    1331.67 seconds =      22.19 minutes
	system time =      62.41 seconds =       1.04 minutes
	total time  =        618 seconds =      10.30 minutes

  //>>>>>>>>>>>>>>>>>>>>>>>>>>>>>>>>>>>//
  //               DFMP2               //
  //<<<<<<<<<<<<<<<<<<<<<<<<<<<<<<<<<<<//

   => Loading Basis Set <=

    Name: (AUG-CC-PVTZ AUX)
    Role: RIFIT
    Keyword: DF_BASIS_MP2
    atoms 1-11  entry C          line   147 file /cbio/jclab/home/chayas/anaconda/envs/py35/share/psi4/basis/aug-cc-pvtz-ri.gbs 
    atoms 12    entry N          line   205 file /cbio/jclab/home/chayas/anaconda/envs/py35/share/psi4/basis/aug-cc-pvtz-ri.gbs 
    atoms 13    entry O          line   263 file /cbio/jclab/home/chayas/anaconda/envs/py35/share/psi4/basis/aug-cc-pvtz-ri.gbs 
    atoms 14    entry F          line   321 file /cbio/jclab/home/chayas/anaconda/envs/py35/share/psi4/basis/aug-cc-pvtz-ri.gbs 
    atoms 15-22 entry H          line    29 file /cbio/jclab/home/chayas/anaconda/envs/py35/share/psi4/basis/aug-cc-pvtz-ri.gbs 

	 --------------------------------------------------------
	                          DF-MP2                         
	      2nd-Order Density-Fitted Moller-Plesset Theory     
	              RMP2 Wavefunction,   8 Threads             
	                                                         
	        Rob Parrish, Justin Turney, Andy Simmonett,      
	           Ed Hohenstein, and C. David Sherrill          
	 --------------------------------------------------------

   => Auxiliary Basis Set <=

  Basis Set: (AUG-CC-PVTZ AUX)
    Blend: AUG-CC-PVTZ-RI
    Number of shells: 504
    Number of basis function: 1852
    Number of Cartesian functions: 2344
    Spherical Harmonics?: true
    Max angular momentum: 4

	 --------------------------------------------------------
	                 NBF =   828, NAUX =  1852
	 --------------------------------------------------------
	   CLASS    FOCC     OCC    AOCC    AVIR     VIR    FVIR
	   PAIRS       0      49      49     779     779       0
	 --------------------------------------------------------


         ------------------------------------------------------------
                                     CPHF                           
                                  Rob Parrish                       
         ------------------------------------------------------------

  ==> Geometry <==

    Molecular point group: c1
    Full point group: C1

    Geometry (in Angstrom), charge = 0, multiplicity = 1:

       Center              X                  Y                   Z               Mass       
    ------------   -----------------  -----------------  -----------------  -----------------
           C         -1.361528195502     0.775752877703    -0.769319394010    12.000000000000
           C         -2.439528195502     1.348752877703    -0.096319394010    12.000000000000
           C          1.583471804498     0.369752877703    -1.587319394010    12.000000000000
           C          1.074471804498    -1.765247122297    -0.594319394010    12.000000000000
           C         -1.446528195502     0.732752877703     2.018680605990    12.000000000000
           C          2.647471804498    -0.226247122297    -2.249319394010    12.000000000000
           C          2.151471804498    -2.307247122297    -1.282319394010    12.000000000000
           C         -0.325528195502     0.180752877703    -0.049319394010    12.000000000000
           C          0.791471804498    -0.412247122297    -0.752319394010    12.000000000000
           C         -2.482528195502     1.327752877703     1.297680605990    12.000000000000
           C         -0.368528195502     0.159752877703     1.344680605990    12.000000000000
           N          2.898471804498    -1.531247122297    -2.079319394010    14.003074004780
           O         -3.473528195502     1.854752877703     1.916680605990    15.994914619560
           F          0.619471804498    -0.408247122297     2.051680605990    18.998403224000
           H         -1.342528195502     0.798752877703    -1.857319394010     1.007825032070
           H         -3.235528195502     1.804752877703    -0.682319394010     1.007825032070
           H          1.385471804498     1.427752877703    -1.728319394010     1.007825032070
           H          0.473471804498    -2.400247122297     0.049680605990     1.007825032070
           H         -1.455528195502     0.702752877703     3.106680605990     1.007825032070
           H          3.315471804498     0.302752877703    -2.915319394010     1.007825032070
           H          2.445471804498    -3.346247122297    -1.220319394010     1.007825032070
           H          3.684471804498    -1.949247122297    -2.576319394010     1.007825032070

  Nuclear repulsion =  817.057434410239694
  Reference energy  = -650.093125989715872

  ==> Basis Set <==

  Basis Set: AUG-CC-PVTZ
    Blend: AUG-CC-PVTZ
    Number of shells: 268
    Number of basis function: 828
    Number of Cartesian functions: 970
    Spherical Harmonics?: true
    Max angular momentum: 3

  ==> CGRSolver (by Rob Parrish) <==

   Number of roots    =         1
   Preconditioning    =    JACOBI
   Convergence cutoff =     1E-06
   Maximum iterations =       100

  ==> CPHFRHamiltonian (by Rob Parrish) <== 

  ==> DFJK: Density-Fitted J/K Matrices <==

    J tasked:                  Yes
    K tasked:                  Yes
    wK tasked:                  No
    OpenMP threads:              8
    Integrals threads:           8
    Memory (MB):              3576
    Algorithm:                Disk
    Integral Cache:           NONE
    Schwarz Cutoff:          1E-12
    Fitting Condition:       1E-12

   => Auxiliary Basis Set <=

  Basis Set: (AUG-CC-PVTZ AUX)
    Blend: AUG-CC-PVTZ-JKFIT
    Number of shells: 532
    Number of basis function: 1824
    Number of Cartesian functions: 2274
    Spherical Harmonics?: true
    Max angular momentum: 4

  ==> CPHF Iterations <==

  => Iterations <=

             Iter  Converged  Remaining    Residual
  CGR           1          0          1   1.555E-01
  CGR           2          0          1   6.180E-02
  CGR           3          0          1   3.193E-02
  CGR           4          0          1   9.429E-03
  CGR           5          0          1   3.499E-03
  CGR           6          0          1   1.526E-03
  CGR           7          0          1   6.823E-04
  CGR           8          0          1   3.300E-04
  CGR           9          0          1   1.451E-04
  CGR          10          0          1   5.554E-05
  CGR          11          0          1   2.348E-05
  CGR          12          0          1   7.365E-06
  CGR          13          0          1   3.005E-06
  CGR          14          0          1   1.091E-06
  CGR          15          1          0   3.815E-07

    CGRSolver converged.

  ==> DFCorrGrad: Density-Fitted Correlated Gradients <==

    OpenMP threads:              8
    Integrals threads:           8
    Memory (MB):              3576
    Schwarz Cutoff:          0E+00
    Fitting Condition:       1E-12

   => Auxiliary Basis Set <=

  Basis Set: (AUG-CC-PVTZ AUX)
    Blend: AUG-CC-PVTZ-JKFIT
    Number of shells: 532
    Number of basis function: 1824
    Number of Cartesian functions: 2274
    Spherical Harmonics?: true
    Max angular momentum: 4

	-----------------------------------------------------------
	 ==================> DF-MP2 Energies <==================== 
	-----------------------------------------------------------
	 Reference Energy          =    -650.0931259897158725 [Eh]
	 Singles Energy            =      -0.0000000000000002 [Eh]
	 Same-Spin Energy          =      -0.6786572107301588 [Eh]
	 Opposite-Spin Energy      =      -2.0244829311803363 [Eh]
	 Correlation Energy        =      -2.7031401419104957 [Eh]
	 Total Energy              =    -652.7962661316263393 [Eh]
	-----------------------------------------------------------
	 ================> DF-SCS-MP2 Energies <================== 
	-----------------------------------------------------------
	 SCS Same-Spin Scale       =       0.3333333333333333 [-]
	 SCS Opposite-Spin Scale   =       1.2000000000000000 [-]
	 SCS Same-Spin Energy      =      -0.2262190702433863 [Eh]
	 SCS Opposite-Spin Energy  =      -2.4293795174164035 [Eh]
	 SCS Correlation Energy    =      -2.6555985876597901 [Eh]
	 SCS Total Energy          =    -652.7487245773756968 [Eh]
	-----------------------------------------------------------


  -Total Gradient:
     Atom            X                  Y                   Z
    ------   -----------------  -----------------  -----------------
       1        0.023056259733    -0.028839315162    -0.006364764427
       2       -0.025531759641     0.012936625499     0.050359002692
       3       -0.018684529967     0.008471917778     0.026626927522
       4       -0.029532119803     0.018194412382     0.004163963205
       5       -0.053597620691     0.029194090982    -0.002455672934
       6        0.011203986039    -0.022436566815     0.001242924223
       7        0.016307694186     0.008286524535    -0.018393114333
       8       -0.034694578614     0.018014709339     0.015187824596
       9        0.033886272876    -0.017594016005    -0.023475021235
      10        0.062349454233    -0.032675477024    -0.038487290757
      11        0.050882283024    -0.011870695987    -0.015591396605
      12       -0.012266453199     0.006235164026     0.007904588426
      13       -0.018559868908     0.009724227136     0.010670365750
      14       -0.010785636799     0.005912253559     0.000437556551
      15       -0.002689206915     0.001978163830    -0.004673487811
      16       -0.001949087651     0.003341318874    -0.008741655374
      17       -0.000842545683     0.005600440786    -0.002208937765
      18       -0.002636333691    -0.004553410091     0.003798317974
      19        0.002466705798    -0.003605077662     0.007473660223
      20        0.001648677588     0.000073699580    -0.002872314418
      21        0.002466986146    -0.002326390826     0.000329377052
      22        0.007501421936    -0.004062598736    -0.004930852550


*** tstop() called on gpu-2-7.local at Sun Nov 12 02:51:22 2017
Module time:
	user time   =    5970.44 seconds =      99.51 minutes
	system time =     127.81 seconds =       2.13 minutes
	total time  =       2827 seconds =      47.12 minutes
Total time:
	user time   =    5970.44 seconds =      99.51 minutes
	system time =     127.81 seconds =       2.13 minutes
	total time  =       2827 seconds =      47.12 minutes

			-----------------------------------------
			 OPTKING 2.0: for geometry optimizations 
			  - R.A. King,  Bethel University        
			-----------------------------------------

	Internal coordinates to be generated automatically.
	Detected frag 1 with atoms:  1 2 3 4 5 6 7 8 9 10 11 12 13 14 15 16 17 18 19 20
	 21 22
	---Fragment 1 Bond Connectivity---
	 1 : 2 8 15
	 2 : 1 10 16
	 3 : 6 9 17
	 4 : 7 9 18
	 5 : 10 11 19
	 6 : 3 12 20
	 7 : 4 12 21
	 8 : 1 9 11
	 9 : 3 4 8
	 10 : 2 5 13
	 11 : 5 8 14
	 12 : 6 7 22
	 13 : 10
	 14 : 11
	 15 : 1
	 16 : 2
	 17 : 3
	 18 : 4
	 19 : 5
	 20 : 6
	 21 : 7
	 22 : 12

	Assuming in current code that numbering for constraints corresponds to unified fragment.
	Fixed dihedral atom list: 
	     1     8     9     3
	---Fragment 1 Geometry and Gradient---
	 C          -2.5729154117        1.4659604857       -1.4538029634
	 C          -4.6100401830        2.5487735598       -0.1820172760
	 C           2.9923280496        0.6987316757       -2.9995989401
	 C           2.0304574480       -3.3358336180       -1.1231008901
	 C          -2.7335421330        1.3847022619        3.8147534951
	 C           5.0029966550       -0.4275450995       -4.2505976401
	 C           4.0656924931       -4.3600651820       -2.4232324696
	 C          -0.6151591380        0.3415734366       -0.0932001477
	 C           1.4956649524       -0.7790341602       -1.4216776191
	 C          -4.6912984067        2.5090893110        2.4522609533
	 C          -0.6964173617        0.3018891878        2.5410780815
	 N           5.4773179144       -2.8936377029       -3.9293441975
	 O          -6.5640170044        3.5049749830        3.6220014295
	 F           1.1706320575       -0.7714752557        3.8771144575
	 H          -2.5370106152        1.5094241867       -3.5098249960
	 H          -6.1142621847        3.4104886764       -1.2893967898
	 H           2.6181622753        2.6980619243       -3.2660503248
	 H           0.8947320421       -4.5358097124        0.0938827394
	 H          -2.7505496682        1.3280104780        5.8707755277
	 H           6.2653337118        0.5721200248       -5.5091552446
	 H           4.6212719762       -6.3234906341       -2.3060694493
	 H           6.9626426548       -3.6835432265       -4.8685380855
	             0.0230562597       -0.0288393152       -0.0063647644
	            -0.0255317596        0.0129366255        0.0503590027
	            -0.0186845300        0.0084719178        0.0266269275
	            -0.0295321198        0.0181944124        0.0041639632
	            -0.0535976207        0.0291940910       -0.0024556729
	             0.0112039860       -0.0224365668        0.0012429242
	             0.0163076942        0.0082865245       -0.0183931143
	            -0.0346945786        0.0180147093        0.0151878246
	             0.0338862729       -0.0175940160       -0.0234750212
	             0.0623494542       -0.0326754770       -0.0384872908
	             0.0508822830       -0.0118706960       -0.0155913966
	            -0.0122664532        0.0062351640        0.0079045884
	            -0.0185598689        0.0097242271        0.0106703658
	            -0.0107856368        0.0059122536        0.0004375566
	            -0.0026892069        0.0019781638       -0.0046734878
	            -0.0019490877        0.0033413189       -0.0087416554
	            -0.0008425457        0.0056004408       -0.0022089378
	            -0.0026363337       -0.0045534101        0.0037983180
	             0.0024667058       -0.0036050777        0.0074736602
	             0.0016486776        0.0000736996       -0.0028723144
	             0.0024669861       -0.0023263908        0.0003293771
	             0.0075014219       -0.0040625987       -0.0049308525

	Previous optimization step data not found.  Starting new optimization.

	---Fragment 1 Intrafragment Coordinates---
	 - Coordinate -           - BOHR/RAD -       - ANG/DEG -
	 R(1,2)           =         2.634350	       1.394038
	 R(1,8)           =         2.635962	       1.394891
	 R(1,15)          =         2.056795	       1.088409
	 R(2,10)          =         2.635830	       1.394821
	 R(2,16)          =         2.057067	       1.088553
	 R(3,6)           =         2.622267	       1.387644
	 R(3,9)           =         2.629378	       1.391407
	 R(3,17)          =         2.051418	       1.085564
	 R(4,7)           =         2.623275	       1.388178
	 R(4,9)           =         2.629140	       1.391281
	 R(4,18)          =         2.052039	       1.085892
	 R(5,10)          =         2.636938	       1.395407
	 R(5,11)          =         2.635263	       1.394521
	 R(5,19)          =         2.056874	       1.088451
	 R(6,12)          =         2.531758	       1.339748
	 R(6,20)          =         2.043720	       1.081490
	 R(7,12)          =         2.532088	       1.339923
	 R(7,21)          =         2.043878	       1.081573
	 R(8,9)           =         2.734263	       1.446909
	 R(8,11)          =         2.635830	       1.394821
	 R(10,13)         =         2.422221	       1.281784
	 R(11,14)         =         2.534359	       1.341125
	 R(12,22)         =         1.926714	       1.019573
	 B(1,2,10)        =         2.094553	     120.009056
	 B(1,2,16)        =         2.068903	     118.539404
	 B(1,8,9)         =         2.091392	     119.827938
	 B(1,8,11)        =         2.093692	     119.959722
	 B(2,1,8)         =         2.094940	     120.031219
	 B(2,1,15)        =         2.079908	     119.169966
	 B(2,10,5)        =         2.094306	     119.994870
	 B(2,10,13)       =         2.094719	     120.018581
	 B(3,6,12)        =         2.096108	     120.098162
	 B(3,6,20)        =         2.161932	     123.869594
	 B(3,9,4)         =         2.093156	     119.928982
	 B(3,9,8)         =         2.095154	     120.043491
	 B(4,7,12)        =         2.095785	     120.079612
	 B(4,7,21)        =         2.162232	     123.886788
	 B(4,9,8)         =         2.094876	     120.027525
	 B(5,10,13)       =         2.094160	     119.986548
	 B(5,11,8)        =         2.095181	     120.045019
	 B(5,11,14)       =         2.081414	     119.256220
	 B(6,3,9)         =         2.072994	     118.773823
	 B(6,3,17)        =         2.090345	     119.767929
	 B(6,12,7)        =         2.135477	     122.353825
	 B(6,12,22)       =         2.073639	     118.810737
	 B(7,4,9)         =         2.072849	     118.765495
	 B(7,4,18)        =         2.088639	     119.670206
	 B(7,12,22)       =         2.074066	     118.835207
	 B(8,1,15)        =         2.108336	     120.798746
	 B(8,11,14)       =         2.106591	     120.698759
	 B(9,3,17)        =         2.119846	     121.458247
	 B(9,4,18)        =         2.121696	     121.564211
	 B(9,8,11)        =         2.098101	     120.212327
	 B(10,2,16)       =         2.119728	     121.451467
	 B(10,5,11)       =         2.093699	     119.960108
	 B(10,5,19)       =         2.120101	     121.472852
	 B(11,5,19)       =         2.069385	     118.567038
	 B(12,6,20)       =         2.025143	     116.032129
	 B(12,7,21)       =         2.025167	     116.033500
	 D(1,2,10,5)      =        -0.000325	      -0.018609
	 D(1,2,10,13)     =         3.141392	     179.988520
	 D(1,8,9,3)       =         1.046770	      59.975488
	 D(1,8,9,4)       =        -2.094492	    -120.005578
	 D(1,8,11,5)      =         0.000325	       0.018608
	 D(1,8,11,14)     =        -3.141528	    -179.996269
	 D(2,1,8,9)       =        -3.141211	    -179.978157
	 D(2,1,8,11)      =        -0.000348	      -0.019945
	 D(2,10,5,11)     =         0.000301	       0.017261
	 D(2,10,5,19)     =        -3.141543	    -179.997173
	 D(3,6,12,7)      =         0.001598	       0.091548
	 D(3,6,12,22)     =         3.140105	     179.914749
	 D(3,9,4,7)       =        -0.000846	      -0.048483
	 D(3,9,4,18)      =        -3.140546	    -179.940033
	 D(3,9,8,11)      =        -2.094092	    -119.982618
	 D(4,7,12,6)      =        -0.002115	      -0.121179
	 D(4,7,12,22)     =        -3.140621	    -179.944338
	 D(4,9,3,6)       =         0.000348	       0.019963
	 D(4,9,3,17)      =        -3.141026	    -179.967515
	 D(4,9,8,11)      =         1.047831	      60.036316
	 D(5,10,2,16)     =         3.139529	     179.881752
	 D(5,11,8,9)      =         3.141185	     179.976658
	 D(6,3,9,8)       =        -3.140914	    -179.961121
	 D(6,12,7,21)     =         3.141406	     179.989307
	 D(7,4,9,8)       =         3.140416	     179.932605
	 D(7,12,6,20)     =         3.141120	     179.972945
	 D(8,1,2,10)      =         0.000348	       0.019955
	 D(8,1,2,16)      =        -3.139556	    -179.883288
	 D(8,9,3,17)      =         0.000897	       0.051400
	 D(8,9,4,18)      =         0.000717	       0.041055
	 D(8,11,5,10)     =        -0.000301	      -0.017270
	 D(8,11,5,19)     =         3.141536	     179.996748
	 D(9,3,6,12)      =        -0.000687	      -0.039357
	 D(9,3,6,20)      =        -3.140039	    -179.911006
	 D(9,4,7,12)      =         0.001701	       0.097487
	 D(9,4,7,21)      =         3.141207	     179.977899
	 D(9,8,1,15)      =         0.002066	       0.118384
	 D(9,8,11,14)     =        -0.000667	      -0.038219
	 D(10,2,1,15)     =         3.140283	     179.924984
	 D(10,5,11,14)    =         3.141547	     179.997392
	 D(11,5,10,13)    =        -3.141416	    -179.989865
	 D(11,8,1,15)     =        -3.140256	    -179.923403
	 D(12,6,3,17)     =         3.140691	     179.948338
	 D(12,7,4,18)     =         3.141438	     179.991139
	 D(13,10,2,16)    =        -0.001939	      -0.111119
	 D(13,10,5,19)    =        -0.000075	      -0.004300
	 D(14,11,5,19)    =         0.000199	       0.011410
	 D(15,1,2,16)     =         0.000379	       0.021741
	 D(17,3,6,20)     =         0.001338	       0.076689
	 D(18,4,7,21)     =        -0.002242	      -0.128450
	 D(20,6,12,22)    =        -0.003558	      -0.203854
	 D(21,7,12,22)    =         0.002900	       0.166147
	 R(4,14)          =         5.684838	       3.008287

	Current energy   :      -652.7962661316

	Generating empirical Hessian (Schlegel '84) for each fragment.
	Adding user-defined constraint: Fragment 1; Coordinate 62:
		Value =     1.046770; Fixed value    =     1.047198
		Force =     0.000214; Force constant =     0.500000
	Removing off-diagonal coupling between coordinate 62 and others.
	Taking RFO optimization step.
	Going to follow RFO solution 1.
	Using RFO vector 1.

	Determining step-restricting scale parameter for RS-RFO.
	Maximum step size allowed    0.10000

	 Iter      |step|        alpha        rfo_root  
	------------------------------------------------
	    0     0.40576       1.00000           1
	    1     0.26842       3.09258           1
	    2     0.19081       8.57654           1
	    3     0.14186      21.24986           1
	    4     0.11389      39.82888           1
	    5     0.10234      53.23365           1
	    6     0.10009      56.48246           1
	    7     0.10000      56.61138           1
	------------------------------------------------
	Norm of target step-size    0.10000
	Projected energy change by RFO approximation:        -0.0083777609

	Back-transformation to cartesian coordinates...
	Could not converge backtransformation.
	Using first guess instead.

	--- Internal Coordinate Step in ANG or DEG, aJ/ANG or AJ/DEG ---
	 ---------------------------------------------------------------------------
	   Coordinate                Previous        Force       Change         New 
	   ----------                --------       ------       ------       ------
	    1 R(1,2)          =      1.394038    -0.149883    -0.010139     1.383899
	    2 R(1,8)          =      1.394891     0.104319     0.006951     1.401842
	    3 R(1,15)         =      1.088409    -0.038447    -0.002957     1.085452
	    4 R(2,10)         =      1.394821     0.265411     0.018421     1.413243
	    5 R(2,16)         =      1.088553    -0.062045    -0.004806     1.083747
	    6 R(3,6)          =      1.387644    -0.140595    -0.009439     1.378205
	    7 R(3,9)          =      1.391407     0.114843     0.007798     1.399205
	    8 R(3,17)         =      1.085564    -0.048597    -0.003744     1.081820
	    9 R(4,7)          =      1.388178    -0.147072    -0.009894     1.378284
	   10 R(4,9)          =      1.391281     0.126566     0.008687     1.399968
	   11 R(4,18)         =      1.085892    -0.052519    -0.004039     1.081854
	   12 R(5,10)         =      1.395407     0.249622     0.017318     1.412725
	   13 R(5,11)         =      1.394521    -0.210853    -0.014371     1.380151
	   14 R(5,19)         =      1.088451    -0.062198    -0.004814     1.083637
	   15 R(6,12)         =      1.339748     0.092173     0.005677     1.345425
	   16 R(6,20)         =      1.081490    -0.023258    -0.001768     1.079722
	   17 R(7,12)         =      1.339923     0.095026     0.005858     1.345781
	   18 R(7,21)         =      1.081573    -0.024094    -0.001836     1.079737
	   19 R(8,9)          =      1.446909    -0.089546    -0.006526     1.440384
	   20 R(8,11)         =      1.394821     0.070870     0.004817     1.399638
	   21 R(10,13)        =      1.281784    -0.193613    -0.010333     1.271451
	   22 R(11,14)        =      1.341125     0.087110     0.005409     1.346535
	   23 R(12,22)        =      1.019573    -0.081169    -0.005652     1.013921
	   24 B(1,2,10)       =    120.009056     0.000409     0.469874   120.478931
	   25 B(1,2,16)       =    118.539404     0.000235     0.280382   118.819786
	   26 B(1,8,9)        =    119.827938     0.000210     0.225148   120.053086
	   27 B(1,8,11)       =    119.959722    -0.000647    -0.749637   119.210085
	   28 B(2,1,8)        =    120.031219     0.000426     0.435472   120.466691
	   29 B(2,1,15)       =    119.169966     0.000048     0.088991   119.258957
	   30 B(2,10,5)       =    119.994870    -0.001370    -1.340911   118.653959
	   31 B(2,10,13)      =    120.018581     0.000756     0.743876   120.762457
	   32 B(3,6,12)       =    120.098162    -0.000197    -0.216628   119.881534
	   33 B(3,6,20)       =    123.869594     0.000002    -0.005603   123.863992
	   34 B(3,9,4)        =    119.928982    -0.000852    -0.896012   119.032969
	   35 B(3,9,8)        =    120.043491     0.000231     0.229777   120.273267
	   36 B(4,7,12)       =    120.079612    -0.000197    -0.214208   119.865404
	   37 B(4,7,21)       =    123.886788     0.000002    -0.006892   123.879896
	   38 B(4,9,8)        =    120.027525     0.000620     0.665963   120.693488
	   39 B(5,10,13)      =    119.986548     0.000614     0.597035   120.583583
	   40 B(5,11,8)       =    120.045019     0.000893     0.865164   120.910184
	   41 B(5,11,14)      =    119.256220     0.000019     0.019424   119.275645
	   42 B(6,3,9)        =    118.773823     0.000574     0.610944   119.384767
	   43 B(6,3,17)       =    119.767929    -0.000203    -0.208913   119.559017
	   44 B(6,12,7)       =    122.353825     0.000101     0.111009   122.464834
	   45 B(6,12,22)      =    118.810737    -0.000050    -0.055095   118.755642
	   46 B(7,4,9)        =    118.765495     0.000571     0.604793   119.370288
	   47 B(7,4,18)       =    119.670206    -0.000195    -0.199030   119.471176
	   48 B(7,12,22)      =    118.835207    -0.000051    -0.055829   118.779378
	   49 B(8,1,15)       =    120.798746    -0.000474    -0.524837   120.273908
	   50 B(8,11,14)      =    120.698759    -0.000912    -0.884849   119.813910
	   51 B(9,3,17)       =    121.458247    -0.000371    -0.402046   121.056201
	   52 B(9,4,18)       =    121.564211    -0.000376    -0.405826   121.158385
	   53 B(9,8,11)       =    120.212327     0.000437     0.524121   120.736448
	   54 B(10,2,16)      =    121.451467    -0.000645    -0.750259   120.701208
	   55 B(10,5,11)      =    119.960108     0.000289     0.319571   120.279679
	   56 B(10,5,19)      =    121.472852    -0.000446    -0.512161   120.960691
	   57 B(11,5,19)      =    118.567038     0.000157     0.192591   118.759629
	   58 B(12,6,20)      =    116.032129     0.000195     0.221907   116.254036
	   59 B(12,7,21)      =    116.033500     0.000195     0.221185   116.254685
	   60 D(1,2,10,5)     =     -0.018609    -0.000014    -0.103922    -0.122531
	   61 D(1,2,10,13)    =    179.988520    -0.000015    -0.097524   179.890996
	   62 D(1,8,9,3)      =     59.975488    -0.000115    -0.540119    59.435369
	   63 D(1,8,9,4)      =   -120.005578    -0.000135    -0.751676  -120.757254
	   64 D(1,8,11,5)     =      0.018608    -0.000024    -0.199900    -0.181292
	   65 D(1,8,11,14)    =   -179.996269     0.000004     0.002645  -179.993624
	   66 D(2,1,8,9)      =   -179.978157    -0.000032    -0.256261  -180.234419
	   67 D(2,1,8,11)     =     -0.019945    -0.000004     0.008474    -0.011471
	   68 D(2,10,5,11)    =      0.017261    -0.000013    -0.085432    -0.068171
	   69 D(2,10,5,19)    =   -179.997173    -0.000011    -0.060374  -180.057547
	   70 D(3,6,12,7)     =      0.091548     0.000001    -0.000770     0.090777
	   71 D(3,6,12,22)    =    179.914749     0.000005     0.035347   179.950096
	   72 D(3,9,4,7)      =     -0.048483    -0.000008    -0.087379    -0.135862
	   73 D(3,9,4,18)     =   -179.940033    -0.000003    -0.053593  -179.993626
	   74 D(3,9,8,11)     =   -119.982618    -0.000142    -0.808414  -120.791031
	   75 D(4,7,12,6)     =     -0.121179     0.000004     0.033517    -0.087662
	   76 D(4,7,12,22)    =   -179.944338     0.000000    -0.002610  -179.946949
	   77 D(4,9,3,6)      =      0.019963     0.000013     0.118936     0.138899
	   78 D(4,9,3,17)     =   -179.967515     0.000019     0.152639  -179.814876
	   79 D(4,9,8,11)     =     60.036316    -0.000162    -1.019970    59.016346
	   80 D(5,10,2,16)    =    179.881752    -0.000015    -0.105393   179.776360
	   81 D(5,11,8,9)     =    179.976658     0.000004     0.066563   180.043221
	   82 D(6,3,9,8)      =   -179.961121    -0.000007    -0.089423  -180.050544
	   83 D(6,12,7,21)    =    179.989307    -0.000007    -0.034947   179.954360
	   84 D(7,4,9,8)      =    179.932605     0.000012     0.121796   180.054401
	   85 D(7,12,6,20)    =    179.972945    -0.000016    -0.113729   179.859216
	   86 D(8,1,2,10)     =      0.019955     0.000023     0.142277     0.162232
	   87 D(8,1,2,16)     =   -179.883288     0.000024     0.144748  -179.738540
	   88 D(8,9,3,17)     =      0.051400    -0.000001    -0.055720    -0.004320
	   89 D(8,9,4,18)     =      0.041055     0.000017     0.155583     0.196637
	   90 D(8,11,5,10)    =     -0.017270     0.000032     0.238051     0.220781
	   91 D(8,11,5,19)    =    179.996748     0.000030     0.213642   180.210390
	   92 D(9,3,6,12)     =     -0.039357    -0.000010    -0.076376    -0.115732
	   93 D(9,3,6,20)     =   -179.911006     0.000008     0.045374  -179.865632
	   94 D(9,4,7,12)     =      0.097487    -0.000001     0.012082     0.109569
	   95 D(9,4,7,21)     =    179.977899     0.000012     0.086276   180.064175
	   96 D(9,8,1,15)     =      0.118384    -0.000009    -0.108957     0.009427
	   97 D(9,8,11,14)    =     -0.038219     0.000032     0.269108     0.230889
	   98 D(10,2,1,15)    =    179.924984     0.000000    -0.004140   179.920844
	   99 D(10,5,11,14)   =    179.997392     0.000004     0.036718   180.034110
	  100 D(11,5,10,13)   =   -179.989865    -0.000013    -0.091808  -180.081673
	  101 D(11,8,1,15)    =   -179.923403     0.000019     0.155778  -179.767625
	  102 D(12,6,3,17)    =    179.948338    -0.000016    -0.109595   179.838743
	  103 D(12,7,4,18)    =    179.991139    -0.000005    -0.021377   179.969761
	  104 D(13,10,2,16)   =     -0.111119    -0.000015    -0.098994    -0.210113
	  105 D(13,10,5,19)   =     -0.004300    -0.000011    -0.066750    -0.071050
	  106 D(14,11,5,19)   =      0.011410     0.000002     0.012309     0.023718
	  107 D(15,1,2,16)    =      0.021741     0.000001    -0.001669     0.020072
	  108 D(17,3,6,20)    =      0.076689     0.000002     0.012155     0.088844
	  109 D(18,4,7,21)    =     -0.128450     0.000007     0.052817    -0.075633
	  110 D(20,6,12,22)   =     -0.203854    -0.000012    -0.077611    -0.281465
	  111 D(21,7,12,22)   =      0.166147    -0.000011    -0.071074     0.095073
	  112 R(4,14)         =      3.008287    -0.018098    -0.002545     3.005742
	 ---------------------------------------------------------------------------
	Successfully symmetrized geometry.
	 Forces used to impose fixed constraints are not included.
	  Forces zeroed: 62 

  ==> Convergence Check <==

  Measures of convergence in internal coordinates in au.
  Criteria marked as inactive (o), active & met (*), and active & unmet ( ).
  --------------------------------------------------------------------------------------------- ~
   Step     Total Energy     Delta E     MAX Force     RMS Force      MAX Disp      RMS Disp    ~
  --------------------------------------------------------------------------------------------- ~
    Convergence Criteria    1.00e-06 *    3.00e-04 *             o    1.20e-03 *             o  ~
  --------------------------------------------------------------------------------------------- ~
      1    -652.79626613   -6.53e+02      3.22e-02      8.10e-03 o    3.48e-02      9.45e-03 o  ~
  ---------------------------------------------------------------------------------------------

	Writing optimization data to binary file.
	Structure for next step:
	Cartesian Geometry (in Angstrom)
	    C    -1.3630675006   0.7867767101  -0.7688089766
	    C    -2.4359360873   1.3557937714  -0.1052211871
	    C     1.5843407615   0.3644087553  -1.5968709000
	    C     1.0868881102  -1.7714921966  -0.5921551505
	    C    -1.4442482647   0.7250594403   2.0223397541
	    C     2.6423875201  -0.2225276900  -2.2567889976
	    C     2.1560062352  -2.3113404925  -1.2742227282
	    C    -0.3231357245   0.1807649667  -0.0501627527
	    C     0.7868075989  -0.4132162903  -0.7501038432
	    C    -2.4971776496   1.3372757866   1.3065723382
	    C    -0.3820015918   0.1578046115   1.3480479808
	    N     2.8996013804  -1.5312868108  -2.0802684735
	    O    -3.4792968898   1.8602498319   1.9218181627
	    F     0.6103395712  -0.4209889038   2.0504814510
	    H    -1.3368733733   0.8110560943  -1.8536732712
	    H    -3.2272380403   1.8133746617  -0.6874318815
	    H     1.3838407004   1.4177264396  -1.7405920022
	    H     0.4931348028  -2.4044999777   0.0537282090
	    H    -1.4526380794   0.6904602791   3.1053917814
	    H     3.3044301122   0.3085650353  -2.9242014835
	    H     2.4514493840  -3.3477029895  -1.2071500421
	    H     3.6817667234  -1.9456977230  -2.5747546557
			--------------------------
			 OPTKING Finished Execution 
			--------------------------

    Structure for next step:
    Molecular point group: c1
    Full point group: C1

    Geometry (in Angstrom), charge = 0, multiplicity = 1:

    C           -1.361044018143     0.787263970038    -0.769161252167
    C           -2.433912604817     1.356281031286    -0.105573462632
    C            1.586364244030     0.364896015189    -1.597223175513
    C            1.088911592702    -1.771004936673    -0.592507426040
    C           -1.442224782210     0.725546700162     2.021987478591
    C            2.644411002596    -0.222040430072    -2.257141273082
    C            2.158029717681    -2.310853232638    -1.274575003734
    C           -0.321112242048     0.181252226585    -0.050515028272
    C            0.788831081357    -0.412729030435    -0.750456118697
    C           -2.495154167099     1.337763046506     1.306220062718
    C           -0.379978109279     0.158291871379     1.347695705293
    N            2.901624862870    -1.530799550863    -2.080620749068
    O           -3.477273407344     1.860737091746     1.921465887222
    F            0.612363053665    -0.420501643900     2.050129175514
    H           -1.334849890840     0.811543354182    -1.854025546764
    H           -3.225214557773     1.813861921588    -0.687784157008
    H            1.385864182846     1.418213699468    -1.740944277726
    H            0.495158285240    -2.404012717807     0.053375933522
    H           -1.450614596880     0.690947538954     3.105039505919
    H            3.306453594692     0.309052295236    -2.924553759033
    H            2.453472866458    -3.347215729636    -1.207502317664
    H            3.683790205837    -1.945210463117    -2.575106931192

gradient() will perform analytic gradient computation.

*** tstart() called on gpu-2-7.local
*** at Sun Nov 12 02:51:24 2017

    SCF Algorithm Type (re)set to DF.

*** tstart() called on gpu-2-7.local
*** at Sun Nov 12 02:51:24 2017

   => Loading Basis Set <=

    Name: AUG-CC-PVTZ
    Role: ORBITAL
    Keyword: BASIS
    atoms 1-11  entry C          line   221 file /cbio/jclab/home/chayas/anaconda/envs/py35/share/psi4/basis/aug-cc-pvtz.gbs 
    atoms 12    entry N          line   267 file /cbio/jclab/home/chayas/anaconda/envs/py35/share/psi4/basis/aug-cc-pvtz.gbs 
    atoms 13    entry O          line   313 file /cbio/jclab/home/chayas/anaconda/envs/py35/share/psi4/basis/aug-cc-pvtz.gbs 
    atoms 14    entry F          line   359 file /cbio/jclab/home/chayas/anaconda/envs/py35/share/psi4/basis/aug-cc-pvtz.gbs 
    atoms 15-22 entry H          line    34 file /cbio/jclab/home/chayas/anaconda/envs/py35/share/psi4/basis/aug-cc-pvtz.gbs 


         ---------------------------------------------------------
                                   SCF
            by Justin Turney, Rob Parrish, and Andy Simmonett
                              RHF Reference
                        8 Threads,   4768 MiB Core
         ---------------------------------------------------------

  ==> Geometry <==

    Molecular point group: c1
    Full point group: C1

    Geometry (in Angstrom), charge = 0, multiplicity = 1:

       Center              X                  Y                   Z               Mass       
    ------------   -----------------  -----------------  -----------------  -----------------
           C         -1.361044018143     0.787263970038    -0.769161252167    12.000000000000
           C         -2.433912604817     1.356281031286    -0.105573462632    12.000000000000
           C          1.586364244030     0.364896015189    -1.597223175513    12.000000000000
           C          1.088911592702    -1.771004936673    -0.592507426040    12.000000000000
           C         -1.442224782210     0.725546700162     2.021987478591    12.000000000000
           C          2.644411002596    -0.222040430072    -2.257141273082    12.000000000000
           C          2.158029717681    -2.310853232638    -1.274575003734    12.000000000000
           C         -0.321112242048     0.181252226585    -0.050515028272    12.000000000000
           C          0.788831081357    -0.412729030435    -0.750456118697    12.000000000000
           C         -2.495154167099     1.337763046506     1.306220062718    12.000000000000
           C         -0.379978109279     0.158291871379     1.347695705293    12.000000000000
           N          2.901624862870    -1.530799550863    -2.080620749068    14.003074004780
           O         -3.477273407344     1.860737091746     1.921465887222    15.994914619560
           F          0.612363053665    -0.420501643900     2.050129175514    18.998403224000
           H         -1.334849890840     0.811543354182    -1.854025546764     1.007825032070
           H         -3.225214557773     1.813861921588    -0.687784157008     1.007825032070
           H          1.385864182846     1.418213699468    -1.740944277726     1.007825032070
           H          0.495158285240    -2.404012717807     0.053375933522     1.007825032070
           H         -1.450614596880     0.690947538954     3.105039505919     1.007825032070
           H          3.306453594692     0.309052295236    -2.924553759033     1.007825032070
           H          2.453472866458    -3.347215729636    -1.207502317664     1.007825032070
           H          3.683790205837    -1.945210463117    -2.575106931192     1.007825032070

  Running in c1 symmetry.

  Rotational constants: A =      0.06278  B =      0.01321  C =      0.01174 [cm^-1]
  Rotational constants: A =   1882.05988  B =    396.08144  C =    351.92517 [MHz]
  Nuclear repulsion =  816.184109939308087

  Charge       = 0
  Multiplicity = 1
  Electrons    = 98
  Nalpha       = 49
  Nbeta        = 49

  ==> Algorithm <==

  SCF Algorithm Type is DF.
  DIIS enabled.
  MOM disabled.
  Fractional occupation disabled.
  Guess Type is READ.
  Energy threshold   = 1.00e-10
  Density threshold  = 1.00e-10
  Integral threshold = 0.00e+00

  ==> Primary Basis <==

  Basis Set: AUG-CC-PVTZ
    Blend: AUG-CC-PVTZ
    Number of shells: 268
    Number of basis function: 828
    Number of Cartesian functions: 970
    Spherical Harmonics?: true
    Max angular momentum: 3

   => Loading Basis Set <=

    Name: (AUG-CC-PVTZ AUX)
    Role: JKFIT
    Keyword: DF_BASIS_SCF
    atoms 1-11  entry C          line   161 file /cbio/jclab/home/chayas/anaconda/envs/py35/share/psi4/basis/aug-cc-pvtz-jkfit.gbs 
    atoms 12    entry N          line   223 file /cbio/jclab/home/chayas/anaconda/envs/py35/share/psi4/basis/aug-cc-pvtz-jkfit.gbs 
    atoms 13    entry O          line   285 file /cbio/jclab/home/chayas/anaconda/envs/py35/share/psi4/basis/aug-cc-pvtz-jkfit.gbs 
    atoms 14    entry F          line   347 file /cbio/jclab/home/chayas/anaconda/envs/py35/share/psi4/basis/aug-cc-pvtz-jkfit.gbs 
    atoms 15-22 entry H          line    69 file /cbio/jclab/home/chayas/anaconda/envs/py35/share/psi4/basis/aug-cc-pvtz-jkfit.gbs 

  Reading orbitals from file 180, no projection.

  ==> Pre-Iterations <==

   -------------------------------------------------------
    Irrep   Nso     Nmo     Nalpha   Nbeta   Ndocc  Nsocc
   -------------------------------------------------------
     A        828     828       0       0       0       0
   -------------------------------------------------------
    Total     828     828      49      49      49       0
   -------------------------------------------------------

  ==> Integral Setup <==

  ==> DFJK: Density-Fitted J/K Matrices <==

    J tasked:                  Yes
    K tasked:                  Yes
    wK tasked:                  No
    OpenMP threads:              8
    Integrals threads:           8
    Memory (MB):              3576
    Algorithm:                Disk
    Integral Cache:           NONE
    Schwarz Cutoff:          1E-12
    Fitting Condition:       1E-12

   => Auxiliary Basis Set <=

  Basis Set: (AUG-CC-PVTZ AUX)
    Blend: AUG-CC-PVTZ-JKFIT
    Number of shells: 532
    Number of basis function: 1824
    Number of Cartesian functions: 2274
    Spherical Harmonics?: true
    Max angular momentum: 4

  Minimum eigenvalue in the overlap matrix is 7.8790812967E-07.
  Using Symmetric Orthogonalization.

  SCF Guess: Orbitals guess was supplied from a previous computation.

  ==> Iterations <==

                           Total Energy        Delta E     RMS |[F,P]|

   @DF-RHF iter   0:  -650.15123974270625   -6.50151e+02   5.68732e-04 
   @DF-RHF iter   1:  -650.10142749366321    4.98122e-02   1.03370e-04 
   @DF-RHF iter   2:  -650.10178449169678   -3.56998e-04   6.32131e-05 DIIS
   @DF-RHF iter   3:  -650.10198387624666   -1.99385e-04   8.18000e-06 DIIS
   @DF-RHF iter   4:  -650.10200388126782   -2.00050e-05   6.73171e-06 DIIS
   @DF-RHF iter   5:  -650.10201388786584   -1.00066e-05   2.98307e-06 DIIS
   @DF-RHF iter   6:  -650.10201818567202   -4.29781e-06   1.70838e-06 DIIS
   @DF-RHF iter   7:  -650.10201932794757   -1.14228e-06   3.46538e-07 DIIS
   @DF-RHF iter   8:  -650.10201944167011   -1.13723e-07   2.26617e-07 DIIS
   @DF-RHF iter   9:  -650.10201944997732   -8.30721e-09   6.96273e-08 DIIS
   @DF-RHF iter  10:  -650.10201945149538   -1.51806e-09   3.31443e-08 DIIS
   @DF-RHF iter  11:  -650.10201945179824   -3.02862e-10   1.50992e-08 DIIS
   @DF-RHF iter  12:  -650.10201945184929   -5.10454e-11   6.46913e-09 DIIS
   @DF-RHF iter  13:  -650.10201945186645   -1.71667e-11   2.52080e-09 DIIS
   @DF-RHF iter  14:  -650.10201945185247    1.39835e-11   8.20943e-10 DIIS
   @DF-RHF iter  15:  -650.10201945187032   -1.78488e-11   3.06153e-10 DIIS
   @DF-RHF iter  16:  -650.10201945185952    1.08002e-11   1.41867e-10 DIIS
   @DF-RHF iter  17:  -650.10201945185554    3.97904e-12   4.62949e-11 DIIS

  ==> Post-Iterations <==

    Orbital Energies (a.u.)
    -----------------------

    Doubly Occupied:                                                      

       1A    -26.301520     2A    -20.423889     3A    -15.718798  
       4A    -11.371149     5A    -11.369368     6A    -11.324450  
       7A    -11.310823     8A    -11.297865     9A    -11.296760  
      10A    -11.244597    11A    -11.228974    12A    -11.212376  
      13A    -11.180465    14A    -11.179126    15A     -1.619299  
      16A     -1.397141    17A     -1.253924    18A     -1.187808  
      19A     -1.125696    20A     -1.111061    21A     -1.001254  
      22A     -0.991190    23A     -0.949158    24A     -0.911125  
      25A     -0.851439    26A     -0.821174    27A     -0.801638  
      28A     -0.752109    29A     -0.740053    30A     -0.703967  
      31A     -0.693408    32A     -0.690653    33A     -0.680155  
      34A     -0.672307    35A     -0.661497    36A     -0.618216  
      37A     -0.596912    38A     -0.589414    39A     -0.575959  
      40A     -0.537879    41A     -0.506598    42A     -0.492516  
      43A     -0.479158    44A     -0.459633    45A     -0.430434  
      46A     -0.399992    47A     -0.336889    48A     -0.319594  
      49A     -0.231957  

    Virtual:                                                              

      50A     -0.013120    51A      0.008065    52A      0.009241  
      53A      0.021248    54A      0.031812    55A      0.039233  
      56A      0.042422    57A      0.048808    58A      0.051917  
      59A      0.058153    60A      0.063007    61A      0.066748  
      62A      0.070482    63A      0.076638    64A      0.080394  
      65A      0.089682    66A      0.096427    67A      0.100973  
      68A      0.103514    69A      0.105973    70A      0.116081  
      71A      0.119929    72A      0.124846    73A      0.125485  
      74A      0.126802    75A      0.130114    76A      0.133045  
      77A      0.139039    78A      0.143730    79A      0.149219  
      80A      0.152187    81A      0.158937    82A      0.161641  
      83A      0.163346    84A      0.166366    85A      0.176673  
      86A      0.177402    87A      0.180681    88A      0.185831  
      89A      0.189250    90A      0.192816    91A      0.195409  
      92A      0.203388    93A      0.203832    94A      0.206115  
      95A      0.212198    96A      0.215610    97A      0.222629  
      98A      0.226550    99A      0.230262   100A      0.235138  
     101A      0.241190   102A      0.248236   103A      0.250042  
     104A      0.251527   105A      0.255664   106A      0.257785  
     107A      0.261353   108A      0.263317   109A      0.270286  
     110A      0.273376   111A      0.281261   112A      0.284120  
     113A      0.292032   114A      0.295541   115A      0.297245  
     116A      0.301492   117A      0.303646   118A      0.312366  
     119A      0.314620   120A      0.320248   121A      0.323074  
     122A      0.327635   123A      0.331126   124A      0.338830  
     125A      0.341094   126A      0.343110   127A      0.348330  
     128A      0.349672   129A      0.360196   130A      0.361155  
     131A      0.365453   132A      0.368456   133A      0.369599  
     134A      0.375071   135A      0.376764   136A      0.381300  
     137A      0.385416   138A      0.396235   139A      0.398105  
     140A      0.399869   141A      0.409641   142A      0.415410  
     143A      0.418412   144A      0.420401   145A      0.424365  
     146A      0.429261   147A      0.433403   148A      0.438059  
     149A      0.438858   150A      0.444265   151A      0.454874  
     152A      0.456371   153A      0.459225   154A      0.462177  
     155A      0.467893   156A      0.470503   157A      0.474590  
     158A      0.476105   159A      0.479991   160A      0.488141  
     161A      0.488604   162A      0.490168   163A      0.491297  
     164A      0.495443   165A      0.498488   166A      0.501929  
     167A      0.503856   168A      0.508885   169A      0.514721  
     170A      0.521389   171A      0.523407   172A      0.530937  
     173A      0.536507   174A      0.538254   175A      0.544564  
     176A      0.546878   177A      0.550401   178A      0.560485  
     179A      0.564763   180A      0.570558   181A      0.574858  
     182A      0.580862   183A      0.587154   184A      0.594641  
     185A      0.596991   186A      0.599662   187A      0.601784  
     188A      0.609285   189A      0.610587   190A      0.626359  
     191A      0.630064   192A      0.633749   193A      0.637137  
     194A      0.645518   195A      0.649443   196A      0.663589  
     197A      0.666647   198A      0.669278   199A      0.670945  
     200A      0.674312   201A      0.678867   202A      0.689086  
     203A      0.695287   204A      0.700552   205A      0.703744  
     206A      0.712466   207A      0.713189   208A      0.718005  
     209A      0.723194   210A      0.728274   211A      0.733047  
     212A      0.737315   213A      0.743179   214A      0.753275  
     215A      0.754995   216A      0.756608   217A      0.766031  
     218A      0.769060   219A      0.772409   220A      0.790444  
     221A      0.795250   222A      0.799537   223A      0.808942  
     224A      0.811906   225A      0.821824   226A      0.826108  
     227A      0.832672   228A      0.835970   229A      0.846168  
     230A      0.851538   231A      0.861066   232A      0.867393  
     233A      0.870350   234A      0.873023   235A      0.877401  
     236A      0.884042   237A      0.891566   238A      0.895256  
     239A      0.895687   240A      0.900970   241A      0.906770  
     242A      0.909784   243A      0.912200   244A      0.917734  
     245A      0.921413   246A      0.925840   247A      0.926565  
     248A      0.928965   249A      0.934343   250A      0.942125  
     251A      0.948577   252A      0.957936   253A      0.960283  
     254A      0.961443   255A      0.974107   256A      0.977015  
     257A      0.981024   258A      0.987437   259A      0.996192  
[...]
     104A      0.255657   105A      0.256368   106A      0.260381  
     107A      0.262783   108A      0.267742   109A      0.274468  
     110A      0.281027   111A      0.284121   112A      0.290556  
     113A      0.294400   114A      0.295031   115A      0.299859  
     116A      0.302517   117A      0.306895   118A      0.316293  
     119A      0.316837   120A      0.318711   121A      0.326658  
     122A      0.329296   123A      0.332645   124A      0.334323  
     125A      0.344689   126A      0.348216   127A      0.350445  
     128A      0.352403   129A      0.354317   130A      0.359291  
     131A      0.362095   132A      0.365492   133A      0.373937  
     134A      0.376551   135A      0.382147   136A      0.383174  
     137A      0.390426   138A      0.397942   139A      0.399652  
     140A      0.406117   141A      0.414073   142A      0.418615  
     143A      0.422813   144A      0.427431   145A      0.430025  
     146A      0.438061   147A      0.439023   148A      0.441859  
     149A      0.444764   150A      0.447155   151A      0.452270  
     152A      0.457607   153A      0.459984   154A      0.466124  
     155A      0.468512   156A      0.473048   157A      0.476954  
     158A      0.478265   159A      0.483590   160A      0.485074  
     161A      0.488360   162A      0.490355   163A      0.493147  
     164A      0.496123   165A      0.497689   166A      0.501525  
     167A      0.506635   168A      0.513740   169A      0.516566  
     170A      0.522702   171A      0.525867   172A      0.530193  
     173A      0.532574   174A      0.539034   175A      0.543867  
     176A      0.547580   177A      0.551802   178A      0.558539  
     179A      0.566576   180A      0.570389   181A      0.570490  
     182A      0.577505   183A      0.586628   184A      0.591140  
     185A      0.597105   186A      0.599338   187A      0.604187  
     188A      0.605809   189A      0.612061   190A      0.619063  
     191A      0.625933   192A      0.636349   193A      0.640058  
     194A      0.653082   195A      0.654478   196A      0.659231  
     197A      0.660242   198A      0.668743   199A      0.675357  
     200A      0.680367   201A      0.683789   202A      0.690365  
     203A      0.696471   204A      0.700925   205A      0.705136  
     206A      0.712232   207A      0.716108   208A      0.720899  
     209A      0.724978   210A      0.733235   211A      0.737935  
     212A      0.742368   213A      0.747954   214A      0.755382  
     215A      0.759054   216A      0.765047   217A      0.766353  
     218A      0.771001   219A      0.781394   220A      0.788356  
     221A      0.799177   222A      0.805492   223A      0.806380  
     224A      0.816986   225A      0.823966   226A      0.831761  
     227A      0.839975   228A      0.843921   229A      0.851523  
     230A      0.853801   231A      0.861143   232A      0.868202  
     233A      0.870686   234A      0.874376   235A      0.882070  
     236A      0.885538   237A      0.888248   238A      0.892649  
     239A      0.898852   240A      0.901521   241A      0.903670  
     242A      0.909437   243A      0.913916   244A      0.919126  
     245A      0.919493   246A      0.925106   247A      0.932391  
     248A      0.935821   249A      0.941877   250A      0.944186  
     251A      0.950737   252A      0.955572   253A      0.961344  
     254A      0.963402   255A      0.974715   256A      0.977350  
     257A      0.982101   258A      0.993552   259A      0.997459  
     260A      0.999977   261A      1.006662   262A      1.011628  
     263A      1.014180   264A      1.019715   265A      1.022802  
     266A      1.024469   267A      1.027332   268A      1.033381  
     269A      1.038639   270A      1.041081   271A      1.044449  
     272A      1.046951   273A      1.051131   274A      1.054311  
     275A      1.062752   276A      1.067222   277A      1.076293  
     278A      1.077634   279A      1.085857   280A      1.091341  
     281A      1.096421   282A      1.099564   283A      1.100844  
     284A      1.104158   285A      1.111690   286A      1.114311  
     287A      1.117372   288A      1.120098   289A      1.127274  
     290A      1.136520   291A      1.139602   292A      1.143112  
     293A      1.147445   294A      1.154232   295A      1.156157  
     296A      1.165019   297A      1.169964   298A      1.177043  
     299A      1.181316   300A      1.183674   301A      1.189315  
     302A      1.192098   303A      1.197362   304A      1.211768  
     305A      1.217055   306A      1.222682   307A      1.226334  
     308A      1.230557   309A      1.238074   310A      1.245025  
     311A      1.247581   312A      1.255864   313A      1.257417  
     314A      1.263767   315A      1.269741   316A      1.272155  
     317A      1.279086   318A      1.283856   319A      1.287875  
     320A      1.291349   321A      1.302564   322A      1.304322  
     323A      1.314523   324A      1.320097   325A      1.326398  
     326A      1.335004   327A      1.344740   328A      1.346587  
     329A      1.358376   330A      1.367711   331A      1.370658  
     332A      1.375705   333A      1.383017   334A      1.384566  
     335A      1.392674   336A      1.400025   337A      1.403502  
     338A      1.414821   339A      1.426842   340A      1.430562  
     341A      1.435060   342A      1.445101   343A      1.447133  
     344A      1.451568   345A      1.456055   346A      1.463160  
     347A      1.468475   348A      1.474194   349A      1.486911  
     350A      1.496423   351A      1.498018   352A      1.508592  
     353A      1.517259   354A      1.525601   355A      1.534987  
     356A      1.538175   357A      1.550308   358A      1.556314  
     359A      1.559442   360A      1.573001   361A      1.584082  
     362A      1.588060   363A      1.601982   364A      1.615165  
     365A      1.620648   366A      1.625398   367A      1.629839  
     368A      1.633553   369A      1.640557   370A      1.644075  
     371A      1.650594   372A      1.665473   373A      1.672660  
     374A      1.677149   375A      1.690532   376A      1.697018  
     377A      1.699564   378A      1.705351   379A      1.710800  
     380A      1.722287   381A      1.728732   382A      1.733233  
     383A      1.747162   384A      1.757116   385A      1.766727  
     386A      1.776788   387A      1.779326   388A      1.789184  
     389A      1.804126   390A      1.811748   391A      1.816768  
     392A      1.822093   393A      1.822761   394A      1.828646  
     395A      1.841785   396A      1.849295   397A      1.859235  
     398A      1.870385   399A      1.882857   400A      1.888184  
     401A      1.892896   402A      1.900932   403A      1.913374  
     404A      1.913972   405A      1.926605   406A      1.935276  
     407A      1.941582   408A      1.946702   409A      1.956374  
     410A      1.959254   411A      1.970289   412A      1.977074  
     413A      1.982853   414A      1.990424   415A      1.998051  
     416A      2.002120   417A      2.008157   418A      2.018921  
     419A      2.021826   420A      2.025489   421A      2.030183  
     422A      2.044697   423A      2.053983   424A      2.062779  
     425A      2.065354   426A      2.072226   427A      2.075975  
     428A      2.086798   429A      2.098868   430A      2.117452  
     431A      2.120515   432A      2.135107   433A      2.145391  
     434A      2.151551   435A      2.155471   436A      2.168048  
     437A      2.175224   438A      2.182763   439A      2.188972  
     440A      2.195014   441A      2.204229   442A      2.210447  
     443A      2.218764   444A      2.225818   445A      2.232482  
     446A      2.251096   447A      2.276569   448A      2.280949  
     449A      2.293048   450A      2.304864   451A      2.308046  
     452A      2.312061   453A      2.322110   454A      2.336327  
     455A      2.343496   456A      2.355589   457A      2.360356  
     458A      2.374775   459A      2.378274   460A      2.388898  
     461A      2.396295   462A      2.404876   463A      2.415611  
     464A      2.431865   465A      2.444544   466A      2.448376  
     467A      2.460849   468A      2.478906   469A      2.484563  
     470A      2.486879   471A      2.500345   472A      2.506593  
     473A      2.524711   474A      2.538449   475A      2.544237  
     476A      2.553183   477A      2.558079   478A      2.573154  
     479A      2.582487   480A      2.604715   481A      2.620534  
     482A      2.626517   483A      2.642875   484A      2.649901  
     485A      2.663669   486A      2.676605   487A      2.701408  
     488A      2.712958   489A      2.719917   490A      2.725294  
     491A      2.733888   492A      2.742065   493A      2.749330  
     494A      2.759607   495A      2.768533   496A      2.781925  
     497A      2.822418   498A      2.844690   499A      2.849503  
     500A      2.851317   501A      2.877427   502A      2.896578  
     503A      2.921471   504A      2.937691   505A      2.966073  
     506A      2.991582   507A      3.013463   508A      3.032395  
     509A      3.038703   510A      3.055674   511A      3.059047  
     512A      3.090633   513A      3.100289   514A      3.118769  
     515A      3.135188   516A      3.143772   517A      3.147686  
     518A      3.154499   519A      3.178575   520A      3.200932  
     521A      3.212018   522A      3.222049   523A      3.231837  
     524A      3.241459   525A      3.252019   526A      3.278714  
     527A      3.290185   528A      3.295981   529A      3.311033  
     530A      3.321201   531A      3.329041   532A      3.336301  
     533A      3.356022   534A      3.364110   535A      3.380334  
     536A      3.393472   537A      3.394856   538A      3.405321  
     539A      3.420907   540A      3.427620   541A      3.433034  
     542A      3.446664   543A      3.457735   544A      3.467803  
     545A      3.476801   546A      3.486541   547A      3.493480  
     548A      3.503121   549A      3.510601   550A      3.515746  
     551A      3.519662   552A      3.533954   553A      3.540708  
     554A      3.552475   555A      3.557343   556A      3.559017  
     557A      3.573197   558A      3.582783   559A      3.588882  
     560A      3.598519   561A      3.599378   562A      3.616656  
     563A      3.627702   564A      3.633164   565A      3.636515  
     566A      3.649505   567A      3.654389   568A      3.658779  
     569A      3.669489   570A      3.686746   571A      3.701554  
     572A      3.705578   573A      3.708441   574A      3.729417  
     575A      3.734114   576A      3.739241   577A      3.756803  
     578A      3.764491   579A      3.769365   580A      3.778200  
     581A      3.782357   582A      3.793723   583A      3.799070  
     584A      3.808495   585A      3.818127   586A      3.826828  
     587A      3.838831   588A      3.849397   589A      3.854485  
     590A      3.877382   591A      3.881167   592A      3.888324  
     593A      3.893416   594A      3.911536   595A      3.912664  
     596A      3.920649   597A      3.928694   598A      3.932454  
     599A      3.945405   600A      3.961074   601A      3.965628  
     602A      3.973487   603A      3.978078   604A      3.992988  
     605A      3.997191   606A      4.004618   607A      4.006257  
     608A      4.010569   609A      4.024870   610A      4.042378  
     611A      4.045046   612A      4.048987   613A      4.069405  
     614A      4.072166   615A      4.083341   616A      4.091152  
     617A      4.102809   618A      4.108227   619A      4.111573  
     620A      4.130791   621A      4.141309   622A      4.144737  
     623A      4.163381   624A      4.169298   625A      4.181001  
     626A      4.184393   627A      4.190914   628A      4.202302  
     629A      4.220688   630A      4.228794   631A      4.237098  
     632A      4.243904   633A      4.252905   634A      4.259463  
     635A      4.266411   636A      4.274298   637A      4.290916  
     638A      4.299888   639A      4.312859   640A      4.314805  
     641A      4.330438   642A      4.338749   643A      4.342197  
     644A      4.349502   645A      4.364987   646A      4.366157  
     647A      4.373447   648A      4.381693   649A      4.386547  
     650A      4.394209   651A      4.395776   652A      4.405316  
     653A      4.424381   654A      4.431553   655A      4.434267  
     656A      4.453770   657A      4.459240   658A      4.477874  
     659A      4.484567   660A      4.486079   661A      4.494407  
     662A      4.513526   663A      4.521185   664A      4.532086  
     665A      4.540340   666A      4.550117   667A      4.567946  
     668A      4.571705   669A      4.588910   670A      4.603702  
     671A      4.615813   672A      4.628434   673A      4.630908  
     674A      4.657918   675A      4.675312   676A      4.709569  
     677A      4.715972   678A      4.723338   679A      4.741483  
     680A      4.758895   681A      4.764329   682A      4.774107  
     683A      4.795202   684A      4.800658   685A      4.811758  
     686A      4.817713   687A      4.840950   688A      4.849661  
     689A      4.862968   690A      4.866929   691A      4.883235  
     692A      4.893575   693A      4.926799   694A      4.943000  
     695A      4.959845   696A      4.960684   697A      4.975780  
     698A      4.984074   699A      5.003347   700A      5.027982  
     701A      5.047149   702A      5.050818   703A      5.058471  
     704A      5.077407   705A      5.080080   706A      5.087392  
     707A      5.110672   708A      5.115221   709A      5.123077  
     710A      5.133540   711A      5.142529   712A      5.154014  
     713A      5.161651   714A      5.179834   715A      5.194232  
     716A      5.200441   717A      5.204247   718A      5.216696  
     719A      5.222050   720A      5.241961   721A      5.255913  
     722A      5.259805   723A      5.278842   724A      5.303477  
     725A      5.332329   726A      5.351914   727A      5.360835  
     728A      5.389416   729A      5.412112   730A      5.421454  
     731A      5.428381   732A      5.455471   733A      5.466897  
     734A      5.482290   735A      5.490436   736A      5.522866  
     737A      5.527650   738A      5.541084   739A      5.579746  
     740A      5.591259   741A      5.626824   742A      5.641135  
     743A      5.663321   744A      5.686342   745A      5.721672  
     746A      5.733983   747A      5.753568   748A      5.774880  
     749A      5.783520   750A      5.812803   751A      5.820063  
     752A      5.829290   753A      5.854377   754A      5.900093  
     755A      5.919465   756A      5.965149   757A      5.981038  
     758A      6.016742   759A      6.051861   760A      6.065470  
     761A      6.108578   762A      6.128852   763A      6.149059  
     764A      6.165368   765A      6.201946   766A      6.254574  
     767A      6.292533   768A      6.323385   769A      6.335300  
     770A      6.420937   771A      6.470495   772A      6.497148  
     773A      6.566072   774A      6.569510   775A      6.629825  
     776A      6.638979   777A      6.660264   778A      6.674547  
     779A      6.733150   780A      6.747348   781A      6.769925  
     782A      6.826327   783A      6.838541   784A      6.916598  
     785A      6.969413   786A      6.985106   787A      7.044719  
     788A      7.065967   789A      7.080607   790A      7.118128  
     791A      7.168255   792A      7.246435   793A      7.417797  
     794A      7.459170   795A      7.501781   796A      7.561386  
     797A      7.684138   798A      7.789415   799A      7.816097  
     800A      7.883986   801A      7.980800   802A      8.063434  
     803A      9.062668   804A      9.086666   805A      9.288535  
     806A      9.308326   807A      9.438788   808A      9.529729  
     809A      9.584726   810A      9.624781   811A      9.666284  
     812A      9.720752   813A     10.049683   814A     10.105811  
     815A     15.859692   816A     16.326786   817A     16.666536  
     818A     16.728275   819A     16.915567   820A     17.028058  
     821A     18.839433   822A     19.138685   823A     19.654221  
     824A     19.796862   825A     20.085970   826A     20.439835  
     827A     20.597542   828A     21.823179  

    Final Occupation by Irrep:
              A 
    DOCC [    49 ]

  Energy converged.

  @DF-RHF Final Energy:  -650.12044486555760

   => Energetics <=

    Nuclear Repulsion Energy =            815.3172515667383777
    One-Electron Energy =               -2505.4946144878804262
    Two-Electron Energy =                1040.0569180555844468
    DFT Exchange-Correlation Energy =       0.0000000000000000
    Empirical Dispersion Energy =           0.0000000000000000
    PCM Polarization Energy =               0.0000000000000000
    EFP Energy =                            0.0000000000000000
    Total Energy =                       -650.1204448655576016



Properties will be evaluated at   0.000000,   0.000000,   0.000000 Bohr

Properties computed using the SCF density matrix

  Nuclear Dipole Moment: (a.u.)
     X:     4.4322      Y:    -1.8137      Z:    -9.0959

  Electronic Dipole Moment: (a.u.)
     X:     0.2957      Y:    -0.7744      Z:     5.3302

  Dipole Moment: (a.u.)
     X:     4.7279      Y:    -2.5882      Z:    -3.7657     Total:     6.5751

  Dipole Moment: (Debye)
     X:    12.0171      Y:    -6.5784      Z:    -9.5716     Total:    16.7123


*** tstop() called on gpu-2-7.local at Mon Nov 13 01:50:27 2017
Module time:
	user time   =    1061.74 seconds =      17.70 minutes
	system time =      50.34 seconds =       0.84 minutes
	total time  =        462 seconds =       7.70 minutes
Total time:
	user time   =  179657.84 seconds =    2994.30 minutes
	system time =    3713.39 seconds =      61.89 minutes
	total time  =      85572 seconds =    1426.20 minutes

  //>>>>>>>>>>>>>>>>>>>>>>>>>>>>>>>>>>>//
  //               DFMP2               //
  //<<<<<<<<<<<<<<<<<<<<<<<<<<<<<<<<<<<//

   => Loading Basis Set <=

    Name: (AUG-CC-PVTZ AUX)
    Role: RIFIT
    Keyword: DF_BASIS_MP2
    atoms 1-11  entry C          line   147 file /cbio/jclab/home/chayas/anaconda/envs/py35/share/psi4/basis/aug-cc-pvtz-ri.gbs 
    atoms 12    entry N          line   205 file /cbio/jclab/home/chayas/anaconda/envs/py35/share/psi4/basis/aug-cc-pvtz-ri.gbs 
    atoms 13    entry O          line   263 file /cbio/jclab/home/chayas/anaconda/envs/py35/share/psi4/basis/aug-cc-pvtz-ri.gbs 
    atoms 14    entry F          line   321 file /cbio/jclab/home/chayas/anaconda/envs/py35/share/psi4/basis/aug-cc-pvtz-ri.gbs 
    atoms 15-22 entry H          line    29 file /cbio/jclab/home/chayas/anaconda/envs/py35/share/psi4/basis/aug-cc-pvtz-ri.gbs 

	 --------------------------------------------------------
	                          DF-MP2                         
	      2nd-Order Density-Fitted Moller-Plesset Theory     
	              RMP2 Wavefunction,   8 Threads             
	                                                         
	        Rob Parrish, Justin Turney, Andy Simmonett,      
	           Ed Hohenstein, and C. David Sherrill          
	 --------------------------------------------------------

   => Auxiliary Basis Set <=

  Basis Set: (AUG-CC-PVTZ AUX)
    Blend: AUG-CC-PVTZ-RI
    Number of shells: 504
    Number of basis function: 1852
    Number of Cartesian functions: 2344
    Spherical Harmonics?: true
    Max angular momentum: 4

	 --------------------------------------------------------
	                 NBF =   828, NAUX =  1852
	 --------------------------------------------------------
	   CLASS    FOCC     OCC    AOCC    AVIR     VIR    FVIR
	   PAIRS       0      49      49     779     779       0
	 --------------------------------------------------------

