
    -----------------------------------------------------------------------
          Psi4: An Open-Source Ab Initio Electronic Structure Package
                               Psi4 1.1 release

                         Git: Rev {HEAD} add49b9 


    R. M. Parrish, L. A. Burns, D. G. A. Smith, A. C. Simmonett,
    A. E. DePrince III, E. G. Hohenstein, U. Bozkaya, A. Yu. Sokolov,
    R. Di Remigio, R. M. Richard, J. F. Gonthier, A. M. James,
    H. R. McAlexander, A. Kumar, M. Saitow, X. Wang, B. P. Pritchard,
    P. Verma, H. F. Schaefer III, K. Patkowski, R. A. King, E. F. Valeev,
    F. A. Evangelista, J. M. Turney, T. D. Crawford, and C. D. Sherrill,
    J. Chem. Theory Comput. in press (2017).
    (doi: 10.1021/acs.jctc.7b00174)

    -----------------------------------------------------------------------


    Psi4 started on: Sunday, 12 November 2017 04:21AM

    Process ID:  26777
    PSIDATADIR: /cbio/jclab/home/chayas/anaconda/envs/py35/share/psi4
    Memory:     500.0 MiB
    Threads:    8
    
  ==> Input File <==

--------------------------------------------------------------------------

memory 5 Gb

molecule phepyrOH_anion {
  symmetry C1
  -1 1 
  C      1.885   -1.036   -0.112
  C      2.878   -1.652   2.002
  C      0.807   -0.463   0.561
  C      1.800   -1.079   2.676
  C      3.830   -3.271   -0.983
  C      5.329   -1.753   0.128
  C      4.934   -3.805   -1.627
  C      6.366   -2.356   -0.566
  C      2.921   -1.631   0.608
  C      4.040   -2.226   -0.090
  C      0.764   -0.484   1.955
  N      6.201   -3.373   -1.441
  O      -0.227   0.042   2.574
  H      1.904   -1.011   -1.199
  H      3.678   -2.112   2.577
  H      0.011   -0.006   -0.025
  H      1.791   -1.108   3.764
  H      2.838   -3.666   -1.179
  H      5.531   -0.940   0.817
  H      4.823   -4.621   -2.334
  H      7.391   -2.024   -0.431
  units Angstrom
}

dih_string = "1 9 10 5 300"
set optking fixed_dihedral = $dih_string

optimize('MP2/aug-cc-PVTZ')
--------------------------------------------------------------------------

  Memory set to   4.657 GiB by Python driver.
gradient() will perform analytic gradient computation.

*** tstart() called on gpu-2-10.local
*** at Sun Nov 12 04:21:57 2017

    SCF Algorithm Type (re)set to DF.

*** tstart() called on gpu-2-10.local
*** at Sun Nov 12 04:21:57 2017

   => Loading Basis Set <=

    Name: AUG-CC-PVTZ
    Role: ORBITAL
    Keyword: BASIS
    atoms 1-11  entry C          line   221 file /cbio/jclab/home/chayas/anaconda/envs/py35/share/psi4/basis/aug-cc-pvtz.gbs 
    atoms 12    entry N          line   267 file /cbio/jclab/home/chayas/anaconda/envs/py35/share/psi4/basis/aug-cc-pvtz.gbs 
    atoms 13    entry O          line   313 file /cbio/jclab/home/chayas/anaconda/envs/py35/share/psi4/basis/aug-cc-pvtz.gbs 
    atoms 14-21 entry H          line    34 file /cbio/jclab/home/chayas/anaconda/envs/py35/share/psi4/basis/aug-cc-pvtz.gbs 


         ---------------------------------------------------------
                                   SCF
            by Justin Turney, Rob Parrish, and Andy Simmonett
                              RHF Reference
                        8 Threads,   4768 MiB Core
         ---------------------------------------------------------

  ==> Geometry <==

    Molecular point group: c1
    Full point group: C1

    Geometry (in Angstrom), charge = -1, multiplicity = 1:

       Center              X                  Y                   Z               Mass       
    ------------   -----------------  -----------------  -----------------  -----------------
           C         -1.278790402571     0.723618605757    -0.568437631520    12.000000000000
           C         -0.285790402571     0.107618605757     1.545562368480    12.000000000000
           C         -2.356790402571     1.296618605757     0.104562368480    12.000000000000
           C         -1.363790402571     0.680618605757     2.219562368480    12.000000000000
           C          0.666209597429    -1.511381394243    -1.439437631520    12.000000000000
           C          2.165209597429     0.006618605757    -0.328437631520    12.000000000000
           C          1.770209597429    -2.045381394243    -2.083437631520    12.000000000000
           C          3.202209597429    -0.596381394243    -1.022437631520    12.000000000000
           C         -0.242790402571     0.128618605757     0.151562368480    12.000000000000
           C          0.876209597429    -0.466381394243    -0.546437631520    12.000000000000
           C         -2.399790402571     1.275618605757     1.498562368480    12.000000000000
           N          3.037209597429    -1.613381394243    -1.897437631520    14.003074004780
           O         -3.390790402571     1.801618605757     2.117562368480    15.994914619560
           H         -1.259790402571     0.748618605757    -1.655437631520     1.007825032070
           H          0.514209597429    -0.352381394243     2.120562368480     1.007825032070
           H         -3.152790402571     1.753618605757    -0.481437631520     1.007825032070
           H         -1.372790402571     0.651618605757     3.307562368480     1.007825032070
           H         -0.325790402571    -1.906381394243    -1.635437631520     1.007825032070
           H          2.367209597429     0.819618605757     0.360562368480     1.007825032070
           H          1.659209597429    -2.861381394243    -2.790437631520     1.007825032070
           H          4.227209597429    -0.264381394243    -0.887437631520     1.007825032070

  Running in c1 symmetry.

  Rotational constants: A =      0.09734  B =      0.01358  C =      0.01269 [cm^-1]
  Rotational constants: A =   2918.11512  B =    407.07164  C =    380.52115 [MHz]
  Nuclear repulsion =  685.988625539126247

  Charge       = -1
  Multiplicity = 1
  Electrons    = 90
  Nalpha       = 45
  Nbeta        = 45

  ==> Algorithm <==

  SCF Algorithm Type is DF.
  DIIS enabled.
  MOM disabled.
  Fractional occupation disabled.
  Guess Type is SAD.
  Energy threshold   = 1.00e-10
  Density threshold  = 1.00e-10
  Integral threshold = 0.00e+00

  ==> Primary Basis <==

  Basis Set: AUG-CC-PVTZ
    Blend: AUG-CC-PVTZ
    Number of shells: 254
    Number of basis function: 782
    Number of Cartesian functions: 915
    Spherical Harmonics?: true
    Max angular momentum: 3

   => Loading Basis Set <=

    Name: (AUG-CC-PVTZ AUX)
    Role: JKFIT
    Keyword: DF_BASIS_SCF
    atoms 1-11  entry C          line   161 file /cbio/jclab/home/chayas/anaconda/envs/py35/share/psi4/basis/aug-cc-pvtz-jkfit.gbs 
    atoms 12    entry N          line   223 file /cbio/jclab/home/chayas/anaconda/envs/py35/share/psi4/basis/aug-cc-pvtz-jkfit.gbs 
    atoms 13    entry O          line   285 file /cbio/jclab/home/chayas/anaconda/envs/py35/share/psi4/basis/aug-cc-pvtz-jkfit.gbs 
    atoms 14-21 entry H          line    69 file /cbio/jclab/home/chayas/anaconda/envs/py35/share/psi4/basis/aug-cc-pvtz-jkfit.gbs 

  ==> Pre-Iterations <==

   -------------------------------------------------------
    Irrep   Nso     Nmo     Nalpha   Nbeta   Ndocc  Nsocc
   -------------------------------------------------------
     A        782     782       0       0       0       0
   -------------------------------------------------------
    Total     782     782      45      45      45       0
   -------------------------------------------------------

  ==> Integral Setup <==

  ==> DFJK: Density-Fitted J/K Matrices <==

    J tasked:                  Yes
    K tasked:                  Yes
    wK tasked:                  No
    OpenMP threads:              8
    Integrals threads:           8
    Memory (MB):              3576
    Algorithm:                Disk
    Integral Cache:           NONE
    Schwarz Cutoff:          1E-12
    Fitting Condition:       1E-12

   => Auxiliary Basis Set <=

  Basis Set: (AUG-CC-PVTZ AUX)
    Blend: AUG-CC-PVTZ-JKFIT
    Number of shells: 502
    Number of basis function: 1720
    Number of Cartesian functions: 2143
    Spherical Harmonics?: true
    Max angular momentum: 4

  Minimum eigenvalue in the overlap matrix is 7.4059775764E-07.
  Using Symmetric Orthogonalization.

  SCF Guess: Superposition of Atomic Densities via on-the-fly atomic UHF.

  ==> Iterations <==

                           Total Energy        Delta E     RMS |[F,P]|

   @DF-RHF iter   0:  -560.41922853131894   -5.60419e+02   2.23033e-02 
   @DF-RHF iter   1:  -550.24973517893000    1.01695e+01   2.60106e-03 
   @DF-RHF iter   2:  -550.57755033482033   -3.27815e-01   1.34855e-03 DIIS
   @DF-RHF iter   3:  -550.68470944123112   -1.07159e-01   4.96302e-04 DIIS
   @DF-RHF iter   4:  -550.70843278964924   -2.37233e-02   1.68425e-04 DIIS
   @DF-RHF iter   5:  -550.71113140747957   -2.69862e-03   6.67585e-05 DIIS
   @DF-RHF iter   6:  -550.71166844851939   -5.37041e-04   2.67058e-05 DIIS
   @DF-RHF iter   7:  -550.71176674150217   -9.82930e-05   1.06448e-05 DIIS
   @DF-RHF iter   8:  -550.71178021470689   -1.34732e-05   3.02557e-06 DIIS
   @DF-RHF iter   9:  -550.71178235279035   -2.13808e-06   1.54197e-06 DIIS
   @DF-RHF iter  10:  -550.71178309206039   -7.39270e-07   8.76735e-07 DIIS
   @DF-RHF iter  11:  -550.71178328039423   -1.88334e-07   2.79635e-07 DIIS
   @DF-RHF iter  12:  -550.71178330375585   -2.33616e-08   1.27055e-07 DIIS
   @DF-RHF iter  13:  -550.71178330633006   -2.57421e-09   5.46431e-08 DIIS
   @DF-RHF iter  14:  -550.71178330677708   -4.47017e-10   1.98068e-08 DIIS
   @DF-RHF iter  15:  -550.71178330684131   -6.42331e-11   7.04433e-09 DIIS
   @DF-RHF iter  16:  -550.71178330683665    4.66116e-12   3.49435e-09 DIIS
   @DF-RHF iter  17:  -550.71178330683972   -3.06954e-12   1.40584e-09 DIIS
   @DF-RHF iter  18:  -550.71178330682801    1.17097e-11   6.17201e-10 DIIS
   @DF-RHF iter  19:  -550.71178330685029   -2.22826e-11   2.44258e-10 DIIS
   @DF-RHF iter  20:  -550.71178330685029    0.00000e+00   1.30321e-10 DIIS
   @DF-RHF iter  21:  -550.71178330683381    1.64846e-11   4.73043e-11 DIIS

  ==> Post-Iterations <==

    Orbital Energies (a.u.)
    -----------------------

    Doubly Occupied:                                                      

       1A    -20.288299     2A    -15.458625     3A    -11.171568  
       4A    -11.171374     5A    -11.144766     6A    -11.124653  
       7A    -11.124605     8A    -11.107964     9A    -11.095531  
      10A    -11.095505    11A    -11.072103    12A    -11.055829  
      13A    -11.055790    14A     -1.144814    15A     -1.121246  
      16A     -1.018369    17A     -0.957101    18A     -0.927883  
      19A     -0.862807    20A     -0.835950    21A     -0.748628  
      22A     -0.733644    23A     -0.677993    24A     -0.646603  
      25A     -0.594588    26A     -0.555511    27A     -0.545248  
      28A     -0.502444    29A     -0.493496    30A     -0.487447  
      31A     -0.478935    32A     -0.437497    33A     -0.430088  
      34A     -0.414571    35A     -0.404289    36A     -0.371576  
      37A     -0.356367    38A     -0.345977    39A     -0.312906  
      40A     -0.291689    41A     -0.253047    42A     -0.245944  
      43A     -0.206808    44A     -0.193846    45A     -0.104063  

    Virtual:                                                              

      46A      0.097455    47A      0.099306    48A      0.116461  
      49A      0.116754    50A      0.123999    51A      0.125526  
      52A      0.131355    53A      0.132442    54A      0.161636  
      55A      0.166676    56A      0.180224    57A      0.183950  
      58A      0.184786    59A      0.186536    60A      0.188400  
      61A      0.195641    62A      0.196344    63A      0.202351  
      64A      0.204729    65A      0.210733    66A      0.213309  
      67A      0.216029    68A      0.221854    69A      0.225914  
      70A      0.226432    71A      0.230397    72A      0.231391  
      73A      0.233836    74A      0.238345    75A      0.242104  
      76A      0.249084    77A      0.250620    78A      0.257423  
      79A      0.258222    80A      0.266432    81A      0.268157  
      82A      0.275667    83A      0.283366    84A      0.292256  
      85A      0.293434    86A      0.302192    87A      0.308412  
      88A      0.310578    89A      0.319480    90A      0.322111  
      91A      0.324854    92A      0.331246    93A      0.334684  
      94A      0.336029    95A      0.338615    96A      0.344797  
      97A      0.353511    98A      0.355216    99A      0.359562  
     100A      0.360758   101A      0.369540   102A      0.373286  
     103A      0.375674   104A      0.389417   105A      0.389692  
     106A      0.394742   107A      0.395125   108A      0.397791  
     109A      0.407566   110A      0.411090   111A      0.411384  
     112A      0.414500   113A      0.420010   114A      0.423215  
     115A      0.430308   116A      0.431369   117A      0.445088  
     118A      0.445741   119A      0.448906   120A      0.459835  
     121A      0.462678   122A      0.467460   123A      0.470110  
     124A      0.471195   125A      0.477867   126A      0.486384  
     127A      0.494846   128A      0.504650   129A      0.505389  
     130A      0.505842   131A      0.510778   132A      0.520555  
     133A      0.530577   134A      0.532953   135A      0.538413  
     136A      0.546270   137A      0.548282   138A      0.551078  
     139A      0.557981   140A      0.562607   141A      0.568858  
     142A      0.569822   143A      0.570769   144A      0.573067  
     145A      0.578893   146A      0.582040   147A      0.584619  
     148A      0.592161   149A      0.594211   150A      0.597393  
     151A      0.599164   152A      0.605644   153A      0.606196  
     154A      0.609659   155A      0.610357   156A      0.617396  
     157A      0.620766   158A      0.621813   159A      0.628854  
     160A      0.633251   161A      0.633786   162A      0.634960  
     163A      0.643425   164A      0.646707   165A      0.656105  
     166A      0.660350   167A      0.663935   168A      0.668978  
     169A      0.675702   170A      0.679374   171A      0.689341  
     172A      0.691384   173A      0.698895   174A      0.700886  
     175A      0.711182   176A      0.712705   177A      0.714973  
     178A      0.718897   179A      0.722412   180A      0.724452  
     181A      0.742598   182A      0.747392   183A      0.753967  
     184A      0.755779   185A      0.760602   186A      0.777263  
     187A      0.777716   188A      0.786985   189A      0.793031  
     190A      0.797987   191A      0.801717   192A      0.809051  
     193A      0.812889   194A      0.817408   195A      0.828225  
     196A      0.829458   197A      0.835331   198A      0.846832  
     199A      0.850488   200A      0.854372   201A      0.856623  
     202A      0.858248   203A      0.859277   204A      0.867581  
     205A      0.869888   206A      0.878983   207A      0.882871  
     208A      0.891210   209A      0.896916   210A      0.902046  
     211A      0.918832   212A      0.922830   213A      0.931231  
     214A      0.938726   215A      0.951141   216A      0.952873  
     217A      0.960559   218A      0.964628   219A      0.976775  
     220A      0.977064   221A      0.982792   222A      0.987355  
     223A      0.995490   224A      1.005508   225A      1.010796  
     226A      1.014715   227A      1.015241   228A      1.021750  
     229A      1.024477   230A      1.025204   231A      1.026169  
     232A      1.036366   233A      1.039999   234A      1.049572  
     235A      1.052312   236A      1.054567   237A      1.056054  
     238A      1.062983   239A      1.065122   240A      1.069261  
     241A      1.078005   242A      1.080644   243A      1.085805  
     244A      1.090193   245A      1.091117   246A      1.096867  
     247A      1.099642   248A      1.108399   249A      1.109955  
     250A      1.118148   251A      1.124871   252A      1.125388  
     253A      1.135063   254A      1.140323   255A      1.144378  
     256A      1.146592   257A      1.155416   258A      1.164400  
     259A      1.164806   260A      1.167613   261A      1.168521  
     262A      1.172142   263A      1.172233   264A      1.184560  
     265A      1.188465   266A      1.193763   267A      1.204090  
     268A      1.206802   269A      1.208524   270A      1.211778  
     271A      1.223408   272A      1.228955   273A      1.239296  
     274A      1.240683   275A      1.245693   276A      1.245992  
     277A      1.250099   278A      1.255130   279A      1.266849  
     280A      1.268630   281A      1.273251   282A      1.277106  
     283A      1.285860   284A      1.286080   285A      1.296857  
     286A      1.300102   287A      1.301590   288A      1.306117  
     289A      1.311803   290A      1.317475   291A      1.320551  
     292A      1.327304   293A      1.332820   294A      1.333941  
     295A      1.335739   296A      1.345786   297A      1.348962  
     298A      1.356504   299A      1.369784   300A      1.375945  
     301A      1.381062   302A      1.382337   303A      1.388976  
     304A      1.401639   305A      1.408374   306A      1.409220  
     307A      1.413876   308A      1.414528   309A      1.419446  
     310A      1.432335   311A      1.435599   312A      1.444053  
     313A      1.449904   314A      1.451729   315A      1.471931  
     316A      1.478936   317A      1.488324   318A      1.493297  
     319A      1.493922   320A      1.505943   321A      1.509627  
     322A      1.518619   323A      1.528898   324A      1.533892  
     325A      1.536126   326A      1.543194   327A      1.562119  
     328A      1.570838   329A      1.574949   330A      1.582466  
     331A      1.588245   332A      1.592218   333A      1.598521  
     334A      1.615699   335A      1.628788   336A      1.629085  
     337A      1.644173   338A      1.649021   339A      1.663779  
     340A      1.669860   341A      1.677935   342A      1.680264  
     343A      1.688499   344A      1.691784   345A      1.707581  
     346A      1.708520   347A      1.714325   348A      1.731837  
     349A      1.739315   350A      1.742361   351A      1.754410  
     352A      1.757998   353A      1.770088   354A      1.770209  
     355A      1.780869   356A      1.807039   357A      1.808836  
     358A      1.817155   359A      1.820786   360A      1.827230  
     361A      1.833908   362A      1.834532   363A      1.841856  
     364A      1.843708   365A      1.850496   366A      1.862847  
     367A      1.877707   368A      1.881170   369A      1.882997  
     370A      1.896758   371A      1.911652   372A      1.920998  
     373A      1.925381   374A      1.932379   375A      1.937944  
     376A      1.945501   377A      1.963592   378A      1.976137  
     379A      1.979953   380A      1.992307   381A      1.998456  
     382A      2.001628   383A      2.014639   384A      2.021208  
     385A      2.021529   386A      2.032099   387A      2.034226  
     388A      2.047263   389A      2.066467   390A      2.075858  
     391A      2.076650   392A      2.082335   393A      2.089567  
     394A      2.092712   395A      2.099443   396A      2.105015  
     397A      2.108513   398A      2.125738   399A      2.132377  
     400A      2.142451   401A      2.149819   402A      2.160830  
     403A      2.164256   404A      2.166427   405A      2.168961  
     406A      2.176351   407A      2.187490   408A      2.199573  
     409A      2.203874   410A      2.206849   411A      2.220333  
     412A      2.230780   413A      2.241742   414A      2.256350  
     415A      2.257611   416A      2.264184   417A      2.268689  
     418A      2.283018   419A      2.288265   420A      2.298952  
     421A      2.302294   422A      2.311772   423A      2.314528  
     424A      2.327817   425A      2.339044   426A      2.345109  
     427A      2.357712   428A      2.358561   429A      2.372074  
     430A      2.379634   431A      2.382320   432A      2.405823  
     433A      2.410079   434A      2.417152   435A      2.418630  
     436A      2.422846   437A      2.426528   438A      2.457274  
     439A      2.465388   440A      2.478822   441A      2.498485  
     442A      2.514907   443A      2.518671   444A      2.526561  
     445A      2.532894   446A      2.552921   447A      2.558561  
     448A      2.563741   449A      2.584827   450A      2.586506  
     451A      2.598360   452A      2.601321   453A      2.619058  
     454A      2.634164   455A      2.642557   456A      2.655388  
     457A      2.668475   458A      2.673317   459A      2.686542  
     460A      2.692477   461A      2.699579   462A      2.709339  
     463A      2.712937   464A      2.744460   465A      2.751890  
     466A      2.757081   467A      2.759572   468A      2.782922  
     469A      2.806725   470A      2.824472   471A      2.830324  
     472A      2.869251   473A      2.877832   474A      2.887789  
     475A      2.894819   476A      2.908606   477A      2.915558  
     478A      2.943065   479A      2.945427   480A      2.963684  
     481A      2.964580   482A      3.004525   483A      3.018774  
     484A      3.036494   485A      3.048625   486A      3.080631  
     487A      3.121517   488A      3.135547   489A      3.139449  
     490A      3.177801   491A      3.197116   492A      3.206810  
     493A      3.232862   494A      3.235283   495A      3.285847  
     496A      3.312467   497A      3.323380   498A      3.338165  
     499A      3.345854   500A      3.375790   501A      3.378188  
     502A      3.391862   503A      3.396129   504A      3.401594  
     505A      3.438663   506A      3.445376   507A      3.445890  
     508A      3.456809   509A      3.469486   510A      3.510786  
     511A      3.511520   512A      3.521696   513A      3.527981  
     514A      3.531649   515A      3.545127   516A      3.549639  
     517A      3.566443   518A      3.571262   519A      3.579195  
     520A      3.596948   521A      3.599158   522A      3.606295  
     523A      3.628834   524A      3.632025   525A      3.651824  
     526A      3.654373   527A      3.663222   528A      3.678523  
     529A      3.684628   530A      3.685261   531A      3.694216  
     532A      3.697491   533A      3.701912   534A      3.711051  
     535A      3.719150   536A      3.727433   537A      3.733144  
     538A      3.749060   539A      3.756945   540A      3.766183  
     541A      3.770897   542A      3.780790   543A      3.799148  
     544A      3.800038   545A      3.819447   546A      3.824381  
     547A      3.828976   548A      3.833777   549A      3.842907  
     550A      3.859391   551A      3.866122   552A      3.870874  
     553A      3.891578   554A      3.902224   555A      3.916075  
     556A      3.918433   557A      3.933064   558A      3.943108  
     559A      3.952809   560A      3.956405   561A      3.958934  
     562A      3.970323   563A      3.978780   564A      3.999240  
     565A      4.000045   566A      4.018287   567A      4.021587  
     568A      4.027333   569A      4.050836   570A      4.051664  
     571A      4.064468   572A      4.069933   573A      4.072957  
     574A      4.080701   575A      4.090501   576A      4.101283  
     577A      4.112258   578A      4.114040   579A      4.120087  
     580A      4.144989   581A      4.147562   582A      4.157614  
     583A      4.162076   584A      4.166464   585A      4.174464  
     586A      4.186870   587A      4.196209   588A      4.208644  
     589A      4.214257   590A      4.214498   591A      4.228156  
     592A      4.240713   593A      4.253020   594A      4.261881  
     595A      4.262488   596A      4.272409   597A      4.291508  
     598A      4.295767   599A      4.310437   600A      4.313551  
     601A      4.322403   602A      4.331427   603A      4.345304  
     604A      4.350567   605A      4.360280   606A      4.381954  
     607A      4.383836   608A      4.410029   609A      4.411294  
     610A      4.422080   611A      4.438214   612A      4.445042  
     613A      4.445668   614A      4.456232   615A      4.466749  
     616A      4.467401   617A      4.482436   618A      4.504024  
     619A      4.505613   620A      4.518071   621A      4.520280  
     622A      4.525246   623A      4.525313   624A      4.550572  
     625A      4.562436   626A      4.566254   627A      4.574227  
     628A      4.575938   629A      4.602262   630A      4.610335  
     631A      4.612117   632A      4.617611   633A      4.642426  
     634A      4.659117   635A      4.665433   636A      4.670222  
     637A      4.686174   638A      4.686849   639A      4.703377  
     640A      4.710319   641A      4.746089   642A      4.750568  
     643A      4.765099   644A      4.784377   645A      4.786934  
     646A      4.811675   647A      4.827689   648A      4.840470  
     649A      4.842704   650A      4.873660   651A      4.880604  
     652A      4.901715   653A      4.931808   654A      4.945095  
     655A      4.947578   656A      4.965042   657A      4.985142  
     658A      5.001576   659A      5.012888   660A      5.029410  
     661A      5.041271   662A      5.060909   663A      5.075079  
     664A      5.083044   665A      5.095595   666A      5.104995  
     667A      5.118291   668A      5.128007   669A      5.131796  
     670A      5.151010   671A      5.158397   672A      5.169227  
     673A      5.171629   674A      5.185476   675A      5.193013  
     676A      5.220080   677A      5.236700   678A      5.248275  
     679A      5.260954   680A      5.269891   681A      5.274794  
     682A      5.277651   683A      5.285681   684A      5.303588  
     685A      5.303863   686A      5.312371   687A      5.314601  
     688A      5.329350   689A      5.353513   690A      5.356516  
     691A      5.379158   692A      5.393468   693A      5.410155  
     694A      5.459868   695A      5.471054   696A      5.480877  
     697A      5.484585   698A      5.492445   699A      5.507121  
     700A      5.513575   701A      5.527760   702A      5.553578  
     703A      5.565312   704A      5.569141   705A      5.583564  
     706A      5.586968   707A      5.645480   708A      5.655332  
     709A      5.670772   710A      5.685043   711A      5.697133  
     712A      5.764745   713A      5.775658   714A      5.824969  
     715A      5.827778   716A      5.864239   717A      5.878838  
     718A      5.898870   719A      5.904019   720A      5.919655  
     721A      5.944259   722A      5.965378   723A      5.980860  
     724A      5.987776   725A      6.014997   726A      6.086050  
     727A      6.134316   728A      6.185389   729A      6.247664  
     730A      6.248773   731A      6.295988   732A      6.303615  
     733A      6.340814   734A      6.395940   735A      6.402246  
     736A      6.452547   737A      6.462508   738A      6.473212  
     739A      6.544020   740A      6.611227   741A      6.612871  
     742A      6.659261   743A      6.693790   744A      6.725069  
     745A      6.803956   746A      6.827392   747A      6.827565  
     748A      6.891374   749A      6.908186   750A      6.977096  
     751A      6.993380   752A      7.027611   753A      7.039586  
     754A      7.073859   755A      7.144559   756A      7.184670  
     757A      7.200124   758A      7.256408   759A      7.316052  
     760A      7.361365   761A      7.367767   762A      7.528231  
     763A      7.625421   764A      7.651695   765A      7.941982  
     766A      7.953394   767A      8.034665   768A      8.158807  
     769A      8.227173   770A     15.720397   771A     16.119996  
     772A     16.405507   773A     16.678617   774A     17.000221  
     775A     18.529933   776A     18.811305   777A     19.332191  
     778A     19.908696   779A     20.204381   780A     20.216255  
     781A     20.340903   782A     21.846464  

    Final Occupation by Irrep:
              A 
    DOCC [    45 ]

  Energy converged.

  @DF-RHF Final Energy:  -550.71178330683381

   => Energetics <=

    Nuclear Repulsion Energy =            685.9886255391262466
    One-Electron Energy =               -2122.0648406185846397
    Two-Electron Energy =                 885.3644317726246982
    DFT Exchange-Correlation Energy =       0.0000000000000000
    Empirical Dispersion Energy =           0.0000000000000000
    PCM Polarization Energy =               0.0000000000000000
    EFP Energy =                            0.0000000000000000
    Total Energy =                       -550.7117833068338086



Properties will be evaluated at   0.000000,   0.000000,   0.000000 Bohr

Properties computed using the SCF density matrix

  Nuclear Dipole Moment: (a.u.)
     X:     2.4654      Y:    -1.3095      Z:    -1.5419

  Electronic Dipole Moment: (a.u.)
     X:     0.6068      Y:    -0.3226      Z:    -0.3767

  Dipole Moment: (a.u.)
     X:     3.0722      Y:    -1.6321      Z:    -1.9186     Total:     3.9728

  Dipole Moment: (Debye)
     X:     7.8089      Y:    -4.1483      Z:    -4.8766     Total:    10.0979


*** tstop() called on gpu-2-10.local at Sun Nov 12 04:29:29 2017
Module time:
	user time   =    1111.06 seconds =      18.52 minutes
	system time =      53.32 seconds =       0.89 minutes
	total time  =        452 seconds =       7.53 minutes
Total time:
	user time   =    1111.07 seconds =      18.52 minutes
	system time =      53.32 seconds =       0.89 minutes
	total time  =        452 seconds =       7.53 minutes

  //>>>>>>>>>>>>>>>>>>>>>>>>>>>>>>>>>>>//
  //               DFMP2               //
  //<<<<<<<<<<<<<<<<<<<<<<<<<<<<<<<<<<<//

   => Loading Basis Set <=

    Name: (AUG-CC-PVTZ AUX)
    Role: RIFIT
    Keyword: DF_BASIS_MP2
    atoms 1-11  entry C          line   147 file /cbio/jclab/home/chayas/anaconda/envs/py35/share/psi4/basis/aug-cc-pvtz-ri.gbs 
    atoms 12    entry N          line   205 file /cbio/jclab/home/chayas/anaconda/envs/py35/share/psi4/basis/aug-cc-pvtz-ri.gbs 
    atoms 13    entry O          line   263 file /cbio/jclab/home/chayas/anaconda/envs/py35/share/psi4/basis/aug-cc-pvtz-ri.gbs 
    atoms 14-21 entry H          line    29 file /cbio/jclab/home/chayas/anaconda/envs/py35/share/psi4/basis/aug-cc-pvtz-ri.gbs 

	 --------------------------------------------------------
	                          DF-MP2                         
	      2nd-Order Density-Fitted Moller-Plesset Theory     
	              RMP2 Wavefunction,   8 Threads             
	                                                         
	        Rob Parrish, Justin Turney, Andy Simmonett,      
	           Ed Hohenstein, and C. David Sherrill          
	 --------------------------------------------------------

   => Auxiliary Basis Set <=

  Basis Set: (AUG-CC-PVTZ AUX)
    Blend: AUG-CC-PVTZ-RI
    Number of shells: 476
    Number of basis function: 1746
    Number of Cartesian functions: 2208
    Spherical Harmonics?: true
    Max angular momentum: 4

	 --------------------------------------------------------
	                 NBF =   782, NAUX =  1746
	 --------------------------------------------------------
	   CLASS    FOCC     OCC    AOCC    AVIR     VIR    FVIR
	   PAIRS       0      45      45     737     737       0
	 --------------------------------------------------------


         ------------------------------------------------------------
                                     CPHF                           
                                  Rob Parrish                       
         ------------------------------------------------------------

  ==> Geometry <==

    Molecular point group: c1
    Full point group: C1

    Geometry (in Angstrom), charge = -1, multiplicity = 1:

       Center              X                  Y                   Z               Mass       
    ------------   -----------------  -----------------  -----------------  -----------------
           C         -1.278790402571     0.723618605757    -0.568437631520    12.000000000000
           C         -0.285790402571     0.107618605757     1.545562368480    12.000000000000
           C         -2.356790402571     1.296618605757     0.104562368480    12.000000000000
           C         -1.363790402571     0.680618605757     2.219562368480    12.000000000000
           C          0.666209597429    -1.511381394243    -1.439437631520    12.000000000000
           C          2.165209597429     0.006618605757    -0.328437631520    12.000000000000
           C          1.770209597429    -2.045381394243    -2.083437631520    12.000000000000
           C          3.202209597429    -0.596381394243    -1.022437631520    12.000000000000
           C         -0.242790402571     0.128618605757     0.151562368480    12.000000000000
           C          0.876209597429    -0.466381394243    -0.546437631520    12.000000000000
           C         -2.399790402571     1.275618605757     1.498562368480    12.000000000000
           N          3.037209597429    -1.613381394243    -1.897437631520    14.003074004780
           O         -3.390790402571     1.801618605757     2.117562368480    15.994914619560
           H         -1.259790402571     0.748618605757    -1.655437631520     1.007825032070
           H          0.514209597429    -0.352381394243     2.120562368480     1.007825032070
           H         -3.152790402571     1.753618605757    -0.481437631520     1.007825032070
           H         -1.372790402571     0.651618605757     3.307562368480     1.007825032070
           H         -0.325790402571    -1.906381394243    -1.635437631520     1.007825032070
           H          2.367209597429     0.819618605757     0.360562368480     1.007825032070
           H          1.659209597429    -2.861381394243    -2.790437631520     1.007825032070
           H          4.227209597429    -0.264381394243    -0.887437631520     1.007825032070

  Nuclear repulsion =  685.988625539126247
  Reference energy  = -550.711783306833809

  ==> Basis Set <==

  Basis Set: AUG-CC-PVTZ
    Blend: AUG-CC-PVTZ
    Number of shells: 254
    Number of basis function: 782
    Number of Cartesian functions: 915
    Spherical Harmonics?: true
    Max angular momentum: 3

  ==> CGRSolver (by Rob Parrish) <==

   Number of roots    =         1
   Preconditioning    =    JACOBI
   Convergence cutoff =     1E-06
   Maximum iterations =       100

  ==> CPHFRHamiltonian (by Rob Parrish) <== 

  ==> DFJK: Density-Fitted J/K Matrices <==

    J tasked:                  Yes
    K tasked:                  Yes
    wK tasked:                  No
    OpenMP threads:              8
    Integrals threads:           8
    Memory (MB):              3576
    Algorithm:                Disk
    Integral Cache:           NONE
    Schwarz Cutoff:          1E-12
    Fitting Condition:       1E-12

   => Auxiliary Basis Set <=

  Basis Set: (AUG-CC-PVTZ AUX)
    Blend: AUG-CC-PVTZ-JKFIT
    Number of shells: 502
    Number of basis function: 1720
    Number of Cartesian functions: 2143
    Spherical Harmonics?: true
    Max angular momentum: 4

  ==> CPHF Iterations <==

  => Iterations <=

             Iter  Converged  Remaining    Residual
  CGR           1          0          1   1.311E-01
  CGR           2          0          1   4.945E-02
  CGR           3          0          1   2.919E-02
  CGR           4          0          1   1.055E-02
  CGR           5          0          1   4.762E-03
  CGR           6          0          1   2.533E-03
  CGR           7          0          1   7.377E-04
  CGR           8          0          1   2.322E-04
  CGR           9          0          1   8.832E-05
  CGR          10          0          1   2.673E-05
  CGR          11          0          1   9.953E-06
  CGR          12          0          1   2.684E-06
  CGR          13          1          0   8.875E-07

    CGRSolver converged.

  ==> DFCorrGrad: Density-Fitted Correlated Gradients <==

    OpenMP threads:              8
    Integrals threads:           8
    Memory (MB):              3576
    Schwarz Cutoff:          0E+00
    Fitting Condition:       1E-12

   => Auxiliary Basis Set <=

  Basis Set: (AUG-CC-PVTZ AUX)
    Blend: AUG-CC-PVTZ-JKFIT
    Number of shells: 502
    Number of basis function: 1720
    Number of Cartesian functions: 2143
    Spherical Harmonics?: true
    Max angular momentum: 4

	-----------------------------------------------------------
	 ==================> DF-MP2 Energies <==================== 
	-----------------------------------------------------------
	 Reference Energy          =    -550.7117833068338086 [Eh]
	 Singles Energy            =      -0.0000000000000001 [Eh]
	 Same-Spin Energy          =      -0.6134525830317273 [Eh]
	 Opposite-Spin Energy      =      -1.8375215162057417 [Eh]
	 Correlation Energy        =      -2.4509740992374689 [Eh]
	 Total Energy              =    -553.1627574060712504 [Eh]
	-----------------------------------------------------------
	 ================> DF-SCS-MP2 Energies <================== 
	-----------------------------------------------------------
	 SCS Same-Spin Scale       =       0.3333333333333333 [-]
	 SCS Opposite-Spin Scale   =       1.2000000000000000 [-]
	 SCS Same-Spin Energy      =      -0.2044841943439091 [Eh]
	 SCS Opposite-Spin Energy  =      -2.2050258194468899 [Eh]
	 SCS Correlation Energy    =      -2.4095100137907992 [Eh]
	 SCS Total Energy          =    -553.1212933206246589 [Eh]
	-----------------------------------------------------------


  -Total Gradient:
     Atom            X                  Y                   Z
    ------   -----------------  -----------------  -----------------
       1        0.015432183297    -0.002100260027    -0.005349792481
       2        0.008738956309    -0.010707645926    -0.009754439355
       3       -0.022024062692     0.010936345945     0.035860546438
       4       -0.038108509153     0.020867506755     0.002555447501
       5       -0.011670938816     0.001173554514     0.008129932300
       6       -0.009559893729     0.010773209149     0.005403084581
       7       -0.010945757433    -0.002115714717     0.002035188588
       8       -0.002298372313     0.008872645501     0.006177134704
       9       -0.005630586119     0.003045102311     0.003478480631
      10        0.013459786873    -0.007136621499    -0.008037299526
      11        0.047834883843    -0.025241786630    -0.030390878785
      12        0.008441272164    -0.004705615513    -0.005500968655
      13        0.002208880929    -0.001239283550    -0.001302542249
      14       -0.002924479680     0.001360507532    -0.002848142004
      15        0.000657138527    -0.000120015108     0.004133134282
      16       -0.002237800271     0.000655195540    -0.008837932456
      17        0.005723058386    -0.002495148814     0.006317223336
      18       -0.003327574826    -0.003576835212    -0.003513202261
      19        0.004062081661     0.002609919558     0.002619800818
      20        0.000008599619    -0.001048604450    -0.001603211476
      21        0.002161133409     0.000193544652     0.000428436084


*** tstop() called on gpu-2-10.local at Sun Nov 12 04:57:39 2017
Module time:
	user time   =    4621.36 seconds =      77.02 minutes
	system time =     104.10 seconds =       1.74 minutes
	total time  =       2142 seconds =      35.70 minutes
Total time:
	user time   =    4621.37 seconds =      77.02 minutes
	system time =     104.10 seconds =       1.74 minutes
	total time  =       2142 seconds =      35.70 minutes

			-----------------------------------------
			 OPTKING 2.0: for geometry optimizations 
			  - R.A. King,  Bethel University        
			-----------------------------------------

	Internal coordinates to be generated automatically.
	Detected frag 1 with atoms:  1 2 3 4 5 6 7 8 9 10 11 12 13 14 15 16 17 18 19 20
	 21
	---Fragment 1 Bond Connectivity---
	 1 : 3 9 14
	 2 : 4 9 15
	 3 : 1 11 16
	 4 : 2 11 17
	 5 : 7 10 18
	 6 : 8 10 19
	 7 : 5 12 20
	 8 : 6 12 21
	 9 : 1 2 10
	 10 : 5 6 9
	 11 : 3 4 13
	 12 : 7 8
	 13 : 11
	 14 : 1
	 15 : 2
	 16 : 3
	 17 : 4
	 18 : 5
	 19 : 6
	 20 : 7
	 21 : 8

	Assuming in current code that numbering for constraints corresponds to unified fragment.
	Fixed dihedral atom list: 
	     1     9    10     5
	---Fragment 1 Geometry and Gradient---
	 C          -2.4165636422        1.3674409895       -1.0741914472
	 C          -0.5400655923        0.2033696917        2.9206895977
	 C          -4.4536884135        2.4502540637        0.1975942402
	 C          -2.5771903635        1.2861827658        4.1943650113
	 C           1.2589536862       -2.8560969175       -2.7201429089
	 C           4.0916531594        0.0125073523       -0.6206571753
	 C           3.3452113369       -3.8652106724       -3.9371265385
	 C           6.0512991592       -1.1269975059       -1.9321271115
	 C          -0.4588073686        0.2430539405        0.2864113685
	 C           1.6557961741       -0.8813331086       -1.0326174723
	 C          -4.5349466372        2.4105698149        2.8318724695
	 N           5.7394943473       -3.0488489830       -3.5856374778
	 O          -6.4076652349        3.4045657608        4.0016129457
	 H          -2.3806588457        1.4146841429       -3.1283237536
	 H           0.9717153140       -0.6659043294        4.0072821241
	 H          -5.9579104152        3.3138589064       -0.9097852736
	 H          -2.5941978987        1.2313807080        6.2503870439
	 H          -0.6156546376       -3.6025387399       -3.0905292310
	 H           4.4733778383        1.5488546983        0.6813641303
	 H           3.1354517362       -5.4072271969       -5.2731629145
	 H           7.9882684454       -0.4996084297       -1.6770140836
	             0.0154321833       -0.0021002600       -0.0053497925
	             0.0087389563       -0.0107076459       -0.0097544394
	            -0.0220240627        0.0109363459        0.0358605464
	            -0.0381085092        0.0208675068        0.0025554475
	            -0.0116709388        0.0011735545        0.0081299323
	            -0.0095598937        0.0107732091        0.0054030846
	            -0.0109457574       -0.0021157147        0.0020351886
	            -0.0022983723        0.0088726455        0.0061771347
	            -0.0056305861        0.0030451023        0.0034784806
	             0.0134597869       -0.0071366215       -0.0080372995
	             0.0478348838       -0.0252417866       -0.0303908788
	             0.0084412722       -0.0047056155       -0.0055009687
	             0.0022088809       -0.0012392836       -0.0013025422
	            -0.0029244797        0.0013605075       -0.0028481420
	             0.0006571385       -0.0001200151        0.0041331343
	            -0.0022378003        0.0006551955       -0.0088379325
	             0.0057230584       -0.0024951488        0.0063172233
	            -0.0033275748       -0.0035768352       -0.0035132023
	             0.0040620817        0.0026099196        0.0026198008
	             0.0000085996       -0.0010486045       -0.0016032115
	             0.0021611334        0.0001935447        0.0004284361

	Previous optimization step data not found.  Starting new optimization.

	---Fragment 1 Intrafragment Coordinates---
	 - Coordinate -           - BOHR/RAD -       - ANG/DEG -
	 R(1,3)           =         2.634350	       1.394038
	 R(1,9)           =         2.635962	       1.394891
	 R(1,14)          =         2.054989	       1.087453
	 R(2,4)           =         2.635263	       1.394521
	 R(2,9)           =         2.635830	       1.394821
	 R(2,15)          =         2.054702	       1.087302
	 R(3,11)          =         2.635830	       1.394821
	 R(3,16)          =         2.057860	       1.088972
	 R(4,11)          =         2.636938	       1.395407
	 R(4,17)          =         2.056823	       1.088424
	 R(5,7)           =         2.617600	       1.385174
	 R(5,10)          =         2.627721	       1.390530
	 R(5,18)          =         2.051467	       1.085590
	 R(6,8)           =         2.618900	       1.385862
	 R(6,10)          =         2.627177	       1.390242
	 R(6,19)          =         2.049716	       1.084663
	 R(7,12)          =         2.553935	       1.351484
	 R(7,20)          =         2.051050	       1.085369
	 R(8,12)          =         2.554375	       1.351717
	 R(8,21)          =         2.051962	       1.085852
	 R(9,10)          =         2.734160	       1.446855
	 R(11,13)         =         2.421445	       1.281373
	 B(1,3,11)        =         2.094553	     120.009056
	 B(1,3,16)        =         2.069123	     118.552025
	 B(1,9,2)         =         2.093692	     119.959722
	 B(1,9,10)        =         2.095337	     120.053983
	 B(2,4,11)        =         2.093699	     119.960108
	 B(2,4,17)        =         2.069829	     118.592446
	 B(2,9,10)        =         2.094156	     119.986294
	 B(3,1,9)         =         2.094940	     120.031219
	 B(3,1,14)        =         2.079025	     119.119344
	 B(3,11,4)        =         2.094306	     119.994870
	 B(3,11,13)       =         2.094918	     120.029973
	 B(4,2,9)         =         2.095181	     120.045019
	 B(4,2,15)        =         2.079455	     119.143974
	 B(4,11,13)       =         2.093961	     119.975136
	 B(5,7,12)        =         2.165152	     124.054063
	 B(5,7,20)        =         2.107343	     120.741885
	 B(5,10,6)        =         2.090256	     119.762843
	 B(5,10,9)        =         2.096779	     120.136600
	 B(6,8,12)        =         2.165409	     124.068779
	 B(6,8,21)        =         2.107195	     120.733355
	 B(6,10,9)        =         2.096148	     120.100442
	 B(7,5,10)        =         2.057737	     117.899660
	 B(7,5,18)        =         2.099123	     120.270885
	 B(7,12,8)        =         2.030878	     116.360747
	 B(8,6,10)        =         2.056938	     117.853874
	 B(8,6,19)        =         2.100038	     120.323327
	 B(9,1,14)        =         2.109221	     120.849435
	 B(9,2,15)        =         2.108550	     120.811005
	 B(10,5,18)       =         2.126325	     121.829454
	 B(10,6,19)       =         2.126208	     121.822751
	 B(11,3,16)       =         2.119509	     121.438903
	 B(11,4,17)       =         2.119657	     121.447411
	 B(12,7,20)       =         2.010689	     115.204008
	 B(12,8,21)       =         2.010582	     115.197858
	 D(1,3,11,4)      =        -0.000325	      -0.018609
	 D(1,3,11,13)     =        -3.141004	    -179.966279
	 D(1,9,2,4)       =         0.000325	       0.018608
	 D(1,9,2,15)      =        -3.141527	    -179.996257
	 D(1,9,10,5)      =        -1.046812	     -59.977927
	 D(1,9,10,6)      =         2.092626	     119.898639
	 D(2,4,11,3)      =         0.000301	       0.017261
	 D(2,4,11,13)     =         3.140981	     179.964960
	 D(2,9,1,3)       =        -0.000348	      -0.019945
	 D(2,9,1,14)      =         3.141027	     179.967567
	 D(2,9,10,5)      =         2.094997	     120.034512
	 D(2,9,10,6)      =        -1.048750	     -60.088921
	 D(3,1,9,10)      =         3.141462	     179.992491
	 D(3,11,4,17)     =         3.140700	     179.948827
	 D(4,2,9,10)      =        -3.141485	    -179.993820
	 D(4,11,3,16)     =         3.140472	     179.935781
	 D(5,7,12,8)      =         0.000096	       0.005479
	 D(5,10,6,8)      =        -0.001160	      -0.066486
	 D(5,10,6,19)     =        -3.141369	    -179.987161
	 D(6,8,12,7)      =        -0.000555	      -0.031773
	 D(6,10,5,7)      =         0.000750	       0.042981
	 D(6,10,5,18)     =        -3.140963	    -179.963933
	 D(7,5,10,9)      =         3.140196	     179.919966
	 D(7,12,8,21)     =         3.141593	     180.000000
	 D(8,6,10,9)      =        -3.140607	    -179.943515
	 D(8,12,7,20)     =         3.140368	     179.929847
	 D(9,1,3,11)      =         0.000348	       0.019955
	 D(9,1,3,16)      =        -3.140471	    -179.935743
	 D(9,2,4,11)      =        -0.000301	      -0.017270
	 D(9,2,4,17)      =        -3.140734	    -179.950778
	 D(9,10,5,18)     =        -0.001518	      -0.086949
	 D(9,10,6,19)     =         0.002370	       0.135810
	 D(10,5,7,12)     =        -0.000208	      -0.011915
	 D(10,5,7,20)     =        -3.140411	    -179.932295
	 D(10,6,8,12)     =         0.001094	       0.062708
	 D(10,6,8,21)     =        -3.141072	    -179.970196
	 D(10,9,1,14)     =        -0.000349	      -0.019997
	 D(10,9,2,15)     =        -0.000152	      -0.008685
	 D(11,3,1,14)     =        -3.141030	    -179.967773
	 D(11,4,2,15)     =         3.141546	     179.997347
	 D(12,7,5,18)     =         3.141503	     179.994887
	 D(12,8,6,19)     =         3.141324	     179.984625
	 D(13,11,3,16)    =        -0.000207	      -0.011889
	 D(13,11,4,17)    =        -0.001806	      -0.103475
	 D(14,1,3,16)     =         0.001336	       0.076530
	 D(15,2,4,17)     =         0.001114	       0.063839
	 D(18,5,7,20)     =         0.001300	       0.074507
	 D(19,6,8,21)     =        -0.000843	      -0.048279

	Current energy   :      -553.1627574061

	Generating empirical Hessian (Schlegel '84) for each fragment.
	Adding user-defined constraint: Fragment 1; Coordinate 61:
		Value =    -1.046812; Fixed value    =    -1.047198
		Force =    -0.000193; Force constant =     0.500000
	Removing off-diagonal coupling between coordinate 61 and others.
	Taking RFO optimization step.
	Going to follow RFO solution 1.
	Using RFO vector 1.

	Determining step-restricting scale parameter for RS-RFO.
	Maximum step size allowed    0.10000

	 Iter      |step|        alpha        rfo_root  
	------------------------------------------------
	    0     0.28811       1.00000           1
	    1     0.21228       4.06141           1
	    2     0.15729      13.75841           1
	    3     0.12172      31.67554           1
	    4     0.10492      48.56875           1
	    5     0.10035      54.88880           1
	    6     0.10000      55.41523           1
	------------------------------------------------
	Norm of target step-size    0.10000
	Projected energy change by RFO approximation:        -0.0066567727

	Back-transformation to cartesian coordinates...
	Could not converge backtransformation.
	Using first guess instead.

	--- Internal Coordinate Step in ANG or DEG, aJ/ANG or AJ/DEG ---
	 ---------------------------------------------------------------------------
	   Coordinate                Previous        Force       Change         New 
	   ----------                --------       ------       ------       ------
	    1 R(1,3)          =      1.394038    -0.033761    -0.002593     1.391445
	    2 R(1,9)          =      1.394891     0.024306     0.001599     1.396490
	    3 R(1,14)         =      1.087453    -0.023292    -0.002076     1.085378
	    4 R(2,4)          =      1.394521    -0.036819    -0.002843     1.391678
	    5 R(2,9)          =      1.394821     0.025300     0.001668     1.396489
	    6 R(2,15)         =      1.087302    -0.022409    -0.001993     1.085309
	    7 R(3,11)         =      1.394821     0.213412     0.017099     1.411920
	    8 R(3,16)         =      1.088972    -0.054924    -0.004929     1.084043
	    9 R(4,11)         =      1.395407     0.210073     0.016880     1.412288
	   10 R(4,17)         =      1.088424    -0.052183    -0.004678     1.083745
	   11 R(5,7)          =      1.385174     0.014736     0.001114     1.386289
	   12 R(5,10)         =      1.390530     0.015926     0.001564     1.392094
	   13 R(5,18)         =      1.085590    -0.040999    -0.003659     1.081931
	   14 R(6,8)          =      1.385862     0.010567     0.000787     1.386649
	   15 R(6,10)         =      1.390242     0.018355     0.001734     1.391977
	   16 R(6,19)         =      1.084663    -0.036060    -0.003212     1.081451
	   17 R(7,12)         =      1.351484    -0.101076    -0.007276     1.344208
	   18 R(7,20)         =      1.085369    -0.015092    -0.001345     1.084024
	   19 R(8,12)         =      1.351717    -0.103455    -0.007453     1.344264
	   20 R(8,21)         =      1.085852    -0.017734    -0.001578     1.084274
	   21 R(9,10)         =      1.446855     0.103087     0.008797     1.455652
	   22 R(11,13)        =      1.281373     0.023450     0.001379     1.282752
	   23 B(1,3,11)       =    120.009056     0.000741     0.963633   120.972689
	   24 B(1,3,16)       =    118.552025     0.000116     0.207224   118.759249
	   25 B(1,9,2)        =    119.959722    -0.000600    -0.855634   119.104087
	   26 B(1,9,10)       =    120.053983     0.000292     0.418302   120.472285
	   27 B(2,4,11)       =    119.960108     0.000755     0.978289   120.938397
	   28 B(2,4,17)       =    118.592446     0.000106     0.196077   118.788523
	   29 B(2,9,10)       =    119.986294     0.000308     0.437154   120.423448
	   30 B(3,1,9)        =    120.031219     0.000528     0.600734   120.631953
	   31 B(3,1,14)       =    119.119344    -0.000011     0.060928   119.180273
	   32 B(3,11,4)       =    119.994870    -0.001954    -2.288337   117.706533
	   33 B(3,11,13)      =    120.029973     0.000969     1.134896   121.164869
	   34 B(4,2,9)        =    120.045019     0.000530     0.601175   120.646194
	   35 B(4,2,15)       =    119.143974    -0.000018     0.053387   119.197361
	   36 B(4,11,13)      =    119.975136     0.000985     1.153456   121.128592
	   37 B(5,7,12)       =    124.054063     0.000097     0.085611   124.139675
	   38 B(5,7,20)       =    120.741885    -0.000068    -0.071382   120.670503
	   39 B(5,10,6)       =    119.762843    -0.001337    -1.581461   118.181382
	   40 B(5,10,9)       =    120.136600     0.000663     0.784046   120.920646
	   41 B(6,8,12)       =    124.068779     0.000097     0.082830   124.151609
	   42 B(6,8,21)       =    120.733355    -0.000068    -0.069775   120.663580
	   43 B(6,10,9)       =    120.100442     0.000674     0.797524   120.897967
	   44 B(7,5,10)       =    117.899660     0.000614     0.810549   118.710209
	   45 B(7,5,18)       =    120.270885    -0.000048    -0.034885   120.236001
	   46 B(7,12,8)       =    116.360747    -0.000101    -0.226665   116.134082
	   47 B(8,6,10)       =    117.853874     0.000631     0.829090   118.682964
	   48 B(8,6,19)       =    120.323327    -0.000062    -0.052994   120.270333
	   49 B(9,1,14)       =    120.849435    -0.000516    -0.661728   120.187707
	   50 B(9,2,15)       =    120.811005    -0.000513    -0.654656   120.156349
	   51 B(10,5,18)      =    121.829454    -0.000566    -0.775669   121.053785
	   52 B(10,6,19)      =    121.822751    -0.000568    -0.776061   121.046690
	   53 B(11,3,16)      =    121.438903    -0.000857    -1.170851   120.268052
	   54 B(11,4,17)      =    121.447411    -0.000861    -1.174371   120.273041
	   55 B(12,7,20)      =    115.204008    -0.000028    -0.014195   115.189813
	   56 B(12,8,21)      =    115.197858    -0.000029    -0.013142   115.184716
	   57 D(1,3,11,4)     =     -0.018609     0.000007     0.063145     0.044536
	   58 D(1,3,11,13)    =   -179.966279     0.000004     0.037787  -179.928491
	   59 D(1,9,2,4)      =      0.018608     0.000010     0.110154     0.128762
	   60 D(1,9,2,15)     =   -179.996257    -0.000001     0.011760  -179.984497
	   61 D(1,9,10,5)     =    -59.977927     0.000040     0.231992   -59.745935
	   62 D(1,9,10,6)     =    119.898639     0.000052     0.383160   120.281800
	   63 D(2,4,11,3)     =      0.017261     0.000004     0.028488     0.045750
	   64 D(2,4,11,13)    =    179.964960     0.000006     0.053828   180.018788
	   65 D(2,9,1,3)      =     -0.019945     0.000000    -0.018468    -0.038413
	   66 D(2,9,1,14)     =    179.967567    -0.000010    -0.100691   179.866876
	   67 D(2,9,10,5)     =    120.034512     0.000052     0.375050   120.409563
	   68 D(2,9,10,6)     =    -60.088921     0.000064     0.526219   -59.562703
	   69 D(3,1,9,10)     =    179.992491     0.000011     0.122559   180.115050
	   70 D(3,11,4,17)    =    179.948827     0.000004     0.024326   179.973152
	   71 D(4,2,9,10)     =   -179.993820    -0.000001    -0.030804  -180.024625
	   72 D(4,11,3,16)    =    179.935781     0.000008     0.073482   180.009263
	   73 D(5,7,12,8)     =      0.005479    -0.000002    -0.016878    -0.011399
	   74 D(5,10,6,8)     =     -0.066486     0.000003     0.044450    -0.022036
	   75 D(5,10,6,19)    =   -179.987161    -0.000001     0.004740  -179.982421
	   76 D(6,8,12,7)     =     -0.031773    -0.000004    -0.039269    -0.071042
	   77 D(6,10,5,7)     =      0.042981    -0.000009    -0.095243    -0.052261
	   78 D(6,10,5,18)    =   -179.963933    -0.000011    -0.113695  -180.077628
	   79 D(7,5,10,9)     =    179.919966     0.000004     0.054772   179.974738
	   80 D(7,12,8,21)    =    180.000000     0.000006     0.040475   180.040475
	   81 D(8,6,10,9)     =   -179.943515    -0.000009    -0.105514  -180.049028
	   82 D(8,12,7,20)    =    179.929847     0.000010     0.093342   180.023190
	   83 D(9,1,3,11)     =      0.019955    -0.000009    -0.068279    -0.048324
	   84 D(9,1,3,16)     =   -179.935743    -0.000010    -0.077830  -180.013573
	   85 D(9,2,4,11)     =     -0.017270    -0.000012    -0.116386    -0.133656
	   86 D(9,2,4,17)     =   -179.950778    -0.000012    -0.111338  -180.062116
	   87 D(9,10,5,18)    =     -0.086949     0.000001     0.036320    -0.050629
	   88 D(9,10,6,19)    =      0.135810    -0.000014    -0.145224    -0.009414
	   89 D(10,5,7,12)    =     -0.011915     0.000009     0.084447     0.072533
	   90 D(10,5,7,20)    =   -179.932295    -0.000004    -0.031562  -179.963857
	   91 D(10,6,8,12)    =      0.062708     0.000004     0.025849     0.088557
	   92 D(10,6,8,21)    =   -179.970196    -0.000006    -0.058568  -180.028763
	   93 D(10,9,1,14)    =     -0.019997     0.000002     0.040337     0.020340
	   94 D(10,9,2,15)    =     -0.008685    -0.000012    -0.129199    -0.137883
	   95 D(11,3,1,14)    =   -179.967773     0.000001     0.013214  -179.954558
	   96 D(11,4,2,15)    =    179.997347    -0.000001    -0.018819   179.978528
	   97 D(12,7,5,18)    =    179.994887     0.000011     0.102799   180.097686
	   98 D(12,8,6,19)    =    179.984625     0.000008     0.064635   180.049260
	   99 D(13,11,3,16)   =     -0.011889     0.000006     0.048124     0.036235
	  100 D(13,11,4,17)   =     -0.103475     0.000006     0.049665    -0.053810
	  101 D(14,1,3,16)    =      0.076530     0.000000     0.003664     0.080193
	  102 D(15,2,4,17)    =      0.063839    -0.000001    -0.013771     0.050068
	  103 D(18,5,7,20)    =      0.074507    -0.000002    -0.013211     0.061296
	  104 D(19,6,8,21)    =     -0.048279    -0.000002    -0.019782    -0.068061
	 ---------------------------------------------------------------------------
	Successfully symmetrized geometry.
	 Forces used to impose fixed constraints are not included.
	  Forces zeroed: 61 

  ==> Convergence Check <==

  Measures of convergence in internal coordinates in au.
  Criteria marked as inactive (o), active & met (*), and active & unmet ( ).
  --------------------------------------------------------------------------------------------- ~
   Step     Total Energy     Delta E     MAX Force     RMS Force      MAX Disp      RMS Disp    ~
  --------------------------------------------------------------------------------------------- ~
    Convergence Criteria    1.00e-06 *    3.00e-04 *             o    1.20e-03 *             o  ~
  --------------------------------------------------------------------------------------------- ~
      1    -553.16275741   -5.53e+02      2.59e-02      6.57e-03 o    3.99e-02      9.79e-03 o  ~
  ---------------------------------------------------------------------------------------------

	Writing optimization data to binary file.
	Structure for next step:
	Cartesian Geometry (in Angstrom)
	    C    -1.2914014230   0.7250966564  -0.5582085356
	    C    -0.2969161081   0.1181170615   1.5489396107
	    C    -2.3682448370   1.2992325624   0.1102939122
	    C    -1.3710132668   0.6883541367   2.2256328272
	    C     0.6872610432  -1.5126136040  -1.4490667021
	    C     2.1761709320  -0.0097423536  -0.3398685599
	    C     1.7921575994  -2.0471269114  -2.0935008487
	    C     3.2147688919  -0.6127924476  -1.0330067794
	    C    -0.2476165644   0.1298193031   0.1533696774
	    C     0.8784617118  -0.4675823519  -0.5494686556
	    C    -2.4342629453   1.2942177861   1.5206609059
	    N     3.0534805392  -1.6216210229  -1.9066760343
	    O    -3.4258796523   1.8212190192   2.1406764528
	    H    -1.2700032528   0.7460174646  -1.6431737151
	    H     0.5051684582  -0.3396752550   2.1190116508
	    H    -3.1617715636   1.7532284925  -0.4722455719
	    H    -1.3789656975   0.6614684961   3.3090155185
	    H    -0.3013564631  -1.9054770159  -1.6462180744
	    H     2.3777505602   0.7993192034   0.3488414028
	    H     1.6797763435  -2.8610838826  -2.8005743025
	    H     4.2378372405  -0.2813846164  -0.8946244406
			--------------------------
			 OPTKING Finished Execution 
			--------------------------

    Structure for next step:
    Molecular point group: c1
    Full point group: C1

    Geometry (in Angstrom), charge = -1, multiplicity = 1:

    C           -1.288715995089     0.723664440116    -0.559836310592
    C           -0.294230680178     0.116684845164     1.547311835717
    C           -2.365559409080     1.297800346092     0.108666137203
    C           -1.368327838936     0.686921920402     2.224005052236
    C            0.689946471039    -1.514045820278    -1.450694477038
    C            2.178856359842    -0.011174569913    -0.341496334861
    C            1.794843027290    -2.048559127698    -2.095128623727
    C            3.217454319825    -0.614224663894    -1.034634554412
    C           -0.244931136477     0.128387086769     0.151741902394
    C            0.881147139707    -0.469014568206    -0.551096430630
    C           -2.431577517410     1.292785569814     1.519033130943
    N            3.056165967037    -1.623053239209    -1.908303809260
    O           -3.423194224407     1.819786802873     2.139048677850
    H           -1.267317824940     0.744585248299    -1.644801490117
    H            0.507853886090    -0.341107471271     2.117383875770
    H           -3.159086135742     1.751796276232    -0.473873346932
    H           -1.376280269643     0.660036279799     3.307387743546
    H           -0.298671035174    -1.906909232231    -1.647845849414
    H            2.380435988077     0.797886987089     0.347213627783
    H            1.682461771373    -2.862516098945    -2.802202077520
    H            4.240522668356    -0.282816832714    -0.896252215552

gradient() will perform analytic gradient computation.

*** tstart() called on gpu-2-10.local
*** at Sun Nov 12 04:57:41 2017

    SCF Algorithm Type (re)set to DF.

*** tstart() called on gpu-2-10.local
*** at Sun Nov 12 04:57:41 2017

   => Loading Basis Set <=

    Name: AUG-CC-PVTZ
    Role: ORBITAL
    Keyword: BASIS
    atoms 1-11  entry C          line   221 file /cbio/jclab/home/chayas/anaconda/envs/py35/share/psi4/basis/aug-cc-pvtz.gbs 
    atoms 12    entry N          line   267 file /cbio/jclab/home/chayas/anaconda/envs/py35/share/psi4/basis/aug-cc-pvtz.gbs 
    atoms 13    entry O          line   313 file /cbio/jclab/home/chayas/anaconda/envs/py35/share/psi4/basis/aug-cc-pvtz.gbs 
    atoms 14-21 entry H          line    34 file /cbio/jclab/home/chayas/anaconda/envs/py35/share/psi4/basis/aug-cc-pvtz.gbs 


         ---------------------------------------------------------
                                   SCF
            by Justin Turney, Rob Parrish, and Andy Simmonett
                              RHF Reference
                        8 Threads,   4768 MiB Core
         ---------------------------------------------------------

  ==> Geometry <==

    Molecular point group: c1
    Full point group: C1

    Geometry (in Angstrom), charge = -1, multiplicity = 1:

       Center              X                  Y                   Z               Mass       
    ------------   -----------------  -----------------  -----------------  -----------------
           C         -1.288715995089     0.723664440116    -0.559836310592    12.000000000000
           C         -0.294230680178     0.116684845164     1.547311835717    12.000000000000
           C         -2.365559409080     1.297800346092     0.108666137203    12.000000000000
           C         -1.368327838936     0.686921920402     2.224005052236    12.000000000000
           C          0.689946471039    -1.514045820278    -1.450694477038    12.000000000000
           C          2.178856359842    -0.011174569913    -0.341496334861    12.000000000000
           C          1.794843027290    -2.048559127698    -2.095128623727    12.000000000000
           C          3.217454319825    -0.614224663894    -1.034634554412    12.000000000000
           C         -0.244931136477     0.128387086769     0.151741902394    12.000000000000
           C          0.881147139707    -0.469014568206    -0.551096430630    12.000000000000
           C         -2.431577517410     1.292785569814     1.519033130943    12.000000000000
           N          3.056165967037    -1.623053239209    -1.908303809260    14.003074004780
           O         -3.423194224407     1.819786802873     2.139048677850    15.994914619560
           H         -1.267317824940     0.744585248299    -1.644801490117     1.007825032070
           H          0.507853886090    -0.341107471271     2.117383875770     1.007825032070
           H         -3.159086135742     1.751796276232    -0.473873346932     1.007825032070
           H         -1.376280269643     0.660036279799     3.307387743546     1.007825032070
           H         -0.298671035174    -1.906909232231    -1.647845849414     1.007825032070
           H          2.380435988077     0.797886987089     0.347213627783     1.007825032070
           H          1.682461771373    -2.862516098945    -2.802202077520     1.007825032070
           H          4.240522668356    -0.282816832714    -0.896252215552     1.007825032070

  Running in c1 symmetry.

  Rotational constants: A =      0.09811  B =      0.01337  C =      0.01251 [cm^-1]
  Rotational constants: A =   2941.32060  B =    400.78626  C =    374.94560 [MHz]
  Nuclear repulsion =  683.681974356410365

  Charge       = -1
  Multiplicity = 1
  Electrons    = 90
  Nalpha       = 45
  Nbeta        = 45

  ==> Algorithm <==

  SCF Algorithm Type is DF.
  DIIS enabled.
  MOM disabled.
  Fractional occupation disabled.
  Guess Type is READ.
  Energy threshold   = 1.00e-10
  Density threshold  = 1.00e-10
  Integral threshold = 0.00e+00

  ==> Primary Basis <==

  Basis Set: AUG-CC-PVTZ
    Blend: AUG-CC-PVTZ
    Number of shells: 254
    Number of basis function: 782
    Number of Cartesian functions: 915
    Spherical Harmonics?: true
    Max angular momentum: 3

   => Loading Basis Set <=

    Name: (AUG-CC-PVTZ AUX)
    Role: JKFIT
    Keyword: DF_BASIS_SCF
    atoms 1-11  entry C          line   161 file /cbio/jclab/home/chayas/anaconda/envs/py35/share/psi4/basis/aug-cc-pvtz-jkfit.gbs 
    atoms 12    entry N          line   223 file /cbio/jclab/home/chayas/anaconda/envs/py35/share/psi4/basis/aug-cc-pvtz-jkfit.gbs 
    atoms 13    entry O          line   285 file /cbio/jclab/home/chayas/anaconda/envs/py35/share/psi4/basis/aug-cc-pvtz-jkfit.gbs 
    atoms 14-21 entry H          line    69 file /cbio/jclab/home/chayas/anaconda/envs/py35/share/psi4/basis/aug-cc-pvtz-jkfit.gbs 

  Reading orbitals from file 180, no projection.

  ==> Pre-Iterations <==

   -------------------------------------------------------
    Irrep   Nso     Nmo     Nalpha   Nbeta   Ndocc  Nsocc
   -------------------------------------------------------
     A        782     782       0       0       0       0
   -------------------------------------------------------
    Total     782     782      45      45      45       0
   -------------------------------------------------------

  ==> Integral Setup <==

  ==> DFJK: Density-Fitted J/K Matrices <==

    J tasked:                  Yes
    K tasked:                  Yes
    wK tasked:                  No
    OpenMP threads:              8
    Integrals threads:           8
    Memory (MB):              3576
    Algorithm:                Disk
    Integral Cache:           NONE
    Schwarz Cutoff:          1E-12
    Fitting Condition:       1E-12

   => Auxiliary Basis Set <=

  Basis Set: (AUG-CC-PVTZ AUX)
    Blend: AUG-CC-PVTZ-JKFIT
    Number of shells: 502
    Number of basis function: 1720
    Number of Cartesian functions: 2143
    Spherical Harmonics?: true
    Max angular momentum: 4

  Minimum eigenvalue in the overlap matrix is 7.6036821852E-07.
  Using Symmetric Orthogonalization.

  SCF Guess: Orbitals guess was supplied from a previous computation.

  ==> Iterations <==

                           Total Energy        Delta E     RMS |[F,P]|

   @DF-RHF iter   0:  -550.79968608990100   -5.50800e+02   5.07826e-04 
   @DF-RHF iter   1:  -550.71762521440326    8.20609e-02   9.92918e-05 
   @DF-RHF iter   2:  -550.71796958364325   -3.44369e-04   7.34369e-05 DIIS
   @DF-RHF iter   3:  -550.71821601289139   -2.46429e-04   8.64830e-06 DIIS
   @DF-RHF iter   4:  -550.71822114682936   -5.13394e-06   4.04220e-06 DIIS
   @DF-RHF iter   5:  -550.71822252853246   -1.38170e-06   1.14248e-06 DIIS
   @DF-RHF iter   6:  -550.71822278192008   -2.53388e-07   8.86884e-07 DIIS
   @DF-RHF iter   7:  -550.71822286383690   -8.19168e-08   3.25522e-07 DIIS
   @DF-RHF iter   8:  -550.71822289143392   -2.75970e-08   1.40328e-07 DIIS
   @DF-RHF iter   9:  -550.71822289532963   -3.89571e-09   5.92573e-08 DIIS
   @DF-RHF iter  10:  -550.71822289587692   -5.47288e-10   1.79201e-08 DIIS
   @DF-RHF iter  11:  -550.71822289592865   -5.17275e-11   5.61008e-09 DIIS
   @DF-RHF iter  12:  -550.71822289594002   -1.13687e-11   2.03991e-09 DIIS
   @DF-RHF iter  13:  -550.71822289592876    1.12550e-11   8.57096e-10 DIIS
   @DF-RHF iter  14:  -550.71822289595525   -2.64890e-11   4.09586e-10 DIIS
   @DF-RHF iter  15:  -550.71822289594400    1.12550e-11   1.34464e-10 DIIS
   @DF-RHF iter  16:  -550.71822289593865    5.34328e-12   5.99748e-11 DIIS

  ==> Post-Iterations <==

    Orbital Energies (a.u.)
    -----------------------

    Doubly Occupied:                                                      

       1A    -20.294919     2A    -15.458336     3A    -11.170676  
       4A    -11.170582     5A    -11.146565     6A    -11.124682  
       7A    -11.124638     8A    -11.115263     9A    -11.096053  
      10A    -11.096023    11A    -11.073989    12A    -11.057183  
      13A    -11.057141    14A     -1.149272    15A     -1.122537  
      16A     -1.017133    17A     -0.957688    18A     -0.927396  
      19A     -0.862284    20A     -0.835375    21A     -0.750012  
      22A     -0.734430    23A     -0.676099    24A     -0.647226  
      25A     -0.595740    26A     -0.556520    27A     -0.545153  
      28A     -0.505979    29A     -0.491970    30A     -0.485546  
      31A     -0.479688    32A     -0.436904    33A     -0.432016  
      34A     -0.413126    35A     -0.407441    36A     -0.370219  
      37A     -0.353739    38A     -0.352055    39A     -0.314095  
      40A     -0.293553    41A     -0.255147    42A     -0.245213  
      43A     -0.210216    44A     -0.194411    45A     -0.105326  

    Virtual:                                                              

      46A      0.097397    47A      0.099263    48A      0.116473  
      49A      0.116834    50A      0.124088    51A      0.125665  
      52A      0.131416    53A      0.132482    54A      0.161329  
      55A      0.166531    56A      0.180140    57A      0.183603  
      58A      0.184609    59A      0.186653    60A      0.188261  
      61A      0.195771    62A      0.196285    63A      0.202321  
      64A      0.204672    65A      0.210721    66A      0.213519  
      67A      0.216054    68A      0.222044    69A      0.225867  
      70A      0.226308    71A      0.230139    72A      0.230695  
      73A      0.234040    74A      0.238397    75A      0.241872  
      76A      0.248884    77A      0.250104    78A      0.257162  
      79A      0.258148    80A      0.265990    81A      0.267920  
      82A      0.275274    83A      0.283330    84A      0.292227  
      85A      0.293955    86A      0.301817    87A      0.308543  
      88A      0.310829    89A      0.317900    90A      0.321203  
      91A      0.324660    92A      0.329158    93A      0.334316  
      94A      0.335842    95A      0.339027    96A      0.343490  
      97A      0.350520    98A      0.354759    99A      0.360062  
     100A      0.360590   101A      0.369597   102A      0.373583  
     103A      0.375941   104A      0.389768   105A      0.390592  
     106A      0.395233   107A      0.395291   108A      0.396778  
     109A      0.407822   110A      0.410763   111A      0.411517  
     112A      0.415152   113A      0.418747   114A      0.423400  
     115A      0.430100   116A      0.431307   117A      0.444939  
     118A      0.445246   119A      0.448645   120A      0.459708  
     121A      0.462377   122A      0.467370   123A      0.470737  
     124A      0.471458   125A      0.476798   126A      0.486513  
     127A      0.493957   128A      0.504200   129A      0.504520  
     130A      0.505622   131A      0.510427   132A      0.520169  
     133A      0.531037   134A      0.532639   135A      0.538155  
     136A      0.546001   137A      0.549086   138A      0.551824  
     139A      0.556406   140A      0.561821   141A      0.569006  
     142A      0.569620   143A      0.571297   144A      0.572082  
     145A      0.580400   146A      0.580922   147A      0.584309  
     148A      0.592307   149A      0.594494   150A      0.596746  
     151A      0.599353   152A      0.604773   153A      0.605014  
     154A      0.608847   155A      0.610113   156A      0.616922  
     157A      0.620953   158A      0.622719   159A      0.628493  
     160A      0.632506   161A      0.634421   162A      0.634589  
     163A      0.642795   164A      0.648340   165A      0.655617  
     166A      0.659497   167A      0.663171   168A      0.668086  
     169A      0.674018   170A      0.679356   171A      0.689688  
     172A      0.690914   173A      0.698537   174A      0.699019  
     175A      0.707042   176A      0.711690   177A      0.713086  
     178A      0.717302   179A      0.720403   180A      0.723207  
     181A      0.740520   182A      0.747081   183A      0.753520  
     184A      0.754171   185A      0.761829   186A      0.777072  
     187A      0.777856   188A      0.783421   189A      0.789821  
     190A      0.796420   191A      0.800200   192A      0.806378  
     193A      0.812131   194A      0.818597   195A      0.829323  
     196A      0.829600   197A      0.836527   198A      0.846819  
     199A      0.850351   200A      0.850537   201A      0.855982  
     202A      0.856029   203A      0.858514   204A      0.867247  
     205A      0.867932   206A      0.877733   207A      0.877915  
     208A      0.890150   209A      0.893748   210A      0.902437  
     211A      0.916983   212A      0.925146   213A      0.929165  
     214A      0.936563   215A      0.947273   216A      0.950474  
     217A      0.961583   218A      0.966668   219A      0.973738  
     220A      0.976919   221A      0.984877   222A      0.989441  
     223A      0.994328   224A      1.004831   225A      1.010727  
     226A      1.014283   227A      1.015666   228A      1.023118  
     229A      1.023986   230A      1.024809   231A      1.027938  
     232A      1.037551   233A      1.040085   234A      1.048527  
     235A      1.052518   236A      1.052801   237A      1.055476  
     238A      1.062904   239A      1.063907   240A      1.067904  
     241A      1.075891   242A      1.078601   243A      1.083155  
     244A      1.088687   245A      1.090560   246A      1.094886  
     247A      1.095679   248A      1.107689   249A      1.110800  
     250A      1.118652   251A      1.122750   252A      1.124611  
     253A      1.134405   254A      1.139273   255A      1.143447  
     256A      1.145838   257A      1.152465   258A      1.162189  
     259A      1.163574   260A      1.166159   261A      1.166510  
     262A      1.170808   263A      1.171162   264A      1.183680  
     265A      1.185153   266A      1.191986   267A      1.203914  
     268A      1.205192   269A      1.207744   270A      1.208431  
     271A      1.220485   272A      1.230391   273A      1.236879  
     274A      1.239344   275A      1.243316   276A      1.244756  
     277A      1.247840   278A      1.252780   279A      1.267070  
     280A      1.267349   281A      1.273186   282A      1.278242  
     283A      1.284479   284A      1.286758   285A      1.295281  
     286A      1.297856   287A      1.299079   288A      1.306949  
     289A      1.308392   290A      1.318122   291A      1.320809  
     292A      1.324733   293A      1.330025   294A      1.334245  
     295A      1.334978   296A      1.344231   297A      1.349158  
     298A      1.352150   299A      1.367519   300A      1.377422  
     301A      1.379970   302A      1.382542   303A      1.391090  
     304A      1.402624   305A      1.404581   306A      1.405045  
     307A      1.409975   308A      1.414124   309A      1.419568  
     310A      1.431026   311A      1.434153   312A      1.444431  
     313A      1.444729   314A      1.447014   315A      1.471018  
     316A      1.480511   317A      1.484948   318A      1.489997  
     319A      1.491837   320A      1.502888   321A      1.507246  
     322A      1.516435   323A      1.525752   324A      1.533066  
     325A      1.534761   326A      1.542150   327A      1.559561  
     328A      1.569815   329A      1.574460   330A      1.580240  
     331A      1.586602   332A      1.590825   333A      1.596814  
     334A      1.611556   335A      1.625079   336A      1.626076  
     337A      1.644370   338A      1.647150   339A      1.663205  
     340A      1.668934   341A      1.677284   342A      1.678488  
     343A      1.686601   344A      1.689916   345A      1.704449  
     346A      1.709418   347A      1.710988   348A      1.728380  
     349A      1.738789   350A      1.738855   351A      1.753099  
     352A      1.758444   353A      1.767363   354A      1.771471  
     355A      1.778625   356A      1.806299   357A      1.807519  
     358A      1.818193   359A      1.820847   360A      1.825747  
     361A      1.832896   362A      1.833621   363A      1.840016  
     364A      1.843257   365A      1.848479   366A      1.860885  
     367A      1.872613   368A      1.880010   369A      1.881524  
     370A      1.894237   371A      1.909780   372A      1.920610  
     373A      1.926187   374A      1.931356   375A      1.933488  
     376A      1.949720   377A      1.960866   378A      1.977403  
     379A      1.979940   380A      1.993220   381A      1.997911  
     382A      2.001403   383A      2.013684   384A      2.016443  
     385A      2.022954   386A      2.030587   387A      2.037102  
     388A      2.046994   389A      2.062350   390A      2.070700  
     391A      2.071148   392A      2.082576   393A      2.087104  
     394A      2.092509   395A      2.098489   396A      2.099431  
     397A      2.108687   398A      2.122040   399A      2.133939  
     400A      2.143495   401A      2.151113   402A      2.158347  
     403A      2.162283   404A      2.163405   405A      2.171387  
     406A      2.172171   407A      2.185450   408A      2.194821  
     409A      2.200192   410A      2.206605   411A      2.223641  
     412A      2.227021   413A      2.239755   414A      2.251138  
     415A      2.258427   416A      2.266809   417A      2.268744  
     418A      2.283065   419A      2.283244   420A      2.294782  
[...]

  //>>>>>>>>>>>>>>>>>>>>>>>>>>>>>>>>>>>//
  //               DFMP2               //
  //<<<<<<<<<<<<<<<<<<<<<<<<<<<<<<<<<<<//

   => Loading Basis Set <=

    Name: (AUG-CC-PVTZ AUX)
    Role: RIFIT
    Keyword: DF_BASIS_MP2
    atoms 1-11  entry C          line   147 file /cbio/jclab/home/chayas/anaconda/envs/py35/share/psi4/basis/aug-cc-pvtz-ri.gbs 
    atoms 12    entry N          line   205 file /cbio/jclab/home/chayas/anaconda/envs/py35/share/psi4/basis/aug-cc-pvtz-ri.gbs 
    atoms 13    entry O          line   263 file /cbio/jclab/home/chayas/anaconda/envs/py35/share/psi4/basis/aug-cc-pvtz-ri.gbs 
    atoms 14-21 entry H          line    29 file /cbio/jclab/home/chayas/anaconda/envs/py35/share/psi4/basis/aug-cc-pvtz-ri.gbs 

	 --------------------------------------------------------
	                          DF-MP2                         
	      2nd-Order Density-Fitted Moller-Plesset Theory     
	              RMP2 Wavefunction,   8 Threads             
	                                                         
	        Rob Parrish, Justin Turney, Andy Simmonett,      
	           Ed Hohenstein, and C. David Sherrill          
	 --------------------------------------------------------

   => Auxiliary Basis Set <=

  Basis Set: (AUG-CC-PVTZ AUX)
    Blend: AUG-CC-PVTZ-RI
    Number of shells: 476
    Number of basis function: 1746
    Number of Cartesian functions: 2208
    Spherical Harmonics?: true
    Max angular momentum: 4

	 --------------------------------------------------------
	                 NBF =   782, NAUX =  1746
	 --------------------------------------------------------
	   CLASS    FOCC     OCC    AOCC    AVIR     VIR    FVIR
	   PAIRS       0      45      45     737     737       0
	 --------------------------------------------------------


         ------------------------------------------------------------
                                     CPHF                           
                                  Rob Parrish                       
         ------------------------------------------------------------

  ==> Geometry <==

    Molecular point group: c1
    Full point group: C1

    Geometry (in Angstrom), charge = -1, multiplicity = 1:

       Center              X                  Y                   Z               Mass       
    ------------   -----------------  -----------------  -----------------  -----------------
           C         -1.384049496485     0.624715475182    -0.546268120640    12.000000000000
           C         -0.270617966935     0.179464870923     1.520135493923    12.000000000000
           C         -2.412979861987     1.241885529203     0.133634458316    12.000000000000
           C         -1.305160191902     0.773354279707     2.211730526052    12.000000000000
           C          0.726551960355    -1.483975368709    -1.558949284058    12.000000000000
           C          2.155104648479    -0.093677509768    -0.294118068626    12.000000000000
           C          1.852325743802    -1.999968802838    -2.177420806137    12.000000000000
           C          3.224960735285    -0.676804113842    -0.951766385851    12.000000000000
           C         -0.296811965209     0.047486122789     0.124232943460    12.000000000000
           C          0.843971040808    -0.472846003777    -0.599943599345    12.000000000000
           C         -2.451788876062     1.345860551568     1.564694287278    12.000000000000
           N          3.104684554391    -1.619541159352    -1.894488785133    14.003074004780
           O         -3.400429981775     1.895707098456     2.195495454235    15.994914619560
           H         -1.403035594937     0.595609061981    -1.630135252866     1.007825032070
           H          0.570694911555    -0.230079604682     2.067631605025     1.007825032070
           H         -3.233488467359     1.688636215570    -0.412100041318     1.007825032070
           H         -1.277583997928     0.824198664580     3.292468831675     1.007825032070
           H         -0.253167996573    -1.862143388589    -1.813102223734     1.007825032070
           H          2.326416889327     0.671369321845     0.448941928876     1.007825032070
           H          1.749617900965    -2.777750614018    -2.923660645341     1.007825032070
           H          4.235690673445    -0.367492318411    -0.716480793070     1.007825032070

  Nuclear repulsion =  682.106548438091522
  Reference energy  = -550.724249077975287

  ==> Basis Set <==

  Basis Set: AUG-CC-PVTZ
    Blend: AUG-CC-PVTZ
    Number of shells: 254
    Number of basis function: 782
    Number of Cartesian functions: 915
    Spherical Harmonics?: true
    Max angular momentum: 3

  ==> CGRSolver (by Rob Parrish) <==

   Number of roots    =         1
   Preconditioning    =    JACOBI
   Convergence cutoff =     1E-06
   Maximum iterations =       100

  ==> CPHFRHamiltonian (by Rob Parrish) <== 

  ==> DFJK: Density-Fitted J/K Matrices <==

    J tasked:                  Yes
    K tasked:                  Yes
    wK tasked:                  No
    OpenMP threads:              8
    Integrals threads:           8
    Memory (MB):              3576
    Algorithm:                Disk
    Integral Cache:           NONE
    Schwarz Cutoff:          1E-12
    Fitting Condition:       1E-12

   => Auxiliary Basis Set <=

  Basis Set: (AUG-CC-PVTZ AUX)
    Blend: AUG-CC-PVTZ-JKFIT
    Number of shells: 502
    Number of basis function: 1720
    Number of Cartesian functions: 2143
    Spherical Harmonics?: true
    Max angular momentum: 4

  ==> CPHF Iterations <==

  => Iterations <=

             Iter  Converged  Remaining    Residual
  CGR           1          0          1   1.337E-01
  CGR           2          0          1   5.108E-02
  CGR           3          0          1   3.049E-02
  CGR           4          0          1   1.052E-02
  CGR           5          0          1   4.841E-03
  CGR           6          0          1   2.653E-03
  CGR           7          0          1   7.751E-04
  CGR           8          0          1   2.384E-04
  CGR           9          0          1   8.790E-05
  CGR          10          0          1   2.783E-05
  CGR          11          0          1   1.020E-05
  CGR          12          0          1   3.894E-06
  CGR          13          0          1   1.818E-06
  CGR          14          1          0   7.987E-07

    CGRSolver converged.

  ==> DFCorrGrad: Density-Fitted Correlated Gradients <==

    OpenMP threads:              8
    Integrals threads:           8
    Memory (MB):              3576
    Schwarz Cutoff:          0E+00
    Fitting Condition:       1E-12

   => Auxiliary Basis Set <=

  Basis Set: (AUG-CC-PVTZ AUX)
    Blend: AUG-CC-PVTZ-JKFIT
    Number of shells: 502
    Number of basis function: 1720
    Number of Cartesian functions: 2143
    Spherical Harmonics?: true
    Max angular momentum: 4

	-----------------------------------------------------------
	 ==================> DF-MP2 Energies <==================== 
	-----------------------------------------------------------
	 Reference Energy          =    -550.7242490779752870 [Eh]
	 Singles Energy            =      -0.0000000000000003 [Eh]
	 Same-Spin Energy          =      -0.6125115764095143 [Eh]
	 Opposite-Spin Energy      =      -1.8363939633643258 [Eh]
	 Correlation Energy        =      -2.4489055397738406 [Eh]
	 Total Energy              =    -553.1731546177491055 [Eh]
	-----------------------------------------------------------
	 ================> DF-SCS-MP2 Energies <================== 
	-----------------------------------------------------------
	 SCS Same-Spin Scale       =       0.3333333333333333 [-]
	 SCS Opposite-Spin Scale   =       1.2000000000000000 [-]
	 SCS Same-Spin Energy      =      -0.2041705254698381 [Eh]
	 SCS Opposite-Spin Energy  =      -2.2036727560371907 [Eh]
	 SCS Correlation Energy    =      -2.4078432815070294 [Eh]
	 SCS Total Energy          =    -553.1320923594822716 [Eh]
	-----------------------------------------------------------


  -Total Gradient:
     Atom            X                  Y                   Z
    ------   -----------------  -----------------  -----------------
       1        0.003135649704     0.006307239621     0.000444176875
       2       -0.000002525987    -0.000289548640     0.000352857223
       3        0.000113374120    -0.000095999525    -0.000241114398
       4        0.000080414812    -0.000073257730    -0.000116930768
       5        0.001044525939    -0.005082128421     0.005045952051
       6        0.000190518183     0.000138436206    -0.000105353991
       7       -0.000106848683    -0.000001954438     0.000007523884
       8       -0.000064634666     0.000122808316     0.000163512785
       9       -0.004150328838    -0.011526838035     0.001446397736
      10       -0.000211278040     0.010352107635    -0.007303828540
      11       -0.000185822739     0.000103957428     0.000277073359
      12        0.000122861029    -0.000108098260    -0.000132514897
      13        0.000076882610    -0.000031431131    -0.000040014193
      14        0.000054533272    -0.000002331453    -0.000068364052
      15        0.000088466929     0.000055139560    -0.000028719905
      16       -0.000082086735     0.000034196637     0.000057814220
      17       -0.000066923254     0.000047487828     0.000166528253
      18       -0.000077788987     0.000008668519    -0.000001142053
      19       -0.000018275587     0.000055180037     0.000102036440
      20       -0.000021153440    -0.000059754817    -0.000047501029
      21        0.000080440340     0.000046120664     0.000021611004


*** tstop() called on gpu-2-10.local at Sun Nov 12 09:00:34 2017
Module time:
	user time   =    4451.83 seconds =      74.20 minutes
	system time =      92.13 seconds =       1.54 minutes
	total time  =       2076 seconds =      34.60 minutes
Total time:
	user time   =   36276.27 seconds =     604.60 minutes
	system time =     769.79 seconds =      12.83 minutes
	total time  =      16717 seconds =     278.62 minutes

			-----------------------------------------
			 OPTKING 2.0: for geometry optimizations 
			  - R.A. King,  Bethel University        
			-----------------------------------------

	Previous internal coordinate definitions found.
	---Fragment 1 Geometry and Gradient---
	 C          -2.6154745027        1.1805411591       -1.0322971431
	 C          -0.5113938441        0.3391394565        2.8726397684
	 C          -4.5598711033        2.3468235386        0.2525325281
	 C          -2.4663953222        1.4614277923        4.1795649740
	 C           1.3729842264       -2.8043070348       -2.9459872019
	 C           4.0725575733       -0.1770248383       -0.5558026004
	 C           3.5003883647       -3.7793933117       -4.1147289996
	 C           6.0942925790       -1.2789744208       -1.7985778117
	 C          -0.5608933272        0.0897357672        0.2347662398
	 C           1.5948741312       -0.8935494502       -1.1337290979
	 C          -4.6332095114        2.5433078555        2.9568436846
	 N           5.8670035368       -3.0604892521       -3.5800649657
	 O          -6.4258813996        3.5823672442        4.1488851345
	 H          -2.6513530291        1.1255380094       -3.0805091875
	 H           1.0784570883       -0.4347874416        3.9072574772
	 H          -6.1104076572        3.1910599855       -0.7787562174
	 H          -2.4142838678        1.5575097551        6.2218643929
	 H          -0.4784181791       -3.5189410246       -3.4262666538
	 H           4.3962907917        1.2687041523        0.8483772951
	 H           3.3062986700       -5.2491879259       -5.5249179252
	 H           8.0042953564       -0.6944598377       -1.3539524784
	             0.0031356497        0.0063072396        0.0004441769
	            -0.0000025260       -0.0002895486        0.0003528572
	             0.0001133741       -0.0000959995       -0.0002411144
	             0.0000804148       -0.0000732577       -0.0001169308
	             0.0010445259       -0.0050821284        0.0050459521
	             0.0001905182        0.0001384362       -0.0001053540
	            -0.0001068487       -0.0000019544        0.0000075239
	            -0.0000646347        0.0001228083        0.0001635128
	            -0.0041503288       -0.0115268380        0.0014463977
	            -0.0002112780        0.0103521076       -0.0073038285
	            -0.0001858227        0.0001039574        0.0002770734
	             0.0001228610       -0.0001080983       -0.0001325149
	             0.0000768826       -0.0000314311       -0.0000400142
	             0.0000545333       -0.0000023315       -0.0000683641
	             0.0000884669        0.0000551396       -0.0000287199
	            -0.0000820867        0.0000341966        0.0000578142
	            -0.0000669233        0.0000474878        0.0001665283
	            -0.0000777890        0.0000086685       -0.0000011421
	            -0.0000182756        0.0000551800        0.0001020364
	            -0.0000211534       -0.0000597548       -0.0000475010
	             0.0000804403        0.0000461207        0.0000216110

	---Fragment 1 Intrafragment Coordinates---
	 - Coordinate -           - BOHR/RAD -       - ANG/DEG -
	 R(1,3)           =         2.606085	       1.379081
	 R(1,9)           =         2.648888	       1.401731
	 R(1,14)          =         2.049265	       1.084424
	 R(2,4)           =         2.605689	       1.378871
	 R(2,9)           =         2.650100	       1.402372
	 R(2,15)          =         2.048664	       1.084106
	 R(3,11)          =         2.712431	       1.435357
	 R(3,16)          =         2.044616	       1.081964
	 R(4,11)          =         2.713042	       1.435680
	 R(4,17)          =         2.045222	       1.082285
	 R(5,7)           =         2.615836	       1.384241
	 R(5,10)          =         2.642822	       1.398521
	 R(5,18)          =         2.041828	       1.080489
	 R(6,8)           =         2.616524	       1.384605
	 R(6,10)          =         2.643165	       1.398703
	 R(6,19)          =         2.041239	       1.080177
	 R(7,12)          =         2.530525	       1.339096
	 R(7,20)          =         2.046118	       1.082759
	 R(8,12)          =         2.529654	       1.338636
	 R(8,21)          =         2.046328	       1.082870
	 R(9,10)          =         2.736231	       1.447951
	 R(11,13)         =         2.390456	       1.264975
	 B(1,3,11)        =         2.146144	     122.964975
	 B(1,3,16)        =         2.096612	     120.127023
	 B(1,9,2)         =         2.039650	     116.863334
	 B(1,9,10)        =         2.117463	     121.321668
	 B(2,4,11)        =         2.147103	     123.019918
	 B(2,4,17)        =         2.096667	     120.130185
	 B(2,9,10)        =         2.114063	     121.126875
	 B(3,1,9)         =         2.126058	     121.814168
	 B(3,1,14)        =         2.084846	     119.452852
	 B(3,11,4)        =         1.981062	     113.506499
	 B(3,11,13)       =         2.151889	     123.294147
	 B(4,2,9)         =         2.124419	     121.720251
	 B(4,2,15)        =         2.084790	     119.449653
	 B(4,11,13)       =         2.150212	     123.198097
	 B(5,7,12)        =         2.165544	     124.076525
	 B(5,7,20)        =         2.092726	     119.904385
	 B(5,10,6)        =         2.009352	     115.127362
	 B(5,10,9)        =         2.137230	     122.454255
	 B(6,8,12)        =         2.167194	     124.171070
	 B(6,8,21)        =         2.091747	     119.848273
	 B(6,10,9)        =         2.131477	     122.124613
	 B(7,5,10)        =         2.103198	     120.504393
	 B(7,5,18)        =         2.096555	     120.123761
	 B(7,12,8)        =         2.018503	     115.651694
	 B(8,6,10)        =         2.101667	     120.416636
	 B(8,6,19)        =         2.097256	     120.163928
	 B(9,1,14)        =         2.072157	     118.725848
	 B(9,2,15)        =         2.073314	     118.792148
	 B(10,5,18)       =         2.083430	     119.371744
	 B(10,6,19)       =         2.084122	     119.411373
	 B(11,3,16)       =         2.040327	     116.902127
	 B(11,4,17)       =         2.039415	     116.849898
	 B(12,7,20)       =         2.024620	     116.002175
	 B(12,8,21)       =         2.024218	     115.979172
	 D(1,3,11,4)      =         0.022889	       1.311420
	 D(1,3,11,13)     =        -3.125623	    -179.085014
	 D(1,9,2,4)       =         0.070034	       4.012665
	 D(1,9,2,15)      =        -3.110894	    -178.241075
	 D(1,9,10,5)      =        -1.024717	     -58.711934
	 D(1,9,10,6)      =         2.230849	     127.818258
	 D(2,4,11,3)      =        -0.002355	      -0.134956
	 D(2,4,11,13)     =        -3.137037	    -179.738958
	 D(2,9,1,3)       =        -0.049719	      -2.848712
	 D(2,9,1,14)      =         3.074818	     176.174067
	 D(2,9,10,5)      =         2.288002	     131.092836
	 D(2,9,10,6)      =        -0.739618	     -42.376972
	 D(3,1,9,10)      =        -3.027168	    -173.443972
	 D(3,11,4,17)     =         3.139225	     179.864321
	 D(4,2,9,10)      =         3.047824	     174.627463
	 D(4,11,3,16)     =        -3.103307	    -177.806366
	 D(5,7,12,8)      =        -0.003667	      -0.210085
	 D(5,10,6,8)      =         0.034108	       1.954235
	 D(5,10,6,19)     =        -3.125483	    -179.076983
	 D(6,8,12,7)      =        -0.011118	      -0.637031
	 D(6,10,5,7)      =        -0.047778	      -2.737498
	 D(6,10,5,18)     =         3.091794	     177.146746
	 D(7,5,10,9)      =        -3.082788	    -176.630715
	 D(7,12,8,21)     =         3.138248	     179.808391
	 D(8,6,10,9)      =         3.069505	     175.869698
	 D(8,12,7,20)     =        -3.119039	    -178.707760
	 D(9,1,3,11)      =         0.003535	       0.202544
	 D(9,1,3,16)      =         3.129252	     179.292924
	 D(9,2,4,11)      =        -0.045287	      -2.594765
	 D(9,2,4,17)      =         3.096318	     177.405980
	 D(9,10,5,18)     =         0.056785	       3.253529
	 D(9,10,6,19)     =        -0.090086	      -5.161520
	 D(10,5,7,12)     =         0.034769	       1.992094
	 D(10,5,7,20)     =        -3.134010	    -179.565562
	 D(10,6,8,12)     =        -0.005198	      -0.297809
	 D(10,6,8,21)     =         3.128338	     179.240536
	 D(10,9,1,14)     =         0.097369	       5.578807
	 D(10,9,2,15)     =        -0.133104	      -7.626277
	 D(11,3,1,14)     =        -3.120881	    -178.813312
	 D(11,4,2,15)     =         3.135893	     179.673436
	 D(12,7,5,18)     =        -3.104789	    -177.891278
	 D(12,8,6,19)     =        -3.128656	    -179.258808
	 D(13,11,3,16)    =         0.031367	       1.797200
	 D(13,11,4,17)    =         0.004543	       0.260319
	 D(14,1,3,16)     =         0.004836	       0.277069
	 D(15,2,4,17)     =        -0.005687	      -0.325819
	 D(18,5,7,20)     =         0.009618	       0.551066
	 D(19,6,8,21)     =         0.004879	       0.279537

	Current energy   :      -553.1731546177

	Energy change for the previous step:
		Projected    :        -0.0000516410
		Actual       :        -0.0001306715

	Performing BFGS update.
	Previous computed or guess Hessian on step 1.
	Steps to be used in Hessian update: 7 6
	Adding user-defined constraint: Fragment 1; Coordinate 61:
		Value =    -1.024717; Fixed value    =    -1.047200
		Force =    -0.015176; Force constant =     0.675000
	Removing off-diagonal coupling between coordinate 61 and others.
	Taking RFO optimization step.
	Going to follow RFO solution 1.
	Using RFO vector 1.
	Norm of target step-size    0.01129
	Projected energy change by RFO approximation:        -0.0000246462

	Back-transformation to cartesian coordinates...
	The INTCO_EXCEPTion handler:
	TORS::compute_val: unable to compute torsion value
	Dynamic level is 0.
	exc.g_really_quit() is 0.

  **** Optimization has failed! (in 8 steps) ****
			--------------------------
			 OPTKING Finished Execution 
			--------------------------
	Cleaning optimization helper files.

*** Psi4 exiting successfully. Buy a developer a beer!
