
    -----------------------------------------------------------------------
          Psi4: An Open-Source Ab Initio Electronic Structure Package
                               Psi4 1.1 release

                         Git: Rev {HEAD} add49b9 


    R. M. Parrish, L. A. Burns, D. G. A. Smith, A. C. Simmonett,
    A. E. DePrince III, E. G. Hohenstein, U. Bozkaya, A. Yu. Sokolov,
    R. Di Remigio, R. M. Richard, J. F. Gonthier, A. M. James,
    H. R. McAlexander, A. Kumar, M. Saitow, X. Wang, B. P. Pritchard,
    P. Verma, H. F. Schaefer III, K. Patkowski, R. A. King, E. F. Valeev,
    F. A. Evangelista, J. M. Turney, T. D. Crawford, and C. D. Sherrill,
    J. Chem. Theory Comput. in press (2017).
    (doi: 10.1021/acs.jctc.7b00174)

    -----------------------------------------------------------------------


    Psi4 started on: Sunday, 12 November 2017 08:10AM

    Process ID:  25652
    PSIDATADIR: /cbio/jclab/home/chayas/anaconda/envs/py35/share/psi4
    Memory:     500.0 MiB
    Threads:    8
    
  ==> Input File <==

--------------------------------------------------------------------------

memory 5 Gb

molecule phepyrOH_cation {
  symmetry C1
  1 1 
  C      1.885   -1.036   -0.112
  C      2.878   -1.652   2.002
  C      0.807   -0.463   0.561
  C      1.800   -1.079   2.676
  C      3.950   -2.488   -1.454
  C      5.207   -2.536   0.601
  C      5.038   -3.059   -2.097
  C      6.264   -3.106   -0.095
  C      2.921   -1.631   0.608
  C      4.040   -2.225   -0.090
  C      0.764   -0.484   1.955
  N      6.150   -3.348   -1.408
  O      -0.288   0.076   2.612
  H      1.904   -1.012   -1.199
  H      3.678   -2.112   2.578
  H      0.003   -0.001   -0.006
  H      1.772   -1.098   3.762
  H      3.051   -2.256   -2.018
  H      5.305   -2.343   1.665
  H      5.058   -3.297   -3.152
  H      7.207   -3.379   0.358
  H      6.938   -3.768   -1.900
  H      -0.175   -0.018   3.571
  units Angstrom
}

dih_string = "1 9 10 5 345"
set optking fixed_dihedral = $dih_string

optimize('MP2/aug-cc-PVTZ')
--------------------------------------------------------------------------

  Memory set to   4.657 GiB by Python driver.
gradient() will perform analytic gradient computation.

*** tstart() called on gpu-2-9.local
*** at Sun Nov 12 08:10:57 2017

    SCF Algorithm Type (re)set to DF.

*** tstart() called on gpu-2-9.local
*** at Sun Nov 12 08:10:57 2017

   => Loading Basis Set <=

    Name: AUG-CC-PVTZ
    Role: ORBITAL
    Keyword: BASIS
    atoms 1-11  entry C          line   221 file /cbio/jclab/home/chayas/anaconda/envs/py35/share/psi4/basis/aug-cc-pvtz.gbs 
    atoms 12    entry N          line   267 file /cbio/jclab/home/chayas/anaconda/envs/py35/share/psi4/basis/aug-cc-pvtz.gbs 
    atoms 13    entry O          line   313 file /cbio/jclab/home/chayas/anaconda/envs/py35/share/psi4/basis/aug-cc-pvtz.gbs 
    atoms 14-23 entry H          line    34 file /cbio/jclab/home/chayas/anaconda/envs/py35/share/psi4/basis/aug-cc-pvtz.gbs 


         ---------------------------------------------------------
                                   SCF
            by Justin Turney, Rob Parrish, and Andy Simmonett
                              RHF Reference
                        8 Threads,   4768 MiB Core
         ---------------------------------------------------------

  ==> Geometry <==

    Molecular point group: c1
    Full point group: C1

    Geometry (in Angstrom), charge = 1, multiplicity = 1:

       Center              X                  Y                   Z               Mass       
    ------------   -----------------  -----------------  -----------------  -----------------
           C         -1.271584677165     0.720253960617    -0.579292992181    12.000000000000
           C         -0.278584677165     0.104253960617     1.534707007819    12.000000000000
           C         -2.349584677165     1.293253960617     0.093707007819    12.000000000000
           C         -1.356584677165     0.677253960617     2.208707007819    12.000000000000
           C          0.793415322835    -0.731746039383    -1.921292992181    12.000000000000
           C          2.050415322835    -0.779746039383     0.133707007819    12.000000000000
           C          1.881415322835    -1.302746039383    -2.564292992181    12.000000000000
           C          3.107415322835    -1.349746039383    -0.562292992181    12.000000000000
           C         -0.235584677165     0.125253960617     0.140707007819    12.000000000000
           C          0.883415322835    -0.468746039383    -0.557292992181    12.000000000000
           C         -2.392584677165     1.272253960617     1.487707007819    12.000000000000
           N          2.993415322835    -1.591746039383    -1.875292992181    14.003074004780
           O         -3.444584677165     1.832253960617     2.144707007819    15.994914619560
           H         -1.252584677165     0.744253960617    -1.666292992181     1.007825032070
           H          0.521415322835    -0.355746039383     2.110707007819     1.007825032070
           H         -3.153584677165     1.755253960617    -0.473292992181     1.007825032070
           H         -1.384584677165     0.658253960617     3.294707007819     1.007825032070
           H         -0.105584677165    -0.499746039383    -2.485292992181     1.007825032070
           H          2.148415322835    -0.586746039383     1.197707007819     1.007825032070
           H          1.901415322835    -1.540746039383    -3.619292992181     1.007825032070
           H          4.050415322835    -1.622746039383    -0.109292992181     1.007825032070
           H          3.781415322835    -2.011746039383    -2.367292992181     1.007825032070
           H         -3.331584677165     1.738253960617     3.103707007819     1.007825032070

  Running in c1 symmetry.

  Rotational constants: A =      0.09610  B =      0.01345  C =      0.01185 [cm^-1]
  Rotational constants: A =   2880.91637  B =    403.24082  C =    355.21207 [MHz]
  Nuclear repulsion =  713.659266897033035

  Charge       = 1
  Multiplicity = 1
  Electrons    = 90
  Nalpha       = 45
  Nbeta        = 45

  ==> Algorithm <==

  SCF Algorithm Type is DF.
  DIIS enabled.
  MOM disabled.
  Fractional occupation disabled.
  Guess Type is SAD.
  Energy threshold   = 1.00e-10
  Density threshold  = 1.00e-10
  Integral threshold = 0.00e+00

  ==> Primary Basis <==

  Basis Set: AUG-CC-PVTZ
    Blend: AUG-CC-PVTZ
    Number of shells: 272
    Number of basis function: 828
    Number of Cartesian functions: 965
    Spherical Harmonics?: true
    Max angular momentum: 3

   => Loading Basis Set <=

    Name: (AUG-CC-PVTZ AUX)
    Role: JKFIT
    Keyword: DF_BASIS_SCF
    atoms 1-11  entry C          line   161 file /cbio/jclab/home/chayas/anaconda/envs/py35/share/psi4/basis/aug-cc-pvtz-jkfit.gbs 
    atoms 12    entry N          line   223 file /cbio/jclab/home/chayas/anaconda/envs/py35/share/psi4/basis/aug-cc-pvtz-jkfit.gbs 
    atoms 13    entry O          line   285 file /cbio/jclab/home/chayas/anaconda/envs/py35/share/psi4/basis/aug-cc-pvtz-jkfit.gbs 
    atoms 14-23 entry H          line    69 file /cbio/jclab/home/chayas/anaconda/envs/py35/share/psi4/basis/aug-cc-pvtz-jkfit.gbs 

  ==> Pre-Iterations <==

   -------------------------------------------------------
    Irrep   Nso     Nmo     Nalpha   Nbeta   Ndocc  Nsocc
   -------------------------------------------------------
     A        828     828       0       0       0       0
   -------------------------------------------------------
    Total     828     828      45      45      45       0
   -------------------------------------------------------

  ==> Integral Setup <==

  ==> DFJK: Density-Fitted J/K Matrices <==

    J tasked:                  Yes
    K tasked:                  Yes
    wK tasked:                  No
    OpenMP threads:              8
    Integrals threads:           8
    Memory (MB):              3576
    Algorithm:                Disk
    Integral Cache:           NONE
    Schwarz Cutoff:          1E-12
    Fitting Condition:       1E-12

   => Auxiliary Basis Set <=

  Basis Set: (AUG-CC-PVTZ AUX)
    Blend: AUG-CC-PVTZ-JKFIT
    Number of shells: 530
    Number of basis function: 1812
    Number of Cartesian functions: 2253
    Spherical Harmonics?: true
    Max angular momentum: 4

  Minimum eigenvalue in the overlap matrix is 5.0204253716E-07.
  Using Symmetric Orthogonalization.

  SCF Guess: Superposition of Atomic Densities via on-the-fly atomic UHF.

  ==> Iterations <==

                           Total Energy        Delta E     RMS |[F,P]|

   @DF-RHF iter   0:  -552.94442908827466   -5.52944e+02   2.17548e-02 
   @DF-RHF iter   1:  -551.24099492723997    1.70343e+00   1.71275e-03 
   @DF-RHF iter   2:  -551.58193169212495   -3.40937e-01   1.11643e-03 DIIS
   @DF-RHF iter   3:  -551.65547940076658   -7.35477e-02   3.92785e-04 DIIS
   @DF-RHF iter   4:  -551.67121623243963   -1.57368e-02   1.47519e-04 DIIS
   @DF-RHF iter   5:  -551.67320164613625   -1.98541e-03   4.16088e-05 DIIS
   @DF-RHF iter   6:  -551.67350325100267   -3.01605e-04   1.99195e-05 DIIS
   @DF-RHF iter   7:  -551.67357060283928   -6.73518e-05   7.63754e-06 DIIS
   @DF-RHF iter   8:  -551.67358428750265   -1.36847e-05   3.57814e-06 DIIS
   @DF-RHF iter   9:  -551.67358797861493   -3.69111e-06   1.73773e-06 DIIS
   @DF-RHF iter  10:  -551.67358877458446   -7.95970e-07   6.33187e-07 DIIS
   @DF-RHF iter  11:  -551.67358889525906   -1.20675e-07   1.99714e-07 DIIS
   @DF-RHF iter  12:  -551.67358890609444   -1.08354e-08   8.75207e-08 DIIS
   @DF-RHF iter  13:  -551.67358890827904   -2.18461e-09   4.84433e-08 DIIS
   @DF-RHF iter  14:  -551.67358890879086   -5.11818e-10   1.60509e-08 DIIS
   @DF-RHF iter  15:  -551.67358890886044   -6.95763e-11   6.47223e-09 DIIS
   @DF-RHF iter  16:  -551.67358890888397   -2.35332e-11   3.30808e-09 DIIS
   @DF-RHF iter  17:  -551.67358890888386    1.13687e-13   9.95413e-10 DIIS
   @DF-RHF iter  18:  -551.67358890885635    2.75122e-11   4.44880e-10 DIIS
   @DF-RHF iter  19:  -551.67358890885714   -7.95808e-13   1.78441e-10 DIIS
   @DF-RHF iter  20:  -551.67358890887124   -1.40972e-11   8.47421e-11 DIIS

  ==> Post-Iterations <==

    Orbital Energies (a.u.)
    -----------------------

    Doubly Occupied:                                                      

       1A    -20.706412     2A    -15.829163     3A    -11.481964  
       4A    -11.481588     5A    -11.445224     6A    -11.438078  
       7A    -11.412067     8A    -11.411795     9A    -11.383059  
      10A    -11.381234    11A    -11.372590    12A    -11.359903  
      13A    -11.356228    14A     -1.521093    15A     -1.508141  
      16A     -1.321240    17A     -1.264747    18A     -1.234975  
      19A     -1.155762    20A     -1.154300    21A     -1.067584  
      22A     -1.053806    23A     -0.978155    24A     -0.959982  
      25A     -0.951808    26A     -0.871716    27A     -0.860041  
      28A     -0.854632    29A     -0.822789    30A     -0.798011  
      31A     -0.777703    32A     -0.772818    33A     -0.759991  
      34A     -0.736678    35A     -0.718249    36A     -0.707256  
      37A     -0.703775    38A     -0.683771    39A     -0.656052  
      40A     -0.644943    41A     -0.621599    42A     -0.569553  
      43A     -0.536336    44A     -0.472112    45A     -0.437845  

    Virtual:                                                              

      46A     -0.106047    47A     -0.083497    48A     -0.064541  
      49A     -0.062737    50A     -0.059511    51A     -0.046396  
      52A     -0.044267    53A     -0.039606    54A     -0.031902  
      55A     -0.026190    56A     -0.025271    57A     -0.022252  
      58A     -0.017976    59A     -0.008115    60A     -0.006830  
      61A     -0.001085    62A      0.005044    63A      0.006131  
      64A      0.008962    65A      0.017423    66A      0.019228  
      67A      0.021457    68A      0.024808    69A      0.025897  
      70A      0.030393    71A      0.032485    72A      0.034671  
      73A      0.036541    74A      0.040133    75A      0.048684  
      76A      0.049893    77A      0.056374    78A      0.059621  
      79A      0.063677    80A      0.065809    81A      0.070408  
      82A      0.073855    83A      0.076688    84A      0.078842  
      85A      0.084941    86A      0.086381    87A      0.087238  
      88A      0.096450    89A      0.101246    90A      0.105839  
      91A      0.108073    92A      0.114412    93A      0.120212  
      94A      0.126492    95A      0.129852    96A      0.133468  
      97A      0.135048    98A      0.137110    99A      0.142511  
     100A      0.146048   101A      0.150325   102A      0.155230  
     103A      0.159701   104A      0.163472   105A      0.165161  
     106A      0.169726   107A      0.171396   108A      0.174701  
     109A      0.179766   110A      0.184003   111A      0.188453  
     112A      0.190364   113A      0.196569   114A      0.198437  
     115A      0.206804   116A      0.209958   117A      0.211245  
     118A      0.217745   119A      0.221022   120A      0.224722  
     121A      0.226033   122A      0.228707   123A      0.230987  
     124A      0.234905   125A      0.236409   126A      0.241850  
     127A      0.244339   128A      0.250185   129A      0.253498  
     130A      0.256039   131A      0.266164   132A      0.271645  
     133A      0.274674   134A      0.281068   135A      0.283943  
     136A      0.285149   137A      0.290410   138A      0.297170  
     139A      0.303835   140A      0.304969   141A      0.306431  
     142A      0.311827   143A      0.315173   144A      0.318860  
     145A      0.325224   146A      0.328352   147A      0.330596  
     148A      0.335966   149A      0.336586   150A      0.337896  
     151A      0.341073   152A      0.345495   153A      0.349434  
     154A      0.353468   155A      0.355560   156A      0.359059  
     157A      0.365182   158A      0.367230   159A      0.369758  
     160A      0.375102   161A      0.378765   162A      0.383001  
     163A      0.386811   164A      0.389809   165A      0.391581  
     166A      0.393444   167A      0.394502   168A      0.398354  
     169A      0.405120   170A      0.408963   171A      0.411025  
     172A      0.414950   173A      0.418389   174A      0.420109  
     175A      0.430550   176A      0.432782   177A      0.437529  
     178A      0.439881   179A      0.446432   180A      0.449531  
     181A      0.452678   182A      0.457689   183A      0.462944  
     184A      0.465360   185A      0.471103   186A      0.482710  
     187A      0.493323   188A      0.496164   189A      0.503240  
     190A      0.508273   191A      0.510684   192A      0.513649  
     193A      0.525504   194A      0.534557   195A      0.538184  
     196A      0.539481   197A      0.546164   198A      0.550427  
     199A      0.562447   200A      0.565693   201A      0.569662  
     202A      0.576310   203A      0.577177   204A      0.584477  
     205A      0.587416   206A      0.589440   207A      0.594681  
     208A      0.596120   209A      0.607553   210A      0.614061  
     211A      0.619242   212A      0.626224   213A      0.632130  
     214A      0.638686   215A      0.641663   216A      0.643711  
     217A      0.647647   218A      0.656239   219A      0.660288  
     220A      0.669531   221A      0.676184   222A      0.681786  
     223A      0.687776   224A      0.700512   225A      0.703264  
     226A      0.706275   227A      0.712925   228A      0.717080  
     229A      0.722715   230A      0.723680   231A      0.733245  
     232A      0.734777   233A      0.737886   234A      0.743130  
     235A      0.746797   236A      0.750066   237A      0.759453  
     238A      0.762059   239A      0.767719   240A      0.773296  
     241A      0.776290   242A      0.778869   243A      0.784701  
     244A      0.787571   245A      0.789186   246A      0.796892  
     247A      0.801375   248A      0.804959   249A      0.807333  
     250A      0.810331   251A      0.813467   252A      0.815958  
     253A      0.819712   254A      0.832050   255A      0.837620  
     256A      0.844695   257A      0.848893   258A      0.854717  
     259A      0.856519   260A      0.857849   261A      0.865382  
     262A      0.866939   263A      0.869120   264A      0.875736  
     265A      0.877100   266A      0.880557   267A      0.885609  
     268A      0.896127   269A      0.900094   270A      0.903320  
     271A      0.906566   272A      0.910664   273A      0.917965  
     274A      0.920421   275A      0.930019   276A      0.937836  
     277A      0.939023   278A      0.944185   279A      0.947322  
     280A      0.950180   281A      0.952672   282A      0.956972  
     283A      0.961701   284A      0.972181   285A      0.977011  
     286A      0.979436   287A      0.981432   288A      0.985291  
     289A      0.993489   290A      0.999788   291A      1.003277  
     292A      1.010350   293A      1.014900   294A      1.015060  
     295A      1.020881   296A      1.022956   297A      1.025788  
     298A      1.034250   299A      1.038503   300A      1.047971  
     301A      1.052885   302A      1.056144   303A      1.058669  
     304A      1.060552   305A      1.065186   306A      1.067378  
     307A      1.068544   308A      1.076041   309A      1.081801  
     310A      1.087071   311A      1.095869   312A      1.100766  
     313A      1.106374   314A      1.110308   315A      1.112658  
     316A      1.121869   317A      1.125842   318A      1.126598  
     319A      1.131977   320A      1.138208   321A      1.147690  
     322A      1.150652   323A      1.155506   324A      1.161705  
     325A      1.164685   326A      1.172293   327A      1.173471  
     328A      1.180844   329A      1.192554   330A      1.197224  
     331A      1.207718   332A      1.218816   333A      1.222672  
     334A      1.226925   335A      1.242343   336A      1.243697  
     337A      1.244406   338A      1.251298   339A      1.261763  
     340A      1.263301   341A      1.274307   342A      1.278649  
     343A      1.286524   344A      1.289372   345A      1.296905  
     346A      1.311822   347A      1.318693   348A      1.323979  
     349A      1.334202   350A      1.336085   351A      1.340945  
     352A      1.352504   353A      1.359666   354A      1.364858  
     355A      1.370885   356A      1.373802   357A      1.374741  
     358A      1.382657   359A      1.394438   360A      1.400968  
     361A      1.405479   362A      1.411662   363A      1.420078  
     364A      1.429463   365A      1.440685   366A      1.442869  
     367A      1.455849   368A      1.465910   369A      1.476130  
     370A      1.480574   371A      1.484769   372A      1.493965  
     373A      1.504304   374A      1.511204   375A      1.520057  
     376A      1.530951   377A      1.534150   378A      1.541790  
     379A      1.546948   380A      1.554671   381A      1.562894  
     382A      1.566277   383A      1.572176   384A      1.579340  
     385A      1.588290   386A      1.603158   387A      1.619289  
     388A      1.627243   389A      1.638578   390A      1.643743  
     391A      1.651669   392A      1.656692   393A      1.665013  
     394A      1.672696   395A      1.681767   396A      1.685451  
     397A      1.690578   398A      1.693018   399A      1.705863  
     400A      1.712546   401A      1.728317   402A      1.735415  
     403A      1.737430   404A      1.739376   405A      1.744030  
     406A      1.752753   407A      1.762704   408A      1.765684  
     409A      1.775824   410A      1.790967   411A      1.797456  
     412A      1.809465   413A      1.813733   414A      1.818676  
     415A      1.833365   416A      1.837838   417A      1.847269  
     418A      1.850073   419A      1.858328   420A      1.858635  
     421A      1.868605   422A      1.875096   423A      1.887040  
     424A      1.903306   425A      1.905594   426A      1.909384  
     427A      1.912179   428A      1.916493   429A      1.922239  
     430A      1.931243   431A      1.934990   432A      1.936251  
     433A      1.941299   434A      1.950085   435A      1.959437  
     436A      1.973989   437A      1.982223   438A      1.992556  
     439A      1.997593   440A      2.002496   441A      2.005240  
     442A      2.027661   443A      2.029780   444A      2.035333  
     445A      2.038778   446A      2.045599   447A      2.060472  
     448A      2.067181   449A      2.069114   450A      2.087752  
     451A      2.092491   452A      2.102342   453A      2.106302  
     454A      2.116854   455A      2.135670   456A      2.139263  
     457A      2.161962   458A      2.165399   459A      2.177386  
     460A      2.182999   461A      2.193145   462A      2.201211  
     463A      2.215376   464A      2.219852   465A      2.232398  
     466A      2.239573   467A      2.249500   468A      2.262929  
     469A      2.272593   470A      2.282514   471A      2.287908  
     472A      2.292905   473A      2.299545   474A      2.309766  
     475A      2.315996   476A      2.336322   477A      2.356834  
     478A      2.360486   479A      2.376883   480A      2.379338  
     481A      2.387461   482A      2.409608   483A      2.415563  
     484A      2.418911   485A      2.427716   486A      2.431826  
     487A      2.444960   488A      2.453371   489A      2.460475  
     490A      2.478237   491A      2.488038   492A      2.511179  
     493A      2.517874   494A      2.533902   495A      2.558720  
     496A      2.561808   497A      2.571565   498A      2.588992  
     499A      2.608015   500A      2.614985   501A      2.634050  
     502A      2.656124   503A      2.662256   504A      2.681334  
     505A      2.715911   506A      2.727497   507A      2.732367  
     508A      2.750903   509A      2.753572   510A      2.777322  
     511A      2.783616   512A      2.799270   513A      2.833307  
     514A      2.854119   515A      2.861640   516A      2.890580  
     517A      2.910693   518A      2.952074   519A      2.965211  
     520A      2.970321   521A      2.978829   522A      2.996392  
     523A      3.019938   524A      3.036645   525A      3.053890  
     526A      3.066178   527A      3.089690   528A      3.101869  
     529A      3.105864   530A      3.129524   531A      3.146232  
     532A      3.152432   533A      3.170322   534A      3.180929  
     535A      3.181866   536A      3.198415   537A      3.201984  
     538A      3.222910   539A      3.228621   540A      3.236460  
     541A      3.245638   542A      3.251436   543A      3.258709  
     544A      3.261801   545A      3.277526   546A      3.290184  
     547A      3.298741   548A      3.310717   549A      3.328405  
     550A      3.344247   551A      3.352501   552A      3.357759  
     553A      3.365686   554A      3.386128   555A      3.389511  
     556A      3.395752   557A      3.401766   558A      3.409425  
     559A      3.417904   560A      3.421200   561A      3.425249  
     562A      3.431373   563A      3.452757   564A      3.458302  
     565A      3.473707   566A      3.477537   567A      3.488418  
     568A      3.502264   569A      3.512045   570A      3.517220  
     571A      3.525518   572A      3.541975   573A      3.544011  
     574A      3.550243   575A      3.563334   576A      3.579349  
     577A      3.581800   578A      3.594830   579A      3.607430  
     580A      3.610818   581A      3.633866   582A      3.637522  
     583A      3.642956   584A      3.651017   585A      3.656006  
     586A      3.675256   587A      3.681600   588A      3.687582  
     589A      3.704866   590A      3.715538   591A      3.718465  
     592A      3.731199   593A      3.738822   594A      3.749931  
     595A      3.761159   596A      3.771839   597A      3.777624  
     598A      3.784806   599A      3.787867   600A      3.794059  
     601A      3.796567   602A      3.801885   603A      3.818357  
     604A      3.831464   605A      3.832237   606A      3.849821  
     607A      3.858875   608A      3.859295   609A      3.868116  
     610A      3.874032   611A      3.880287   612A      3.884746  
     613A      3.902392   614A      3.907940   615A      3.911036  
     616A      3.925697   617A      3.936733   618A      3.956010  
     619A      3.962517   620A      3.976400   621A      3.980299  
     622A      3.991219   623A      4.002281   624A      4.009631  
     625A      4.024409   626A      4.029935   627A      4.046071  
     628A      4.047818   629A      4.051180   630A      4.063665  
     631A      4.077694   632A      4.082691   633A      4.084659  
     634A      4.088962   635A      4.103701   636A      4.111575  
     637A      4.114660   638A      4.118277   639A      4.127894  
     640A      4.146011   641A      4.153471   642A      4.171136  
     643A      4.178305   644A      4.185756   645A      4.188066  
     646A      4.194727   647A      4.203105   648A      4.204898  
     649A      4.212245   650A      4.227112   651A      4.237673  
     652A      4.247469   653A      4.259937   654A      4.270338  
     655A      4.277645   656A      4.282951   657A      4.285197  
     658A      4.292440   659A      4.305301   660A      4.317181  
     661A      4.321167   662A      4.332129   663A      4.345666  
     664A      4.349324   665A      4.356012   666A      4.358349  
     667A      4.368728   668A      4.382915   669A      4.396063  
     670A      4.400644   671A      4.411603   672A      4.423334  
     673A      4.426340   674A      4.436317   675A      4.453418  
     676A      4.459950   677A      4.465973   678A      4.491663  
     679A      4.502551   680A      4.514364   681A      4.533730  
     682A      4.541799   683A      4.566121   684A      4.569820  
     685A      4.581746   686A      4.592407   687A      4.599765  
     688A      4.626815   689A      4.638159   690A      4.644489  
     691A      4.654437   692A      4.659572   693A      4.673130  
     694A      4.675297   695A      4.698258   696A      4.723392  
     697A      4.727658   698A      4.757080   699A      4.759455  
     700A      4.779454   701A      4.786346   702A      4.793418  
     703A      4.808569   704A      4.813823   705A      4.815318  
     706A      4.830723   707A      4.841836   708A      4.846157  
     709A      4.888017   710A      4.897671   711A      4.904874  
     712A      4.907948   713A      4.938871   714A      4.945601  
     715A      4.960622   716A      4.961755   717A      4.972969  
     718A      4.985595   719A      4.990940   720A      5.002802  
     721A      5.012338   722A      5.017577   723A      5.021712  
     724A      5.035329   725A      5.050093   726A      5.061488  
     727A      5.082414   728A      5.090286   729A      5.099587  
     730A      5.122259   731A      5.147912   732A      5.170446  
     733A      5.181921   734A      5.196251   735A      5.205056  
     736A      5.206899   737A      5.216204   738A      5.247619  
     739A      5.268321   740A      5.278272   741A      5.291460  
     742A      5.314367   743A      5.327598   744A      5.337126  
     745A      5.350158   746A      5.387108   747A      5.390183  
     748A      5.397072   749A      5.420495   750A      5.427133  
     751A      5.456847   752A      5.484555   753A      5.505837  
     754A      5.558204   755A      5.590953   756A      5.598268  
     757A      5.607018   758A      5.612376   759A      5.619385  
     760A      5.630731   761A      5.659780   762A      5.691294  
     763A      5.699255   764A      5.706127   765A      5.739337  
     766A      5.764138   767A      5.791433   768A      5.843838  
     769A      5.846746   770A      5.861673   771A      5.952078  
     772A      5.971269   773A      5.994609   774A      5.998068  
     775A      6.049108   776A      6.084644   777A      6.103207  
     778A      6.143708   779A      6.197416   780A      6.230256  
     781A      6.283641   782A      6.323194   783A      6.332130  
     784A      6.362792   785A      6.371989   786A      6.424109  
     787A      6.453341   788A      6.498854   789A      6.507586  
     790A      6.561742   791A      6.600727   792A      6.637767  
     793A      6.702869   794A      6.758943   795A      6.791666  
     796A      6.806036   797A      6.807074   798A      6.817731  
     799A      6.847771   800A      6.898856   801A      6.955225  
     802A      6.988055   803A      6.998066   804A      7.120221  
     805A      7.157315   806A      7.318816   807A      7.331813  
     808A      7.478789   809A      7.553989   810A      7.578188  
     811A      7.614981   812A      7.653168   813A      7.912321  
     814A      8.290039   815A      8.539040   816A     15.982736  
     817A     16.293298   818A     16.634935   819A     17.133126  
     820A     17.177822   821A     18.784836   822A     19.429636  
     823A     19.553445   824A     19.823709   825A     20.286318  
     826A     20.348626   827A     20.736510   828A     21.511318  

    Final Occupation by Irrep:
              A 
    DOCC [    45 ]

  Energy converged.

  @DF-RHF Final Energy:  -551.67358890887124

   => Energetics <=

    Nuclear Repulsion Energy =            713.6592668970330351
    One-Electron Energy =               -2150.1921787208993919
    Two-Electron Energy =                 884.8593229149952322
    DFT Exchange-Correlation Energy =       0.0000000000000000
    Empirical Dispersion Energy =           0.0000000000000000
    PCM Polarization Energy =               0.0000000000000000
    EFP Energy =                            0.0000000000000000
    Total Energy =                       -551.6735889088712383



Properties will be evaluated at   0.000000,   0.000000,   0.000000 Bohr

Properties computed using the SCF density matrix

  Nuclear Dipole Moment: (a.u.)
     X:     2.9514      Y:    -1.6004      Z:    -0.9348

  Electronic Dipole Moment: (a.u.)
     X:     0.1881      Y:    -0.0900      Z:    -0.4222

  Dipole Moment: (a.u.)
     X:     3.1394      Y:    -1.6904      Z:    -1.3570     Total:     3.8151

  Dipole Moment: (Debye)
     X:     7.9797      Y:    -4.2965      Z:    -3.4492     Total:     9.6970


*** tstop() called on gpu-2-9.local at Sun Nov 12 08:18:58 2017
Module time:
	user time   =    1160.58 seconds =      19.34 minutes
	system time =      50.55 seconds =       0.84 minutes
	total time  =        481 seconds =       8.02 minutes
Total time:
	user time   =    1160.59 seconds =      19.34 minutes
	system time =      50.55 seconds =       0.84 minutes
	total time  =        481 seconds =       8.02 minutes

  //>>>>>>>>>>>>>>>>>>>>>>>>>>>>>>>>>>>//
  //               DFMP2               //
  //<<<<<<<<<<<<<<<<<<<<<<<<<<<<<<<<<<<//

   => Loading Basis Set <=

    Name: (AUG-CC-PVTZ AUX)
    Role: RIFIT
    Keyword: DF_BASIS_MP2
    atoms 1-11  entry C          line   147 file /cbio/jclab/home/chayas/anaconda/envs/py35/share/psi4/basis/aug-cc-pvtz-ri.gbs 
    atoms 12    entry N          line   205 file /cbio/jclab/home/chayas/anaconda/envs/py35/share/psi4/basis/aug-cc-pvtz-ri.gbs 
    atoms 13    entry O          line   263 file /cbio/jclab/home/chayas/anaconda/envs/py35/share/psi4/basis/aug-cc-pvtz-ri.gbs 
    atoms 14-23 entry H          line    29 file /cbio/jclab/home/chayas/anaconda/envs/py35/share/psi4/basis/aug-cc-pvtz-ri.gbs 

	 --------------------------------------------------------
	                          DF-MP2                         
	      2nd-Order Density-Fitted Moller-Plesset Theory     
	              RMP2 Wavefunction,   8 Threads             
	                                                         
	        Rob Parrish, Justin Turney, Andy Simmonett,      
	           Ed Hohenstein, and C. David Sherrill          
	 --------------------------------------------------------

   => Auxiliary Basis Set <=

  Basis Set: (AUG-CC-PVTZ AUX)
    Blend: AUG-CC-PVTZ-RI
    Number of shells: 504
    Number of basis function: 1838
    Number of Cartesian functions: 2318
    Spherical Harmonics?: true
    Max angular momentum: 4

	 --------------------------------------------------------
	                 NBF =   828, NAUX =  1838
	 --------------------------------------------------------
	   CLASS    FOCC     OCC    AOCC    AVIR     VIR    FVIR
	   PAIRS       0      45      45     783     783       0
	 --------------------------------------------------------


         ------------------------------------------------------------
                                     CPHF                           
                                  Rob Parrish                       
         ------------------------------------------------------------

  ==> Geometry <==

    Molecular point group: c1
    Full point group: C1

    Geometry (in Angstrom), charge = 1, multiplicity = 1:

       Center              X                  Y                   Z               Mass       
    ------------   -----------------  -----------------  -----------------  -----------------
           C         -1.271584677165     0.720253960617    -0.579292992181    12.000000000000
           C         -0.278584677165     0.104253960617     1.534707007819    12.000000000000
           C         -2.349584677165     1.293253960617     0.093707007819    12.000000000000
           C         -1.356584677165     0.677253960617     2.208707007819    12.000000000000
           C          0.793415322835    -0.731746039383    -1.921292992181    12.000000000000
           C          2.050415322835    -0.779746039383     0.133707007819    12.000000000000
           C          1.881415322835    -1.302746039383    -2.564292992181    12.000000000000
           C          3.107415322835    -1.349746039383    -0.562292992181    12.000000000000
           C         -0.235584677165     0.125253960617     0.140707007819    12.000000000000
           C          0.883415322835    -0.468746039383    -0.557292992181    12.000000000000
           C         -2.392584677165     1.272253960617     1.487707007819    12.000000000000
           N          2.993415322835    -1.591746039383    -1.875292992181    14.003074004780
           O         -3.444584677165     1.832253960617     2.144707007819    15.994914619560
           H         -1.252584677165     0.744253960617    -1.666292992181     1.007825032070
           H          0.521415322835    -0.355746039383     2.110707007819     1.007825032070
           H         -3.153584677165     1.755253960617    -0.473292992181     1.007825032070
           H         -1.384584677165     0.658253960617     3.294707007819     1.007825032070
           H         -0.105584677165    -0.499746039383    -2.485292992181     1.007825032070
           H          2.148415322835    -0.586746039383     1.197707007819     1.007825032070
           H          1.901415322835    -1.540746039383    -3.619292992181     1.007825032070
           H          4.050415322835    -1.622746039383    -0.109292992181     1.007825032070
           H          3.781415322835    -2.011746039383    -2.367292992181     1.007825032070
           H         -3.331584677165     1.738253960617     3.103707007819     1.007825032070

  Nuclear repulsion =  713.659266897033035
  Reference energy  = -551.673588908871238

  ==> Basis Set <==

  Basis Set: AUG-CC-PVTZ
    Blend: AUG-CC-PVTZ
    Number of shells: 272
    Number of basis function: 828
    Number of Cartesian functions: 965
    Spherical Harmonics?: true
    Max angular momentum: 3

  ==> CGRSolver (by Rob Parrish) <==

   Number of roots    =         1
   Preconditioning    =    JACOBI
   Convergence cutoff =     1E-06
   Maximum iterations =       100

  ==> CPHFRHamiltonian (by Rob Parrish) <== 

  ==> DFJK: Density-Fitted J/K Matrices <==

    J tasked:                  Yes
    K tasked:                  Yes
    wK tasked:                  No
    OpenMP threads:              8
    Integrals threads:           8
    Memory (MB):              3576
    Algorithm:                Disk
    Integral Cache:           NONE
    Schwarz Cutoff:          1E-12
    Fitting Condition:       1E-12

   => Auxiliary Basis Set <=

  Basis Set: (AUG-CC-PVTZ AUX)
    Blend: AUG-CC-PVTZ-JKFIT
    Number of shells: 530
    Number of basis function: 1812
    Number of Cartesian functions: 2253
    Spherical Harmonics?: true
    Max angular momentum: 4

  ==> CPHF Iterations <==

  => Iterations <=

             Iter  Converged  Remaining    Residual
  CGR           1          0          1   1.153E-01
  CGR           2          0          1   5.295E-02
  CGR           3          0          1   3.081E-02
  CGR           4          0          1   1.002E-02
  CGR           5          0          1   4.848E-03
  CGR           6          0          1   2.411E-03
  CGR           7          0          1   7.310E-04
  CGR           8          0          1   2.933E-04
  CGR           9          0          1   1.388E-04
  CGR          10          0          1   4.602E-05
  CGR          11          0          1   1.450E-05
  CGR          12          0          1   5.427E-06
  CGR          13          0          1   1.687E-06
  CGR          14          1          0   5.270E-07

    CGRSolver converged.

  ==> DFCorrGrad: Density-Fitted Correlated Gradients <==

    OpenMP threads:              8
    Integrals threads:           8
    Memory (MB):              3576
    Schwarz Cutoff:          0E+00
    Fitting Condition:       1E-12

   => Auxiliary Basis Set <=

  Basis Set: (AUG-CC-PVTZ AUX)
    Blend: AUG-CC-PVTZ-JKFIT
    Number of shells: 530
    Number of basis function: 1812
    Number of Cartesian functions: 2253
    Spherical Harmonics?: true
    Max angular momentum: 4

	-----------------------------------------------------------
	 ==================> DF-MP2 Energies <==================== 
	-----------------------------------------------------------
	 Reference Energy          =    -551.6735889088712383 [Eh]
	 Singles Energy            =      -0.0000000000000001 [Eh]
	 Same-Spin Energy          =      -0.5969431585635115 [Eh]
	 Opposite-Spin Energy      =      -1.8265073492803774 [Eh]
	 Correlation Energy        =      -2.4234505078438890 [Eh]
	 Total Energy              =    -554.0970394167151198 [Eh]
	-----------------------------------------------------------
	 ================> DF-SCS-MP2 Energies <================== 
	-----------------------------------------------------------
	 SCS Same-Spin Scale       =       0.3333333333333333 [-]
	 SCS Opposite-Spin Scale   =       1.2000000000000000 [-]
	 SCS Same-Spin Energy      =      -0.1989810528545038 [Eh]
	 SCS Opposite-Spin Energy  =      -2.1918088191364529 [Eh]
	 SCS Correlation Energy    =      -2.3907898719909566 [Eh]
	 SCS Total Energy          =    -554.0643787808621710 [Eh]
	-----------------------------------------------------------


  -Total Gradient:
     Atom            X                  Y                   Z
    ------   -----------------  -----------------  -----------------
       1        0.013558845496    -0.004562394075    -0.007646428254
       2        0.009236237129    -0.007462194939    -0.010194540798
       3       -0.000807181619     0.000121475497     0.008978575887
       4       -0.013057001888     0.007140026716     0.005922525153
       5       -0.017533864105     0.008226792202     0.012755166206
       6       -0.019384272696     0.011287129762     0.010219210356
       7        0.013418860578    -0.004631276798     0.005751801298
       8        0.002465378181    -0.003723649309    -0.014849218285
       9       -0.004402896685     0.002190412427     0.002310668620
      10        0.015770144921    -0.008006477017    -0.009664367608
      11        0.004219359838    -0.001889641962    -0.015577764249
      12       -0.003015023722     0.001530072707     0.001450789731
      13       -0.006219613735     0.003161395835     0.009810079306
      14        0.002171114107    -0.002928566898    -0.008092706827
      15        0.008040951643    -0.002484712701     0.002039581683
      16       -0.003206055778     0.001554056412    -0.005138263026
      17        0.000508923090    -0.000101361593     0.004409151299
      18       -0.008076399174     0.004413788793    -0.002288181749
      19       -0.002681917325     0.001157966978     0.008677168733
      20        0.001531456589    -0.000915427093    -0.002637363620
      21        0.002608003567    -0.001247017994    -0.000257365199
      22        0.005254868832    -0.002835788917    -0.003214252541
      23       -0.000399917238     0.000005391964     0.007235733893


*** tstop() called on gpu-2-9.local at Sun Nov 12 08:53:18 2017
Module time:
	user time   =    5647.97 seconds =      94.13 minutes
	system time =     110.17 seconds =       1.84 minutes
	total time  =       2541 seconds =      42.35 minutes
Total time:
	user time   =    5647.98 seconds =      94.13 minutes
	system time =     110.17 seconds =       1.84 minutes
	total time  =       2541 seconds =      42.35 minutes

			-----------------------------------------
			 OPTKING 2.0: for geometry optimizations 
			  - R.A. King,  Bethel University        
			-----------------------------------------

	Internal coordinates to be generated automatically.
	Detected frag 1 with atoms:  1 2 3 4 5 6 7 8 9 10 11 12 13 14 15 16 17 18 19 20
	 21 22 23
	---Fragment 1 Bond Connectivity---
	 1 : 3 9 14
	 2 : 4 9 15
	 3 : 1 11 16
	 4 : 2 11 17
	 5 : 7 10 18
	 6 : 8 10 19
	 7 : 5 12 20
	 8 : 6 12 21
	 9 : 1 2 10
	 10 : 5 6 9
	 11 : 3 4 13
	 12 : 7 8 22
	 13 : 11 23
	 14 : 1
	 15 : 2
	 16 : 3
	 17 : 4
	 18 : 5
	 19 : 6
	 20 : 7
	 21 : 8
	 22 : 12
	 23 : 13

	Assuming in current code that numbering for constraints corresponds to unified fragment.
	Fixed dihedral atom list: 
	     1     9    10     5
	---Fragment 1 Geometry and Gradient---
	 C          -2.4029467946        1.3610827317       -1.0947051059
	 C          -0.5264487447        0.1970114338        2.9001759390
	 C          -4.4400715659        2.4438958058        0.1770805815
	 C          -2.5635735159        1.2798245080        4.1738513526
	 C           1.4993376698       -1.3827996133       -3.6307175763
	 C           3.8747234188       -1.4735064676        0.2526696268
	 C           3.5553597024       -2.4618332351       -4.8458114797
	 C           5.8721639413       -2.5506503634       -1.0625797617
	 C          -0.4451905209        0.2366956826        0.2658977098
	 C           1.6694130218       -0.8858016403       -1.0531311310
	 C          -4.5213297896        2.4042115570        2.8113588108
	 N           5.6567351621       -3.0079640875       -3.5437901741
	 O          -6.5093216814        3.4624581915        4.0529088801
	 H          -2.3670419981        1.4064361589       -3.1488374124
	 H           0.9853321616       -0.6722625873        3.9886581915
	 H          -5.9594113767        3.3169492792       -0.8943941358
	 H          -2.6164858476        1.2439197115        6.2260939329
	 H          -0.1995261237       -0.9443831504       -4.6965231152
	 H           4.0599165799       -1.1087893240        2.2633382322
	 H           3.5931542250       -2.9115880548       -6.8394725499
	 H           7.6541756846       -3.0665455977       -0.2065338235
	 H           7.1458393549       -3.8016490634       -4.4735354315
	 H          -6.2957826284        3.2848239350        5.8651562415
	             0.0135588455       -0.0045623941       -0.0076464283
	             0.0092362371       -0.0074621949       -0.0101945408
	            -0.0008071816        0.0001214755        0.0089785759
	            -0.0130570019        0.0071400267        0.0059225252
	            -0.0175338641        0.0082267922        0.0127551662
	            -0.0193842727        0.0112871298        0.0102192104
	             0.0134188606       -0.0046312768        0.0057518013
	             0.0024653782       -0.0037236493       -0.0148492183
	            -0.0044028967        0.0021904124        0.0023106686
	             0.0157701449       -0.0080064770       -0.0096643676
	             0.0042193598       -0.0018896420       -0.0155777642
	            -0.0030150237        0.0015300727        0.0014507897
	            -0.0062196137        0.0031613958        0.0098100793
	             0.0021711141       -0.0029285669       -0.0080927068
	             0.0080409516       -0.0024847127        0.0020395817
	            -0.0032060558        0.0015540564       -0.0051382630
	             0.0005089231       -0.0001013616        0.0044091513
	            -0.0080763992        0.0044137888       -0.0022881817
	            -0.0026819173        0.0011579670        0.0086771687
	             0.0015314566       -0.0009154271       -0.0026373636
	             0.0026080036       -0.0012470180       -0.0002573652
	             0.0052548688       -0.0028357889       -0.0032142525
	            -0.0003999172        0.0000053920        0.0072357339

	Previous optimization step data not found.  Starting new optimization.

	---Fragment 1 Intrafragment Coordinates---
	 - Coordinate -           - BOHR/RAD -       - ANG/DEG -
	 R(1,3)           =         2.634350	       1.394038
	 R(1,9)           =         2.635962	       1.394891
	 R(1,14)          =         2.054947	       1.087431
	 R(2,4)           =         2.635263	       1.394521
	 R(2,9)           =         2.635830	       1.394821
	 R(2,15)          =         2.055702	       1.087831
	 R(3,11)          =         2.635830	       1.394821
	 R(3,16)          =         2.053941	       1.086899
	 R(4,11)          =         2.636938	       1.395407
	 R(4,17)          =         2.053239	       1.086527
	 R(5,7)           =         2.620686	       1.386807
	 R(5,10)          =         2.630567	       1.392036
	 R(5,18)          =         2.052873	       1.086334
	 R(6,8)           =         2.622954	       1.388008
	 R(6,10)          =         2.629431	       1.391435
	 R(6,19)          =         2.051854	       1.085794
	 R(7,12)          =         2.531659	       1.339696
	 R(7,20)          =         2.044112	       1.081697
	 R(8,12)          =         2.532183	       1.339974
	 R(8,21)          =         2.043166	       1.081197
	 R(9,10)          =         2.733384	       1.446444
	 R(11,13)         =         2.571662	       1.360865
	 R(12,22)         =         1.926602	       1.019514
	 R(13,23)         =         1.833410	       0.970199
	 B(1,3,11)        =         2.094553	     120.009056
	 B(1,3,16)        =         2.088505	     119.662516
	 B(1,9,2)         =         2.093692	     119.959722
	 B(1,9,10)        =         2.095161	     120.043881
	 B(2,4,11)        =         2.093699	     119.960108
	 B(2,4,17)        =         2.089577	     119.723926
	 B(2,9,10)        =         2.094332	     119.996376
	 B(3,1,9)         =         2.094940	     120.031219
	 B(3,1,14)        =         2.079469	     119.144799
	 B(3,11,4)        =         2.094306	     119.994870
	 B(3,11,13)       =         2.094549	     120.008801
	 B(4,2,9)         =         2.095181	     120.045019
	 B(4,2,15)        =         2.078675	     119.099297
	 B(4,11,13)       =         2.094331	     119.996326
	 B(5,7,12)        =         2.096197	     120.103246
	 B(5,7,20)        =         2.161938	     123.869933
	 B(5,10,6)        =         2.092785	     119.907720
	 B(5,10,9)        =         2.094873	     120.027360
	 B(6,8,12)        =         2.095229	     120.047796
	 B(6,8,21)        =         2.162511	     123.902739
	 B(6,10,9)        =         2.095527	     120.064862
	 B(7,5,10)        =         2.073029	     118.775833
	 B(7,5,18)        =         2.090310	     119.765959
	 B(7,12,8)        =         2.136015	     122.384636
	 B(7,12,22)       =         2.073995	     118.831133
	 B(8,6,10)        =         2.073115	     118.780755
	 B(8,6,19)        =         2.089363	     119.711683
	 B(8,12,22)       =         2.073176	     118.784211
	 B(9,1,14)        =         2.108776	     120.823969
	 B(9,2,15)        =         2.109330	     120.855683
	 B(10,5,18)       =         2.119846	     121.458209
	 B(10,6,19)       =         2.120707	     121.507560
	 B(11,3,16)       =         2.100127	     120.328425
	 B(11,4,17)       =         2.099910	     120.315955
	 B(11,13,23)      =         1.925489	     110.322421
	 B(12,7,20)       =         2.025050	     116.026806
	 B(12,8,21)       =         2.025445	     116.049453
	 D(1,3,11,4)      =        -0.000325	      -0.018609
	 D(1,3,11,13)     =         3.140978	     179.964785
	 D(1,9,2,4)       =         0.000325	       0.018608
	 D(1,9,2,15)      =        -3.141497	    -179.994534
	 D(1,9,10,5)      =        -0.262743	     -15.054075
	 D(1,9,10,6)      =         2.880388	     165.034086
	 D(2,4,11,3)      =         0.000301	       0.017261
	 D(2,4,11,13)     =        -3.141002	    -179.966135
	 D(2,9,1,3)       =        -0.000348	      -0.019945
	 D(2,9,1,14)      =        -3.141221	    -179.978731
	 D(2,9,10,5)      =         2.879766	     164.998428
	 D(2,9,10,6)      =        -0.260288	     -14.913411
	 D(3,1,9,10)      =        -3.141025	    -179.967461
	 D(3,11,4,17)     =         3.141223	     179.978848
	 D(3,11,13,23)    =         3.140828	     179.956172
	 D(4,2,9,10)      =         3.141002	     179.966149
	 D(4,11,3,16)     =         3.141593	     180.000000
	 D(4,11,13,23)    =        -0.001055	      -0.060434
	 D(5,7,12,8)      =         0.000200	       0.011464
	 D(5,7,12,22)     =         3.140889	     179.959670
	 D(5,10,6,8)      =         0.000834	       0.047760
	 D(5,10,6,19)     =        -3.140466	    -179.935450
	 D(6,8,12,7)      =         0.000052	       0.002964
	 D(6,8,12,22)     =        -3.140637	    -179.945266
	 D(6,10,5,7)      =        -0.000591	      -0.033879
	 D(6,10,5,18)     =         3.140962	     179.963880
	 D(7,5,10,9)      =        -3.140648	    -179.945857
	 D(7,12,8,21)     =        -3.140859	    -179.957939
	 D(8,6,10,9)      =         3.140889	     179.959705
	 D(8,12,7,20)     =         3.141058	     179.969388
	 D(9,1,3,11)      =         0.000348	       0.019955
	 D(9,1,3,16)      =        -3.141571	    -179.998735
	 D(9,2,4,11)      =        -0.000301	      -0.017270
	 D(9,2,4,17)      =        -3.141228	    -179.979086
	 D(9,10,5,18)     =         0.000906	       0.051902
	 D(9,10,6,19)     =        -0.000410	      -0.023504
	 D(10,5,7,12)     =         0.000074	       0.004245
	 D(10,5,7,20)     =        -3.140724	    -179.950219
	 D(10,6,8,12)     =        -0.000568	      -0.032539
	 D(10,6,8,21)     =         3.140286	     179.925140
	 D(10,9,1,14)     =         0.001287	       0.073752
	 D(10,9,2,15)     =        -0.000820	      -0.046992
	 D(11,3,1,14)     =         3.141234	     179.979432
	 D(11,4,2,15)     =         3.141517	     179.995641
	 D(12,7,5,18)     =        -3.141480	    -179.993553
	 D(12,8,6,19)     =         3.140737	     179.950979
	 D(13,11,3,16)    =        -0.000286	      -0.016400
	 D(13,11,4,17)    =        -0.000079	      -0.004548
	 D(14,1,3,16)     =        -0.000685	      -0.039257
	 D(15,2,4,17)     =         0.000590	       0.033826
	 D(18,5,7,20)     =         0.000907	       0.051983
	 D(19,6,8,21)     =        -0.001594	      -0.091342
	 D(20,7,12,22)    =        -0.001438	      -0.082406
	 D(21,8,12,22)    =         0.001638	       0.093831

	Current energy   :      -554.0970394167

	Generating empirical Hessian (Schlegel '84) for each fragment.
	Adding user-defined constraint: Fragment 1; Coordinate 66:
		Value =    -0.262743; Fixed value    =    -0.261799
		Force =     0.000472; Force constant =     0.500000
	Removing off-diagonal coupling between coordinate 66 and others.
	Taking RFO optimization step.
	Going to follow RFO solution 1.
	Using RFO vector 1.

	Determining step-restricting scale parameter for RS-RFO.
	Maximum step size allowed    0.10000

	 Iter      |step|        alpha        rfo_root  
	------------------------------------------------
	    0     0.22887       1.00000           1
	    1     0.17468       4.62666           1
	    2     0.13586      15.04310           1
	    3     0.11145      31.20056           1
	    4     0.10172      41.97202           1
	    5     0.10005      44.20346           1
	    6     0.10000      44.27053           1
	------------------------------------------------
	Norm of target step-size    0.10000
	Projected energy change by RFO approximation:        -0.0054108147

	Back-transformation to cartesian coordinates...
	Could not converge backtransformation.
	Using first guess instead.

	--- Internal Coordinate Step in ANG or DEG, aJ/ANG or AJ/DEG ---
	 ---------------------------------------------------------------------------
	   Coordinate                Previous        Force       Change         New 
	   ----------                --------       ------       ------       ------
	    1 R(1,3)          =      1.394038    -0.107928    -0.009749     1.384289
	    2 R(1,9)          =      1.394891     0.043549     0.004183     1.399074
	    3 R(1,14)         =      1.087431    -0.066427    -0.007010     1.080420
	    4 R(2,4)          =      1.394521    -0.108903    -0.009775     1.384746
	    5 R(2,9)          =      1.394821     0.033851     0.003286     1.398107
	    6 R(2,15)         =      1.087831    -0.066272    -0.007040     1.080791
	    7 R(3,11)         =      1.394821    -0.063473    -0.005905     1.388916
	    8 R(3,16)         =      1.086899    -0.047065    -0.005019     1.081880
	    9 R(4,11)         =      1.395407    -0.014980    -0.001495     1.393912
	   10 R(4,17)         =      1.086527    -0.036215    -0.003874     1.082653
	   11 R(5,7)          =      1.386807    -0.116073    -0.010224     1.376583
	   12 R(5,10)         =      1.392036     0.085641     0.007901     1.399938
	   13 R(5,18)         =      1.086334    -0.072618    -0.007701     1.078632
	   14 R(6,8)          =      1.388008    -0.123123    -0.010935     1.377073
	   15 R(6,10)         =      1.391435     0.088773     0.008282     1.399717
	   16 R(6,19)         =      1.085794    -0.069755    -0.007306     1.078488
	   17 R(7,12)         =      1.339696     0.016751     0.001219     1.340915
	   18 R(7,20)         =      1.081697    -0.023085    -0.002414     1.079283
	   19 R(8,12)         =      1.339974     0.014787     0.001063     1.341036
	   20 R(8,21)         =      1.081197    -0.020446    -0.002159     1.079038
	   21 R(9,10)         =      1.446444     0.102872     0.010416     1.456860
	   22 R(11,13)        =      1.360865    -0.120695    -0.009556     1.351309
	   23 R(12,22)        =      1.019514    -0.055866    -0.005184     1.014330
	   24 R(13,23)        =      0.970199    -0.058537    -0.004636     0.965563
	   25 B(1,3,11)       =    120.009056    -0.000019    -0.081560   119.927496
	   26 B(1,3,16)       =    119.662516     0.000206     0.406329   120.068845
	   27 B(1,9,2)        =    119.959722    -0.000808    -1.179396   118.780326
	   28 B(1,9,10)       =    120.043881     0.000396     0.578458   120.622339
	   29 B(2,4,11)       =    119.960108     0.000100     0.129311   120.089419
	   30 B(2,4,17)       =    119.723926    -0.000007     0.015715   119.739641
	   31 B(2,9,10)       =    119.996376     0.000412     0.600941   120.597317
	   32 B(3,1,9)        =    120.031219     0.000464     0.751200   120.782419
	   33 B(3,1,14)       =    119.144799    -0.000488    -0.856053   118.288746
	   34 B(3,11,4)       =    119.994870    -0.000008    -0.077651   119.917219
	   35 B(3,11,13)      =    120.008801    -0.001011    -1.508369   118.500432
	   36 B(4,2,9)        =    120.045019     0.000270     0.458008   120.503027
	   37 B(4,2,15)       =    119.099297    -0.000345    -0.621033   118.478264
	   38 B(4,11,13)      =    119.996326     0.001019     1.586022   121.582348
	   39 B(5,7,12)       =    120.103246    -0.000171    -0.313793   119.789453
	   40 B(5,7,20)       =    123.869933    -0.000031    -0.057462   123.812472
	   41 B(5,10,6)       =    119.907720    -0.001175    -1.749206   118.158514
	   42 B(5,10,9)       =    120.027360     0.000571     0.850570   120.877930
	   43 B(6,8,12)       =    120.047796    -0.000150    -0.283804   119.763992
	   44 B(6,8,21)       =    123.902739    -0.000041    -0.073244   123.829495
	   45 B(6,10,9)       =    120.064862     0.000603     0.898691   120.963553
	   46 B(7,5,10)       =    118.775833     0.000682     1.100733   119.876566
	   47 B(7,5,18)       =    119.765959    -0.000585    -1.010070   118.755888
	   48 B(7,12,8)       =    122.384636     0.000126     0.146084   122.530720
	   49 B(7,12,22)      =    118.831133    -0.000067    -0.081639   118.749494
	   50 B(8,6,10)       =    118.780755     0.000688     1.099995   119.880750
	   51 B(8,6,19)       =    119.711683    -0.000584    -1.004071   118.707613
	   52 B(8,12,22)      =    118.784211    -0.000059    -0.064435   118.719776
	   53 B(9,1,14)       =    120.823969     0.000024     0.104566   120.928535
	   54 B(9,2,15)       =    120.855683     0.000074     0.162552   121.018235
	   55 B(10,5,18)      =    121.458209    -0.000097    -0.090899   121.367309
	   56 B(10,6,19)      =    121.507560    -0.000104    -0.096096   121.411464
	   57 B(11,3,16)      =    120.328425    -0.000187    -0.324776   120.003649
	   58 B(11,4,17)      =    120.315955    -0.000094    -0.145016   120.170938
	   59 B(11,13,23)     =    110.322421    -0.000199    -0.372736   109.949684
	   60 B(12,7,20)      =    116.026806     0.000202     0.371268   116.398074
	   61 B(12,8,21)      =    116.049453     0.000191     0.356979   116.406432
	   62 D(1,3,11,4)     =     -0.018609     0.000003     0.037658     0.019049
	   63 D(1,3,11,13)    =    179.964785     0.000004     0.055522   180.020307
	   64 D(1,9,2,4)      =      0.018608     0.000001     0.003179     0.021786
	   65 D(1,9,2,15)     =   -179.994534    -0.000018    -0.238123  -180.232657
	   66 D(1,9,10,5)     =    -15.054075    -0.000013    -0.093596   -15.147671
	   67 D(1,9,10,6)     =    165.034086    -0.000019    -0.201704   164.832382
	   68 D(2,4,11,3)     =      0.017261     0.000004     0.050256     0.067517
	   69 D(2,4,11,13)    =   -179.966135     0.000003     0.032354  -179.933781
	   70 D(2,9,1,3)      =     -0.019945     0.000006     0.085368     0.065423
	   71 D(2,9,1,14)     =   -179.978731    -0.000014    -0.158473  -180.137204
	   72 D(2,9,10,5)     =    164.998428    -0.000019    -0.195422   164.803006
	   73 D(2,9,10,6)     =    -14.913411    -0.000025    -0.303529   -15.216940
	   74 D(3,1,9,10)     =   -179.967461    -0.000000    -0.015555  -179.983016
	   75 D(3,11,4,17)    =    179.978848     0.000006     0.079349   180.058197
	   76 D(3,11,13,23)   =    179.956172    -0.000001    -0.012105   179.944067
	   77 D(4,2,9,10)     =    179.966149     0.000007     0.104064   180.070213
	   78 D(4,11,3,16)    =    180.000000     0.000005     0.054987   180.054987
	   79 D(4,11,13,23)   =     -0.060434     0.000000     0.005781    -0.054654
	   80 D(5,7,12,8)     =      0.011464    -0.000000    -0.004454     0.007010
	   81 D(5,7,12,22)    =    179.959670     0.000001     0.009849   179.969519
	   82 D(5,10,6,8)     =      0.047760    -0.000003    -0.043775     0.003985
	   83 D(5,10,6,19)    =   -179.935450    -0.000017    -0.214050  -180.149499
	   84 D(6,8,12,7)     =      0.002964     0.000001     0.010849     0.013813
	   85 D(6,8,12,22)    =   -179.945266    -0.000000    -0.003441  -179.948707
	   86 D(6,10,5,7)     =     -0.033879     0.000003     0.050304     0.016425
	   87 D(6,10,5,18)    =    179.963880    -0.000011    -0.126657   179.837224
	   88 D(7,5,10,9)     =   -179.945857    -0.000003    -0.057118  -180.002975
	   89 D(7,12,8,21)    =   -179.957939     0.000005     0.071557  -179.886382
	   90 D(8,6,10,9)     =    179.959705     0.000004     0.063697   180.023402
	   91 D(8,12,7,20)    =    179.969388     0.000004     0.045908   180.015296
	   92 D(9,1,3,11)     =      0.019955    -0.000008    -0.105909    -0.085954
	   93 D(9,1,3,16)     =   -179.998735    -0.000010    -0.123181  -180.121915
	   94 D(9,2,4,11)     =     -0.017270    -0.000006    -0.070652    -0.087922
	   95 D(9,2,4,17)     =   -179.979086    -0.000008    -0.099557  -180.078643
	   96 D(9,10,5,18)    =      0.051902    -0.000018    -0.234078    -0.182176
	   97 D(9,10,6,19)    =     -0.023504    -0.000010    -0.106578    -0.130082
	   98 D(10,5,7,12)    =      0.004245    -0.000002    -0.026421    -0.022176
	   99 D(10,5,7,20)    =   -179.950219    -0.000006    -0.080890  -180.031110
	  100 D(10,6,8,12)    =     -0.032539     0.000001     0.013489    -0.019050
	  101 D(10,6,8,21)    =    179.925140    -0.000004    -0.051801   179.873339
	  102 D(10,9,1,14)    =      0.073752    -0.000020    -0.259396    -0.185643
	  103 D(10,9,2,15)    =     -0.046992    -0.000012    -0.137239    -0.184231
	  104 D(11,3,1,14)    =    179.979432     0.000011     0.132004   180.111436
	  105 D(11,4,2,15)    =    179.995641     0.000013     0.164514   180.160155
	  106 D(12,7,5,18)    =   -179.993553     0.000012     0.145912  -179.847642
	  107 D(12,8,6,19)    =    179.950979     0.000014     0.179319   180.130298
	  108 D(13,11,3,16)   =     -0.016400     0.000006     0.072644     0.056245
	  109 D(13,11,4,17)   =     -0.004548     0.000005     0.061448     0.056900
	  110 D(14,1,3,16)    =     -0.039257     0.000010     0.114732     0.075475
	  111 D(15,2,4,17)    =      0.033826     0.000011     0.135609     0.169434
	  112 D(18,5,7,20)    =      0.051983     0.000008     0.091443     0.143425
	  113 D(19,6,8,21)    =     -0.091342     0.000009     0.114029     0.022687
	  114 D(20,7,12,22)   =     -0.082406     0.000005     0.060211    -0.022195
	  115 D(21,8,12,22)   =      0.093831     0.000005     0.057267     0.151099
	 ---------------------------------------------------------------------------
	Successfully symmetrized geometry.
	 Forces used to impose fixed constraints are not included.
	  Forces zeroed: 66 

  ==> Convergence Check <==

  Measures of convergence in internal coordinates in au.
  Criteria marked as inactive (o), active & met (*), and active & unmet ( ).
  --------------------------------------------------------------------------------------------- ~
   Step     Total Energy     Delta E     MAX Force     RMS Force      MAX Disp      RMS Disp    ~
  --------------------------------------------------------------------------------------------- ~
    Convergence Criteria    1.00e-06 *    3.00e-04 *             o    1.20e-03 *             o  ~
  --------------------------------------------------------------------------------------------- ~
      1    -554.09703942   -5.54e+02      1.54e-02      5.33e-03 o    3.05e-02      9.31e-03 o  ~
  ---------------------------------------------------------------------------------------------

	Writing optimization data to binary file.
	Structure for next step:
	Cartesian Geometry (in Angstrom)
	    C    -1.2847616989   0.7290064989  -0.5567145813
	    C    -0.2925226662   0.1098367233   1.5474945075
	    C    -2.3552777092   1.2989334555   0.1106947944
	    C    -1.3636158299   0.6779591550   2.2164625160
	    C     0.8120580968  -0.7433177376  -1.9265896406
	    C     2.0721887324  -0.7895395080   0.1175254193
	    C     1.8876710137  -1.3090973642  -2.5730650366
	    C     3.1220567114  -1.3541686922  -0.5718955473
	    C    -0.2382878302   0.1272773688   0.1505488442
	    C     0.8868562590  -0.4711609408  -0.5553998961
	    C    -2.3985505123   1.2752599740   1.4987351144
	    N     3.0024445753  -1.5963519010  -1.8854474207
	    O    -3.4572136942   1.8397060626   2.1205625840
	    H    -1.2772335583   0.7640130319  -1.6365415110
	    H     0.4942349602  -0.3485647773   2.1297226781
	    H    -3.1573461197   1.7629416142  -0.4477372425
	    H    -1.3936135526   0.6563512159   3.2984844456
	    H    -0.0771627971  -0.5214081594  -2.4953515964
	    H     2.1876134531  -0.6001808038   1.1729672473
	    H     1.8989980083  -1.5457069357  -3.6260318541
	    H     4.0635478979  -1.6226439968  -0.1182002795
	    H     3.7853046051  -2.0133941341  -2.3774538961
	    H    -3.3618359194   1.7530909451   3.0774915312
			--------------------------
			 OPTKING Finished Execution 
			--------------------------

    Structure for next step:
    Molecular point group: c1
    Full point group: C1

    Geometry (in Angstrom), charge = 1, multiplicity = 1:

    C           -1.285381448728     0.729267726629    -0.556592907854
    C           -0.293142416019     0.110097950994     1.547616180987
    C           -2.355897459016     1.299194683207     0.110816467827
    C           -1.364235579741     0.678220382702     2.216584189463
    C            0.811438346977    -0.743056509959    -1.926467967183
    C            2.071568982614    -0.789278280346     0.117647092786
    C            1.887051263876    -1.308836136564    -2.572943363129
    C            3.121436961577    -1.353907464568    -0.571773873843
    C           -0.238907580024     0.127538596451     0.150670517690
    C            0.886236509182    -0.470899713078    -0.555278222672
    C           -2.399170262145     1.275521201713     1.498856787898
    N            3.001824825476    -1.596090673277    -1.885325747279
    O           -3.457833443993     1.839967290250     2.120684257474
    H           -1.277853308083     0.764274259558    -1.636419837562
    H            0.493615210386    -0.348303549638     2.129844351565
    H           -3.157965869510     1.763202841918    -0.447615569026
    H           -1.394233302384     0.656612443565     3.298606119021
    H           -0.077782546947    -0.521146931757    -2.495229922998
    H            2.186993703272    -0.599919576122     1.173088920738
    H            1.898378258441    -1.545445707995    -3.625910180667
    H            4.062928148045    -1.622382769148    -0.118078606057
    H            3.784684855281    -2.013132906455    -2.377332222611
    H           -3.362455669258     1.753352172796     3.077613204664

gradient() will perform analytic gradient computation.

*** tstart() called on gpu-2-9.local
*** at Sun Nov 12 08:53:20 2017

    SCF Algorithm Type (re)set to DF.

*** tstart() called on gpu-2-9.local
*** at Sun Nov 12 08:53:20 2017

   => Loading Basis Set <=

    Name: AUG-CC-PVTZ
    Role: ORBITAL
    Keyword: BASIS
    atoms 1-11  entry C          line   221 file /cbio/jclab/home/chayas/anaconda/envs/py35/share/psi4/basis/aug-cc-pvtz.gbs 
    atoms 12    entry N          line   267 file /cbio/jclab/home/chayas/anaconda/envs/py35/share/psi4/basis/aug-cc-pvtz.gbs 
    atoms 13    entry O          line   313 file /cbio/jclab/home/chayas/anaconda/envs/py35/share/psi4/basis/aug-cc-pvtz.gbs 
    atoms 14-23 entry H          line    34 file /cbio/jclab/home/chayas/anaconda/envs/py35/share/psi4/basis/aug-cc-pvtz.gbs 


         ---------------------------------------------------------
                                   SCF
            by Justin Turney, Rob Parrish, and Andy Simmonett
                              RHF Reference
                        8 Threads,   4768 MiB Core
         ---------------------------------------------------------

  ==> Geometry <==

    Molecular point group: c1
    Full point group: C1

    Geometry (in Angstrom), charge = 1, multiplicity = 1:

       Center              X                  Y                   Z               Mass       
    ------------   -----------------  -----------------  -----------------  -----------------
           C         -1.285381448728     0.729267726629    -0.556592907854    12.000000000000
           C         -0.293142416019     0.110097950994     1.547616180987    12.000000000000
           C         -2.355897459016     1.299194683207     0.110816467827    12.000000000000
           C         -1.364235579741     0.678220382702     2.216584189463    12.000000000000
           C          0.811438346977    -0.743056509959    -1.926467967183    12.000000000000
           C          2.071568982614    -0.789278280346     0.117647092786    12.000000000000
           C          1.887051263876    -1.308836136564    -2.572943363129    12.000000000000
           C          3.121436961577    -1.353907464568    -0.571773873843    12.000000000000
           C         -0.238907580024     0.127538596451     0.150670517690    12.000000000000
           C          0.886236509182    -0.470899713078    -0.555278222672    12.000000000000
           C         -2.399170262145     1.275521201713     1.498856787898    12.000000000000
           N          3.001824825476    -1.596090673277    -1.885325747279    14.003074004780
           O         -3.457833443993     1.839967290250     2.120684257474    15.994914619560
           H         -1.277853308083     0.764274259558    -1.636419837562     1.007825032070
           H          0.493615210386    -0.348303549638     2.129844351565     1.007825032070
           H         -3.157965869510     1.763202841918    -0.447615569026     1.007825032070
           H         -1.394233302384     0.656612443565     3.298606119021     1.007825032070
           H         -0.077782546947    -0.521146931757    -2.495229922998     1.007825032070
           H          2.186993703272    -0.599919576122     1.173088920738     1.007825032070
           H          1.898378258441    -1.545445707995    -3.625910180667     1.007825032070
           H          4.062928148045    -1.622382769148    -0.118078606057     1.007825032070
           H          3.784684855281    -2.013132906455    -2.377332222611     1.007825032070
           H         -3.362455669258     1.753352172796     3.077613204664     1.007825032070

  Running in c1 symmetry.

  Rotational constants: A =      0.09650  B =      0.01334  C =      0.01177 [cm^-1]
  Rotational constants: A =   2892.90652  B =    399.87504  C =    352.81869 [MHz]
  Nuclear repulsion =  713.062727836877684

  Charge       = 1
  Multiplicity = 1
  Electrons    = 90
  Nalpha       = 45
  Nbeta        = 45

  ==> Algorithm <==

  SCF Algorithm Type is DF.
  DIIS enabled.
  MOM disabled.
  Fractional occupation disabled.
  Guess Type is READ.
  Energy threshold   = 1.00e-10
  Density threshold  = 1.00e-10
  Integral threshold = 0.00e+00

  ==> Primary Basis <==

  Basis Set: AUG-CC-PVTZ
    Blend: AUG-CC-PVTZ
    Number of shells: 272
    Number of basis function: 828
    Number of Cartesian functions: 965
    Spherical Harmonics?: true
    Max angular momentum: 3

   => Loading Basis Set <=

    Name: (AUG-CC-PVTZ AUX)
    Role: JKFIT
    Keyword: DF_BASIS_SCF
    atoms 1-11  entry C          line   161 file /cbio/jclab/home/chayas/anaconda/envs/py35/share/psi4/basis/aug-cc-pvtz-jkfit.gbs 
    atoms 12    entry N          line   223 file /cbio/jclab/home/chayas/anaconda/envs/py35/share/psi4/basis/aug-cc-pvtz-jkfit.gbs 
    atoms 13    entry O          line   285 file /cbio/jclab/home/chayas/anaconda/envs/py35/share/psi4/basis/aug-cc-pvtz-jkfit.gbs 
    atoms 14-23 entry H          line    69 file /cbio/jclab/home/chayas/anaconda/envs/py35/share/psi4/basis/aug-cc-pvtz-jkfit.gbs 

  Reading orbitals from file 180, no projection.

  ==> Pre-Iterations <==

   -------------------------------------------------------
    Irrep   Nso     Nmo     Nalpha   Nbeta   Ndocc  Nsocc
   -------------------------------------------------------
     A        828     828       0       0       0       0
   -------------------------------------------------------
    Total     828     828      45      45      45       0
   -------------------------------------------------------

  ==> Integral Setup <==

  ==> DFJK: Density-Fitted J/K Matrices <==

    J tasked:                  Yes
    K tasked:                  Yes
    wK tasked:                  No
    OpenMP threads:              8
    Integrals threads:           8
    Memory (MB):              3576
    Algorithm:                Disk
    Integral Cache:           NONE
    Schwarz Cutoff:          1E-12
    Fitting Condition:       1E-12

   => Auxiliary Basis Set <=

  Basis Set: (AUG-CC-PVTZ AUX)
    Blend: AUG-CC-PVTZ-JKFIT
    Number of shells: 530
    Number of basis function: 1812
    Number of Cartesian functions: 2253
    Spherical Harmonics?: true
    Max angular momentum: 4

  Minimum eigenvalue in the overlap matrix is 4.9699785520E-07.
  Using Symmetric Orthogonalization.

  SCF Guess: Orbitals guess was supplied from a previous computation.

  ==> Iterations <==

                           Total Energy        Delta E     RMS |[F,P]|

   @DF-RHF iter   0:  -551.82508962535849   -5.51825e+02   5.07089e-04 
   @DF-RHF iter   1:  -551.67904820306035    1.46041e-01   1.33169e-04 
   @DF-RHF iter   2:  -551.67975580482175   -7.07602e-04   1.10326e-04 DIIS
   @DF-RHF iter   3:  -551.68035598360200   -6.00179e-04   1.53119e-05 DIIS
   @DF-RHF iter   4:  -551.68036797939919   -1.19958e-05   4.95307e-06 DIIS
   @DF-RHF iter   5:  -551.68037048807082   -2.50867e-06   1.28719e-06 DIIS
   @DF-RHF iter   6:  -551.68037099690935   -5.08839e-07   9.08210e-07 DIIS
   @DF-RHF iter   7:  -551.68037120053600   -2.03627e-07   4.09548e-07 DIIS
   @DF-RHF iter   8:  -551.68037126962520   -6.90892e-08   1.56259e-07 DIIS
   @DF-RHF iter   9:  -551.68037127711523   -7.49003e-09   5.91966e-08 DIIS
   @DF-RHF iter  10:  -551.68037127768548   -5.70253e-10   2.35756e-08 DIIS
   @DF-RHF iter  11:  -551.68037127774801   -6.25278e-11   5.23499e-09 DIIS
   @DF-RHF iter  12:  -551.68037127777643   -2.84217e-11   2.45811e-09 DIIS
   @DF-RHF iter  13:  -551.68037127777529    1.13687e-12   1.16897e-09 DIIS
   @DF-RHF iter  14:  -551.68037127778086   -5.57066e-12   5.50885e-10 DIIS
   @DF-RHF iter  15:  -551.68037127776836    1.25056e-11   2.22449e-10 DIIS
   @DF-RHF iter  16:  -551.68037127776950   -1.13687e-12   7.98760e-11 DIIS

  ==> Post-Iterations <==

    Orbital Energies (a.u.)
    -----------------------

    Doubly Occupied:                                                      

       1A    -20.708504     2A    -15.826390     3A    -11.479403  
       4A    -11.479155     5A    -11.449688     6A    -11.437198  
       7A    -11.409858     8A    -11.409511     9A    -11.382181  
      10A    -11.379652    11A    -11.374753    12A    -11.357811  
      13A    -11.352047    14A     -1.528314    15A     -1.506631  
      16A     -1.317870    17A     -1.266514    18A     -1.236280  
      19A     -1.157212    20A     -1.155791    21A     -1.064381  
      22A     -1.055934    23A     -0.979531    24A     -0.960644  
      25A     -0.953794    26A     -0.873203    27A     -0.860856  
      28A     -0.854748    29A     -0.821926    30A     -0.799262  
      31A     -0.779669    32A     -0.772225    33A     -0.760481  
      34A     -0.735510    35A     -0.719987    36A     -0.711285  
      37A     -0.703713    38A     -0.686186    39A     -0.659531  
      40A     -0.643400    41A     -0.621296    42A     -0.569331  
      43A     -0.537938    44A     -0.474083    45A     -0.437497  

    Virtual:                                                              

      46A     -0.107101    47A     -0.082785    48A     -0.062399  
      49A     -0.061019    50A     -0.059078    51A     -0.046226  
      52A     -0.044201    53A     -0.039564    54A     -0.031519  
      55A     -0.025934    56A     -0.024998    57A     -0.021712  
      58A     -0.017915    59A     -0.007679    60A     -0.005421  
      61A     -0.001202    62A      0.005324    63A      0.006335  
      64A      0.009218    65A      0.017490    66A      0.019461  
      67A      0.021386    68A      0.024981    69A      0.026067  
      70A      0.030441    71A      0.032553    72A      0.034676  
      73A      0.036709    74A      0.040161    75A      0.048830  
      76A      0.049836    77A      0.056662    78A      0.059927  
      79A      0.063369    80A      0.065675    81A      0.070574  
      82A      0.073810    83A      0.076872    84A      0.079362  
      85A      0.085061    86A      0.086348    87A      0.087946  
      88A      0.096679    89A      0.101348    90A      0.105859  
      91A      0.108241    92A      0.114337    93A      0.120338  
      94A      0.126453    95A      0.130341    96A      0.133978  
      97A      0.135267    98A      0.137606    99A      0.142926  
     100A      0.146490   101A      0.150712   102A      0.155547  
     103A      0.159559   104A      0.165016   105A      0.165800  
     106A      0.170275   107A      0.171435   108A      0.174119  
     109A      0.178916   110A      0.184777   111A      0.188598  
     112A      0.190067   113A      0.196622   114A      0.198312  
     115A      0.207430   116A      0.210190   117A      0.211695  
     118A      0.217887   119A      0.221142   120A      0.224734  
     121A      0.225992   122A      0.228698   123A      0.230938  
     124A      0.234638   125A      0.236727   126A      0.243236  
     127A      0.245551   128A      0.249872   129A      0.253968  
     130A      0.255780   131A      0.265712   132A      0.271511  
     133A      0.274975   134A      0.282065   135A      0.283750  
     136A      0.286052   137A      0.290631   138A      0.297008  
     139A      0.304242   140A      0.304619   141A      0.306371  
     142A      0.310669   143A      0.314720   144A      0.319639  
     145A      0.325665   146A      0.328305   147A      0.330747  
     148A      0.335671   149A      0.336857   150A      0.338085  
     151A      0.340514   152A      0.345217   153A      0.350240  
     154A      0.353825   155A      0.355096   156A      0.359155  
     157A      0.365305   158A      0.366958   159A      0.369592  
     160A      0.374801   161A      0.379284   162A      0.383114  
     163A      0.387209   164A      0.389748   165A      0.392028  
     166A      0.393345   167A      0.394827   168A      0.399411  
     169A      0.405011   170A      0.408531   171A      0.411651  
     172A      0.416429   173A      0.419462   174A      0.421760  
     175A      0.431491   176A      0.432136   177A      0.436933  
     178A      0.439226   179A      0.446429   180A      0.448570  
     181A      0.451204   182A      0.458034   183A      0.462632  
     184A      0.465806   185A      0.471203   186A      0.481822  
     187A      0.494038   188A      0.496898   189A      0.502698  
     190A      0.507670   191A      0.510231   192A      0.514185  
     193A      0.525136   194A      0.533811   195A      0.538256  
     196A      0.538962   197A      0.545266   198A      0.550798  
     199A      0.561199   200A      0.565980   201A      0.569992  
     202A      0.576534   203A      0.576801   204A      0.584805  
     205A      0.587631   206A      0.590011   207A      0.594341  
     208A      0.596357   209A      0.607004   210A      0.616284  
     211A      0.620083   212A      0.626851   213A      0.632137  
     214A      0.637410   215A      0.642385   216A      0.644021  
     217A      0.647391   218A      0.655100   219A      0.659968  
     220A      0.669487   221A      0.677070   222A      0.681234  
     223A      0.686483   224A      0.700078   225A      0.703496  
     226A      0.707586   227A      0.713219   228A      0.718456  
     229A      0.723006   230A      0.723818   231A      0.734483  
     232A      0.735715   233A      0.737439   234A      0.743192  
     235A      0.746166   236A      0.749517   237A      0.759453  
     238A      0.762027   239A      0.766944   240A      0.773368  
     241A      0.776274   242A      0.779485   243A      0.783309  
     244A      0.786842   245A      0.789295   246A      0.796995  
     247A      0.800018   248A      0.805174   249A      0.805675  
     250A      0.808369   251A      0.813116   252A      0.815300  
[...]
	 B(4,11,13)       =         2.156306	     123.547239
	 B(5,7,12)        =         2.087881	     119.626743
	 B(5,7,20)        =         2.154294	     123.431931
	 B(5,10,6)        =         2.028174	     116.205824
	 B(5,10,9)        =         2.127119	     121.874944
	 B(6,8,12)        =         2.087708	     119.616831
	 B(6,8,21)        =         2.154457	     123.441285
	 B(6,10,9)        =         2.127790	     121.913412
	 B(7,5,10)        =         2.115662	     121.218514
	 B(7,5,18)        =         2.052362	     117.591678
	 B(7,12,8)        =         2.131086	     122.102209
	 B(7,12,22)       =         2.076009	     118.946541
	 B(8,6,10)        =         2.115838	     121.228573
	 B(8,6,19)        =         2.052198	     117.582269
	 B(8,12,22)       =         2.076089	     118.951152
	 B(9,1,14)        =         2.109145	     120.845085
	 B(9,2,15)        =         2.109425	     120.861144
	 B(10,5,18)       =         2.114801	     121.169174
	 B(10,6,19)       =         2.114845	     121.171713
	 B(11,3,16)       =         2.073775	     118.818532
	 B(11,4,17)       =         2.095223	     120.047441
	 B(11,13,23)      =         1.931022	     110.639430
	 B(12,7,20)       =         2.040993	     116.940293
	 B(12,8,21)       =         2.040977	     116.939386
	 D(1,3,11,4)      =         0.002375	       0.136091
	 D(1,3,11,13)     =        -3.137268	    -179.752235
	 D(1,9,2,4)       =        -0.001917	      -0.109863
	 D(1,9,2,15)      =         3.098132	     177.509911
	 D(1,9,10,5)      =        -0.263954	     -15.123426
	 D(1,9,10,6)      =         2.861738	     163.965488
	 D(2,4,11,3)      =         0.006831	       0.391400
	 D(2,4,11,13)     =        -3.136848	    -179.728136
	 D(2,9,1,3)       =         0.011254	       0.644805
	 D(2,9,1,14)      =         3.110404	     178.213029
	 D(2,9,10,5)      =         2.858254	     163.765874
	 D(2,9,10,6)      =        -0.299240	     -17.145212
	 D(3,1,9,10)      =         3.133995	     179.564674
	 D(3,11,4,17)     =        -3.126782	    -179.151407
	 D(3,11,13,23)    =        -3.138146	    -179.802515
	 D(4,2,9,10)      =        -3.124680	    -179.030991
	 D(4,11,3,16)     =        -3.132341	    -179.469944
	 D(4,11,13,23)    =         0.005480	       0.314001
	 D(5,7,12,8)      =        -0.001380	      -0.079055
	 D(5,7,12,22)     =        -3.140965	    -179.964021
	 D(5,10,6,8)      =        -0.007257	      -0.415768
	 D(5,10,6,19)     =         3.107175	     178.028003
	 D(6,8,12,7)      =         0.000855	       0.048986
	 D(6,8,12,22)     =         3.140440	     179.933948
	 D(6,10,5,7)      =         0.006730	       0.385577
	 D(6,10,5,18)     =         3.118787	     178.693324
	 D(7,5,10,9)      =         3.133278	     179.523608
	 D(7,12,8,21)     =        -3.131048	    -179.395842
	 D(8,6,10,9)      =        -3.133799	    -179.553439
	 D(8,12,7,20)     =        -3.136742	    -179.722097
	 D(9,1,3,11)      =        -0.011556	      -0.662138
	 D(9,1,3,16)      =         3.122999	     178.934688
	 D(9,2,4,11)      =        -0.007017	      -0.402039
	 D(9,2,4,17)      =         3.126609	     179.141484
	 D(9,10,5,18)     =        -0.037850	      -2.168645
	 D(9,10,6,19)     =        -0.019367	      -1.109668
	 D(10,5,7,12)     =        -0.002626	      -0.150450
	 D(10,5,7,20)     =         3.132312	     179.468238
	 D(10,6,8,12)     =         0.003683	       0.211024
	 D(10,6,8,21)     =         3.134924	     179.617905
	 D(10,9,1,14)     =        -0.050040	      -2.867102
	 D(10,9,2,15)     =        -0.024630	      -1.411216
	 D(11,3,1,14)     =        -3.111888	    -178.298050
	 D(11,4,2,15)     =        -3.108211	    -178.087388
	 D(12,7,5,18)     =        -3.115704	    -178.516694
	 D(12,8,6,19)     =        -3.111690	    -178.286710
	 D(13,11,3,16)    =         0.011200	       0.641730
	 D(13,11,4,17)    =         0.012724	       0.729056
	 D(14,1,3,16)     =         0.022668	       1.298776
	 D(15,2,4,17)     =         0.025414	       1.456135
	 D(18,5,7,20)     =         0.019233	       1.101993
	 D(19,6,8,21)     =         0.019551	       1.120171
	 D(20,7,12,22)    =         0.006858	       0.392937
	 D(21,8,12,22)    =         0.008537	       0.489119

	Current energy   :      -554.1020081090

	Energy change for the previous step:
		Projected    :        -0.0000010070
		Actual       :        -0.0000001379

	Performing BFGS update.
	Previous computed or guess Hessian on step 1.
	Steps to be used in Hessian update: 5 4
	Adding user-defined constraint: Fragment 1; Coordinate 66:
		Value =    -0.263954; Fixed value    =    -0.261800
		Force =     0.001346; Force constant =     0.625000
	Removing off-diagonal coupling between coordinate 66 and others.
	Taking RFO optimization step.
	Going to follow RFO solution 1.
	Using RFO vector 1.
	Norm of target step-size    0.00175
	Projected energy change by RFO approximation:         0.0000000106

	Back-transformation to cartesian coordinates...
	Successfully converged to displaced geometry.

	--- Internal Coordinate Step in ANG or DEG, aJ/ANG or AJ/DEG ---
	 ---------------------------------------------------------------------------
	   Coordinate                Previous        Force       Change         New 
	   ----------                --------       ------       ------       ------
	    1 R(1,3)          =      1.376432     0.000040     0.000030     1.376463
	    2 R(1,9)          =      1.401196     0.000357     0.000031     1.401228
	    3 R(1,14)         =      1.078356    -0.000167    -0.000028     1.078329
	    4 R(2,4)          =      1.379058     0.000174     0.000018     1.379076
	    5 R(2,9)          =      1.399242    -0.000063    -0.000004     1.399239
	    6 R(2,15)         =      1.078454     0.000087     0.000022     1.078476
	    7 R(3,11)         =      1.393343     0.000082    -0.000003     1.393340
	    8 R(3,16)         =      1.078570     0.000054     0.000007     1.078577
	    9 R(4,11)         =      1.393114    -0.000096    -0.000007     1.393107
	   10 R(4,17)         =      1.080309     0.000022     0.000007     1.080316
	   11 R(5,7)          =      1.370767     0.000200     0.000027     1.370794
	   12 R(5,10)         =      1.403542     0.000198     0.000029     1.403571
	   13 R(5,18)         =      1.076468    -0.000124    -0.000021     1.076447
	   14 R(6,8)          =      1.370712     0.000171     0.000023     1.370735
	   15 R(6,10)         =      1.403543    -0.000046    -0.000010     1.403533
	   16 R(6,19)         =      1.076519     0.000124     0.000026     1.076545
	   17 R(7,12)         =      1.343308    -0.000116    -0.000005     1.343303
	   18 R(7,20)         =      1.077298     0.000029     0.000005     1.077302
	   19 R(8,12)         =      1.343406    -0.000076    -0.000006     1.343400
	   20 R(8,21)         =      1.077281     0.000028     0.000005     1.077286
	   21 R(9,10)         =      1.444669     0.000554     0.000094     1.444762
	   22 R(11,13)        =      1.341699     0.000220     0.000027     1.341726
	   23 R(12,22)        =      1.011416     0.000027     0.000005     1.011421
	   24 R(13,23)        =      0.963972     0.000032     0.000002     0.963974
	   25 B(1,3,11)       =    120.066007     0.000000    -0.000201   120.065806
	   26 B(1,3,16)       =    121.114262     0.000001     0.001474   121.115736
	   27 B(1,9,2)        =    118.075571    -0.000000    -0.002632   118.072939
	   28 B(1,9,10)       =    121.013407     0.000005     0.016380   121.029787
	   29 B(2,4,11)       =    120.059108    -0.000001    -0.000939   120.058169
	   30 B(2,4,17)       =    119.891875     0.000000     0.001622   119.893497
	   31 B(2,9,10)       =    120.902050    -0.000005    -0.013577   120.888472
	   32 B(3,1,9)        =    121.133548    -0.000001     0.000423   121.133971
	   33 B(3,1,14)       =    117.978422     0.000001    -0.003746   117.974676
	   34 B(3,11,4)       =    119.591699     0.000001     0.000755   119.592454
	   35 B(3,11,13)      =    116.860961    -0.000001    -0.000987   116.859974
	   36 B(4,2,9)        =    121.069681     0.000001     0.002679   121.072361
	   37 B(4,2,15)       =    118.027991     0.000001     0.001199   118.029190
	   38 B(4,11,13)      =    123.547239     0.000000     0.000238   123.547477
	   39 B(5,7,12)       =    119.626743     0.000000     0.000432   119.627175
	   40 B(5,7,20)       =    123.431931     0.000000     0.003128   123.435059
	   41 B(5,10,6)       =    116.205824    -0.000001    -0.001978   116.203846
	   42 B(5,10,9)       =    121.874944     0.000005     0.017185   121.892129
	   43 B(6,8,12)       =    119.616831     0.000001     0.000788   119.617619
	   44 B(6,8,21)       =    123.441285     0.000000     0.002823   123.444108
	   45 B(6,10,9)       =    121.913412    -0.000005    -0.014944   121.898469
	   46 B(7,5,10)       =    121.218514    -0.000000     0.000413   121.218927
	   47 B(7,5,18)       =    117.591678     0.000000    -0.001653   117.590025
	   48 B(7,12,8)       =    122.102209    -0.000000    -0.000831   122.101378
	   49 B(7,12,22)      =    118.946541     0.000000     0.000588   118.947129
	   50 B(8,6,10)       =    121.228573     0.000000     0.001240   121.229812
	   51 B(8,6,19)       =    117.582269     0.000001     0.003610   117.585879
	   52 B(8,12,22)      =    118.951152     0.000000     0.000252   118.951403
	   53 B(9,1,14)       =    120.845085    -0.000000     0.003162   120.848246
	   54 B(9,2,15)       =    120.861144    -0.000002    -0.003510   120.857634
	   55 B(10,5,18)      =    121.169174     0.000000     0.000601   121.169775
	   56 B(10,6,19)      =    121.171713    -0.000001    -0.004972   121.166740
	   57 B(11,3,16)      =    118.818532    -0.000002    -0.001390   118.817142
	   58 B(11,4,17)      =    120.047441     0.000000    -0.000750   120.046691
	   59 B(11,13,23)     =    110.639430     0.000000    -0.000869   110.638561
	   60 B(12,7,20)      =    116.940293    -0.000001    -0.003635   116.936658
	   61 B(12,8,21)      =    116.939386    -0.000001    -0.003491   116.935895
	   62 D(1,3,11,4)     =      0.136091     0.000000     0.000829     0.136920
	   63 D(1,3,11,13)    =   -179.752235    -0.000000    -0.002881  -179.755116
	   64 D(1,9,2,4)      =     -0.109863     0.000000     0.000004    -0.109859
	   65 D(1,9,2,15)     =    177.509911     0.000000     0.010678   177.520589
	   66 D(1,9,10,5)     =    -15.123426    -0.000000     0.008857   -15.114569
	   67 D(1,9,10,6)     =    163.965488    -0.000000     0.029650   163.995138
	   68 D(2,4,11,3)     =      0.391400    -0.000000    -0.006137     0.385263
	   69 D(2,4,11,13)    =   -179.728136    -0.000000    -0.002167  -179.730303
	   70 D(2,9,1,3)      =      0.644805    -0.000000    -0.005380     0.639425
	   71 D(2,9,1,14)     =    178.213029    -0.000000    -0.010028   178.203002
	   72 D(2,9,10,5)     =    163.765874    -0.000000     0.019469   163.785342
	   73 D(2,9,10,6)     =    -17.145212     0.000000     0.040261   -17.104951
	   74 D(3,1,9,10)     =    179.564674     0.000000     0.004814   179.569487
	   75 D(3,11,4,17)    =   -179.151407    -0.000000     0.003451  -179.147957
	   76 D(3,11,13,23)   =   -179.802515    -0.000000    -0.002521  -179.805036
	   77 D(4,2,9,10)     =   -179.030991    -0.000000    -0.010513  -179.041504
	   78 D(4,11,3,16)    =   -179.469944     0.000000     0.019553  -179.450391
	   79 D(4,11,13,23)   =      0.314001    -0.000000    -0.006393     0.307608
	   80 D(5,7,12,8)     =     -0.079055     0.000000     0.000946    -0.078109
	   81 D(5,7,12,22)    =   -179.964021    -0.000000    -0.004303  -179.968324
	   82 D(5,10,6,8)     =     -0.415768     0.000000     0.015915    -0.399853
	   83 D(5,10,6,19)    =    178.028003     0.000000     0.010530   178.038533
	   84 D(6,8,12,7)     =      0.048986     0.000000     0.011060     0.060046
	   85 D(6,8,12,22)    =    179.933948     0.000000     0.016309   179.950257
	   86 D(6,10,5,7)     =      0.385577    -0.000000    -0.003877     0.381700
	   87 D(6,10,5,18)    =    178.693324    -0.000000    -0.029905   178.663418
	   88 D(7,5,10,9)     =    179.523608     0.000000     0.015672   179.539280
	   89 D(7,12,8,21)    =   -179.395842    -0.000000    -0.002462  -179.398304
	   90 D(8,6,10,9)     =   -179.553439    -0.000000    -0.003936  -179.557375
	   91 D(8,12,7,20)    =   -179.722097     0.000000     0.013801  -179.708295
	   92 D(9,1,3,11)     =     -0.662138     0.000000     0.004973    -0.657165
	   93 D(9,1,3,16)     =    178.934688    -0.000000    -0.014200   178.920488
	   94 D(9,2,4,11)     =     -0.402039    -0.000000     0.005715    -0.396324
	   95 D(9,2,4,17)     =    179.141484    -0.000000    -0.003869   179.137614
	   96 D(9,10,5,18)    =     -2.168645    -0.000000    -0.010356    -2.179001
	   97 D(9,10,6,19)    =     -1.109668    -0.000000    -0.009321    -1.118989
	   98 D(10,5,7,12)    =     -0.150450    -0.000000    -0.004414    -0.154864
	   99 D(10,5,7,20)    =    179.468238    -0.000000    -0.018174   179.450064
	  100 D(10,6,8,12)    =      0.211024    -0.000000    -0.019758     0.191266
	  101 D(10,6,8,21)    =    179.617905    -0.000000    -0.005349   179.612556
	  102 D(10,9,1,14)    =     -2.867102     0.000000     0.000166    -2.866936
	  103 D(10,9,2,15)    =     -1.411216    -0.000000     0.000160    -1.411056
	  104 D(11,3,1,14)    =   -178.298050     0.000000     0.009330  -178.288720
	  105 D(11,4,2,15)    =   -178.087388    -0.000000    -0.004554  -178.091943
	  106 D(12,7,5,18)    =   -178.516694     0.000000     0.020678  -178.496016
	  107 D(12,8,6,19)    =   -178.286710    -0.000000    -0.014431  -178.301141
	  108 D(13,11,3,16)   =      0.641730     0.000000     0.015842     0.657572
	  109 D(13,11,4,17)   =      0.729056     0.000000     0.007421     0.736478
	  110 D(14,1,3,16)    =      1.298776    -0.000000    -0.009843     1.288933
	  111 D(15,2,4,17)    =      1.456135    -0.000000    -0.014139     1.441996
	  112 D(18,5,7,20)    =      1.101993     0.000000     0.006918     1.108912
	  113 D(19,6,8,21)    =      1.120171     0.000000    -0.000022     1.120149
	  114 D(20,7,12,22)   =      0.392937     0.000000     0.008553     0.401489
	  115 D(21,8,12,22)   =      0.489119     0.000000     0.002787     0.491907
	 ---------------------------------------------------------------------------
	Successfully symmetrized geometry.
	 Forces used to impose fixed constraints are not included.
	  Forces zeroed: 66 

  ==> Convergence Check <==

  Measures of convergence in internal coordinates in au.
  Criteria marked as inactive (o), active & met (*), and active & unmet ( ).
  ---------------------------------------------------------------------------------------------
   Step     Total Energy     Delta E     MAX Force     RMS Force      MAX Disp      RMS Disp   
  ---------------------------------------------------------------------------------------------
    Convergence Criteria    1.00e-06 *    3.00e-04 *             o    1.20e-03 *             o
  ---------------------------------------------------------------------------------------------
      6    -554.10200811   -1.38e-07 *    6.97e-05 *    1.65e-05 o    7.03e-04 *    1.63e-04 o  ~
  ---------------------------------------------------------------------------------------------


  **** Optimization is complete! (in 6 steps) ****

  ==> Optimization Summary <==

  Measures of convergence in internal coordinates in au.
  --------------------------------------------------------------------------------------------------------------- ~
   Step         Total Energy             Delta E       MAX Force       RMS Force        MAX Disp        RMS Disp  ~
  --------------------------------------------------------------------------------------------------------------- ~
      1    -554.097039416715   -554.097039416715      0.01543813      0.00532878      0.03052940      0.00931201  ~
      2    -554.100852462679     -0.003813045964      0.00724745      0.00210100      0.03013994      0.00931206  ~
      3    -554.101921850363     -0.001069387684      0.00169217      0.00042909      0.02335132      0.00636862  ~
      4    -554.102003763022     -0.000081912659      0.00072952      0.00012191      0.00403322      0.00122273  ~
      5    -554.102007971051     -0.000004208030      0.00015052      0.00003600      0.00127103      0.00033028  ~
      6    -554.102008108969     -0.000000137918      0.00006974      0.00001661      0.00070269      0.00016274  ~
  --------------------------------------------------------------------------------------------------------------- ~

	Writing optimization data to binary file.
	Final energy is   -554.1020081089692
	Final (previous) structure:
	Cartesian Geometry (in Angstrom)
	    C    -1.2854671878   0.7405474424  -0.5448496908
	    C    -0.2991732991   0.1104706417   1.5520356364
	    C    -2.3479503798   1.3090916970   0.1203213143
	    C    -1.3662540026   0.6686984809   2.2239891580
	    C     0.8162849294  -0.7594949509  -1.9185093011
	    C     2.0808906480  -0.7831332128   0.1013687587
	    C     1.8805866632  -1.3241188915  -2.5723171279
	    C     3.1278490436  -1.3479781064  -0.5795714062
	    C    -0.2334440655   0.1343710806   0.1545422010
	    C     0.8758849152  -0.4697962410  -0.5464845303
	    C    -2.3981180021   1.2766793478   1.5123838676
	    N     3.0047246866  -1.6045288517  -1.8924925783
	    O    -3.4650946713   1.8454492149   2.0939482714
	    H    -1.2668591134   0.8094165231  -1.6208438016
	    H     0.4657239207  -0.3792831277   2.1335309572
	    H    -3.1491877925   1.7905794793  -0.4177322776
	    H    -1.4043622229   0.6272681469   3.3028310245
	    H    -0.0766140810  -0.5710094606  -2.4894625892
	    H     2.2249348704  -0.5656507707   1.1458043771
	    H     1.8707721950  -1.5687515051  -3.6214255554
	    H     4.0696560513  -1.5972509705  -0.1197920651
	    H     3.7839002825  -2.0205281766  -2.3852324763
	    H    -3.4068684187   1.7750002272   3.0535773720
	Saving final (previous) structure.
			--------------------------
			 OPTKING Finished Execution 
			--------------------------

    Final optimized geometry and variables:
    Molecular point group: c1
    Full point group: C1

    Geometry (in Angstrom), charge = 1, multiplicity = 1:

    C           -1.285467187821     0.740547442446    -0.544849690850
    C           -0.299173299147     0.110470641689     1.552035636417
    C           -2.347950379773     1.309091697034     0.120321314310
    C           -1.366254002645     0.668698480935     2.223989158015
    C            0.816284929419    -0.759494950917    -1.918509301078
    C            2.080890647996    -0.783133212773     0.101368758663
    C            1.880586663237    -1.324118891498    -2.572317127887
    C            3.127849043620    -1.347978106370    -0.579571406221
    C           -0.233444065506     0.134371080640     0.154542201016
    C            0.875884915214    -0.469796241019    -0.546484530252
    C           -2.398118002117     1.276679347810     1.512383867586
    N            3.004724686648    -1.604528851655    -1.892492578320
    O           -3.465094671293     1.845449214869     2.093948271353
    H           -1.266859113398     0.809416523073    -1.620843801616
    H            0.465723920741    -0.379283127725     2.133530957165
    H           -3.149187792541     1.790579479256    -0.417732277595
    H           -1.404362222854     0.627268146879     3.302831024524
    H           -0.076614080998    -0.571009460572    -2.489462589186
    H            2.224934870438    -0.565650770710     1.145804377067
    H            1.870772195008    -1.568751505053    -3.621425555355
    H            4.069656051342    -1.597250970543    -0.119792065127
    H            3.783900282538    -2.020528176647    -2.385232476277
    H           -3.406868418657     1.775000227193     3.053577371967

	Cleaning optimization helper files.

*** Psi4 exiting successfully. Buy a developer a beer!
