
    -----------------------------------------------------------------------
          Psi4: An Open-Source Ab Initio Electronic Structure Package
                               Psi4 1.1 release

                         Git: Rev {HEAD} add49b9 


    R. M. Parrish, L. A. Burns, D. G. A. Smith, A. C. Simmonett,
    A. E. DePrince III, E. G. Hohenstein, U. Bozkaya, A. Yu. Sokolov,
    R. Di Remigio, R. M. Richard, J. F. Gonthier, A. M. James,
    H. R. McAlexander, A. Kumar, M. Saitow, X. Wang, B. P. Pritchard,
    P. Verma, H. F. Schaefer III, K. Patkowski, R. A. King, E. F. Valeev,
    F. A. Evangelista, J. M. Turney, T. D. Crawford, and C. D. Sherrill,
    J. Chem. Theory Comput. in press (2017).
    (doi: 10.1021/acs.jctc.7b00174)

    -----------------------------------------------------------------------


    Psi4 started on: Sunday, 12 November 2017 04:37PM

    Process ID:  15341
    PSIDATADIR: /cbio/jclab/home/chayas/anaconda/envs/py35/share/psi4
    Memory:     500.0 MiB
    Threads:    8
    
  ==> Input File <==

--------------------------------------------------------------------------

memory 5 Gb

molecule phepyrOH_zwitterion {
  symmetry C1
  0 1 
  C      1.885   -1.036   -0.112
  C      2.878   -1.652   2.002
  C      0.807   -0.463   0.561
  C      1.800   -1.079   2.676
  C      3.997   -3.567   -0.460
  C      5.161   -1.459   -0.393
  C      5.084   -4.111   -1.128
  C      6.219   -2.056   -1.062
  C      2.921   -1.631   0.608
  C      4.040   -2.226   -0.090
  C      0.764   -0.484   1.955
  N      6.151   -3.349   -1.407
  O      -0.227   0.042   2.574
  H      1.904   -1.011   -1.199
  H      3.678   -2.112   2.577
  H      0.011   -0.006   -0.025
  H      1.791   -1.108   3.764
  H      3.135   -4.189   -0.237
  H      5.222   -0.410   -0.116
  H      5.138   -5.140   -1.454
  H      7.127   -1.538   -1.338
  H      6.940   -3.769   -1.898
  units Angstrom
}

dih_string = "1 9 10 5 270"
set optking fixed_dihedral = $dih_string

optimize('MP2/aug-cc-PVTZ')
--------------------------------------------------------------------------

  Memory set to   4.657 GiB by Python driver.
gradient() will perform analytic gradient computation.

*** tstart() called on gpu-1-14.local
*** at Sun Nov 12 16:37:01 2017

    SCF Algorithm Type (re)set to DF.

*** tstart() called on gpu-1-14.local
*** at Sun Nov 12 16:37:01 2017

   => Loading Basis Set <=

    Name: AUG-CC-PVTZ
    Role: ORBITAL
    Keyword: BASIS
    atoms 1-11  entry C          line   221 file /cbio/jclab/home/chayas/anaconda/envs/py35/share/psi4/basis/aug-cc-pvtz.gbs 
    atoms 12    entry N          line   267 file /cbio/jclab/home/chayas/anaconda/envs/py35/share/psi4/basis/aug-cc-pvtz.gbs 
    atoms 13    entry O          line   313 file /cbio/jclab/home/chayas/anaconda/envs/py35/share/psi4/basis/aug-cc-pvtz.gbs 
    atoms 14-22 entry H          line    34 file /cbio/jclab/home/chayas/anaconda/envs/py35/share/psi4/basis/aug-cc-pvtz.gbs 


         ---------------------------------------------------------
                                   SCF
            by Justin Turney, Rob Parrish, and Andy Simmonett
                              RHF Reference
                        8 Threads,   4768 MiB Core
         ---------------------------------------------------------

  ==> Geometry <==

    Molecular point group: c1
    Full point group: C1

    Geometry (in Angstrom), charge = 0, multiplicity = 1:

       Center              X                  Y                   Z               Mass       
    ------------   -----------------  -----------------  -----------------  -----------------
           C         -1.297314629002     0.734206384654    -0.557594615714    12.000000000000
           C         -0.304314629002     0.118206384654     1.556405384286    12.000000000000
           C         -2.375314629002     1.307206384654     0.115405384286    12.000000000000
           C         -1.382314629002     0.691206384654     2.230405384286    12.000000000000
           C          0.814685370998    -1.796793615346    -0.905594615714    12.000000000000
           C          1.978685370998     0.311206384654    -0.838594615714    12.000000000000
           C          1.901685370998    -2.340793615346    -1.573594615714    12.000000000000
           C          3.036685370998    -0.285793615346    -1.507594615714    12.000000000000
           C         -0.261314629002     0.139206384654     0.162405384286    12.000000000000
           C          0.857685370998    -0.455793615346    -0.535594615714    12.000000000000
           C         -2.418314629002     1.286206384654     1.509405384286    12.000000000000
           N          2.968685370998    -1.578793615346    -1.852594615714    14.003074004780
           O         -3.409314629002     1.812206384654     2.128405384286    15.994914619560
           H         -1.278314629002     0.759206384654    -1.644594615714     1.007825032070
           H          0.495685370998    -0.341793615346     2.131405384286     1.007825032070
           H         -3.171314629002     1.764206384654    -0.470594615714     1.007825032070
           H         -1.391314629002     0.662206384654     3.318405384286     1.007825032070
           H         -0.047314629002    -2.418793615346    -0.682594615714     1.007825032070
           H          2.039685370998     1.360206384654    -0.561594615714     1.007825032070
           H          1.955685370998    -3.369793615346    -1.899594615714     1.007825032070
           H          3.944685370998     0.232206384654    -1.783594615714     1.007825032070
           H          3.757685370998    -1.998793615346    -2.343594615714     1.007825032070

  Running in c1 symmetry.

  Rotational constants: A =      0.09649  B =      0.01295  C =      0.01292 [cm^-1]
  Rotational constants: A =   2892.62934  B =    388.27720  C =    387.37980 [MHz]
  Nuclear repulsion =  700.078474072609652

  Charge       = 0
  Multiplicity = 1
  Electrons    = 90
  Nalpha       = 45
  Nbeta        = 45

  ==> Algorithm <==

  SCF Algorithm Type is DF.
  DIIS enabled.
  MOM disabled.
  Fractional occupation disabled.
  Guess Type is SAD.
  Energy threshold   = 1.00e-10
  Density threshold  = 1.00e-10
  Integral threshold = 0.00e+00

  ==> Primary Basis <==

  Basis Set: AUG-CC-PVTZ
    Blend: AUG-CC-PVTZ
    Number of shells: 263
    Number of basis function: 805
    Number of Cartesian functions: 940
    Spherical Harmonics?: true
    Max angular momentum: 3

   => Loading Basis Set <=

    Name: (AUG-CC-PVTZ AUX)
    Role: JKFIT
    Keyword: DF_BASIS_SCF
    atoms 1-11  entry C          line   161 file /cbio/jclab/home/chayas/anaconda/envs/py35/share/psi4/basis/aug-cc-pvtz-jkfit.gbs 
    atoms 12    entry N          line   223 file /cbio/jclab/home/chayas/anaconda/envs/py35/share/psi4/basis/aug-cc-pvtz-jkfit.gbs 
    atoms 13    entry O          line   285 file /cbio/jclab/home/chayas/anaconda/envs/py35/share/psi4/basis/aug-cc-pvtz-jkfit.gbs 
    atoms 14-22 entry H          line    69 file /cbio/jclab/home/chayas/anaconda/envs/py35/share/psi4/basis/aug-cc-pvtz-jkfit.gbs 

  ==> Pre-Iterations <==

   -------------------------------------------------------
    Irrep   Nso     Nmo     Nalpha   Nbeta   Ndocc  Nsocc
   -------------------------------------------------------
     A        805     805       0       0       0       0
   -------------------------------------------------------
    Total     805     805      45      45      45       0
   -------------------------------------------------------

  ==> Integral Setup <==

  ==> DFJK: Density-Fitted J/K Matrices <==

    J tasked:                  Yes
    K tasked:                  Yes
    wK tasked:                  No
    OpenMP threads:              8
    Integrals threads:           8
    Memory (MB):              3576
    Algorithm:                Disk
    Integral Cache:           NONE
    Schwarz Cutoff:          1E-12
    Fitting Condition:       1E-12

   => Auxiliary Basis Set <=

  Basis Set: (AUG-CC-PVTZ AUX)
    Blend: AUG-CC-PVTZ-JKFIT
    Number of shells: 516
    Number of basis function: 1766
    Number of Cartesian functions: 2198
    Spherical Harmonics?: true
    Max angular momentum: 4

  Minimum eigenvalue in the overlap matrix is 6.9469158370E-07.
  Using Symmetric Orthogonalization.

  SCF Guess: Superposition of Atomic Densities via on-the-fly atomic UHF.

  ==> Iterations <==

                           Total Energy        Delta E     RMS |[F,P]|

   @DF-RHF iter   0:  -558.87163393453011   -5.58872e+02   1.69843e-02 
   @DF-RHF iter   1:  -550.78364417957334    8.08799e+00   1.75253e-03 
   @DF-RHF iter   2:  -551.03241288853997   -2.48769e-01   1.28369e-03 DIIS
   @DF-RHF iter   3:  -551.16312557054016   -1.30713e-01   4.83542e-04 DIIS
   @DF-RHF iter   4:  -551.18187502030537   -1.87494e-02   1.64184e-04 DIIS
   @DF-RHF iter   5:  -551.18428560839197   -2.41059e-03   6.49078e-05 DIIS
   @DF-RHF iter   6:  -551.18497418688025   -6.88578e-04   3.46168e-05 DIIS
   @DF-RHF iter   7:  -551.18522425970650   -2.50073e-04   1.65459e-05 DIIS
   @DF-RHF iter   8:  -551.18528654288252   -6.22832e-05   6.54853e-06 DIIS
   @DF-RHF iter   9:  -551.18530138389474   -1.48410e-05   3.00995e-06 DIIS
   @DF-RHF iter  10:  -551.18530368958739   -2.30569e-06   1.16476e-06 DIIS
   @DF-RHF iter  11:  -551.18530430918963   -6.19602e-07   3.57045e-07 DIIS
   @DF-RHF iter  12:  -551.18530439149981   -8.23102e-08   2.05749e-07 DIIS
   @DF-RHF iter  13:  -551.18530440593088   -1.44311e-08   8.78003e-08 DIIS
   @DF-RHF iter  14:  -551.18530441194673   -6.01585e-09   4.74715e-08 DIIS
   @DF-RHF iter  15:  -551.18530441278790   -8.41169e-10   2.17737e-08 DIIS
   @DF-RHF iter  16:  -551.18530441294399   -1.56092e-10   6.83169e-09 DIIS
   @DF-RHF iter  17:  -551.18530441294206    1.93268e-12   2.86986e-09 DIIS
   @DF-RHF iter  18:  -551.18530441295047   -8.41283e-12   1.34296e-09 DIIS
   @DF-RHF iter  19:  -551.18530441296093   -1.04592e-11   4.08246e-10 DIIS
   @DF-RHF iter  20:  -551.18530441293956    2.13731e-11   2.08135e-10 DIIS
   @DF-RHF iter  21:  -551.18530441292990    9.66338e-12   1.19130e-10 DIIS
   @DF-RHF iter  22:  -551.18530441294911   -1.92131e-11   4.77083e-11 DIIS

  ==> Post-Iterations <==

    Orbital Energies (a.u.)
    -----------------------

    Doubly Occupied:                                                      

       1A    -20.382873     2A    -15.744024     3A    -11.386937  
       4A    -11.386907     5A    -11.331687     6A    -11.311453  
       7A    -11.311402     8A    -11.207606     9A    -11.207575  
      10A    -11.207378    11A    -11.190962    12A    -11.159431  
      13A    -11.159373    14A     -1.418981    15A     -1.216049  
      16A     -1.196021    17A     -1.140241    18A     -1.095357  
      19A     -0.991618    20A     -0.969618    21A     -0.965616  
      22A     -0.904246    23A     -0.868142    24A     -0.787191  
      25A     -0.774149    26A     -0.767424    27A     -0.730194  
      28A     -0.698537    29A     -0.697346    30A     -0.683303  
      31A     -0.620620    32A     -0.608290    33A     -0.597596  
      34A     -0.585667    35A     -0.541923    36A     -0.514584  
      37A     -0.479940    38A     -0.475295    39A     -0.446956  
      40A     -0.445045    41A     -0.440060    42A     -0.385138  
      43A     -0.301220    44A     -0.300248    45A     -0.209521  

    Virtual:                                                              

      46A     -0.020847    47A      0.001904    48A      0.002938  
      49A      0.016131    50A      0.025574    51A      0.032920  
      52A      0.033263    53A      0.037771    54A      0.048828  
      55A      0.048891    56A      0.057313    57A      0.066180  
      58A      0.069048    59A      0.072544    60A      0.073440  
      61A      0.080889    62A      0.086379    63A      0.094458  
      64A      0.098406    65A      0.105578    66A      0.106534  
      67A      0.121044    68A      0.122644    69A      0.126454  
      70A      0.126645    71A      0.127865    72A      0.129549  
      73A      0.129784    74A      0.131519    75A      0.149270  
      76A      0.156045    77A      0.157854    78A      0.159101  
      79A      0.160525    80A      0.165098    81A      0.169747  
      82A      0.177823    83A      0.183577    84A      0.183858  
      85A      0.190388    86A      0.190529    87A      0.193236  
      88A      0.194664    89A      0.199926    90A      0.206687  
      91A      0.209149    92A      0.209640    93A      0.210828  
      94A      0.221849    95A      0.222660    96A      0.239417  
      97A      0.242326    98A      0.242405    99A      0.245287  
     100A      0.245629   101A      0.247454   102A      0.259842  
     103A      0.260771   104A      0.261223   105A      0.267961  
     106A      0.270872   107A      0.277767   108A      0.283048  
     109A      0.289940   110A      0.297140   111A      0.297784  
     112A      0.298628   113A      0.306746   114A      0.313540  
     115A      0.320584   116A      0.321447   117A      0.322474  
     118A      0.322912   119A      0.332147   120A      0.338455  
     121A      0.339457   122A      0.339788   123A      0.349606  
     124A      0.355454   125A      0.357259   126A      0.357630  
     127A      0.359871   128A      0.360673   129A      0.370622  
     130A      0.376208   131A      0.378725   132A      0.381658  
     133A      0.386736   134A      0.392787   135A      0.393992  
     136A      0.404080   137A      0.404892   138A      0.406273  
     139A      0.413391   140A      0.416095   141A      0.417649  
     142A      0.426144   143A      0.432440   144A      0.434599  
     145A      0.441856   146A      0.450670   147A      0.451869  
     148A      0.452061   149A      0.458389   150A      0.460169  
     151A      0.463695   152A      0.476346   153A      0.476802  
     154A      0.478083   155A      0.478954   156A      0.485911  
     157A      0.487435   158A      0.489196   159A      0.490362  
     160A      0.499932   161A      0.500551   162A      0.502973  
     163A      0.513629   164A      0.515375   165A      0.522927  
     166A      0.526727   167A      0.530038   168A      0.533711  
     169A      0.535269   170A      0.540044   171A      0.547627  
     172A      0.549467   173A      0.551707   174A      0.556758  
     175A      0.563244   176A      0.566325   177A      0.571489  
     178A      0.589246   179A      0.591324   180A      0.596896  
     181A      0.600575   182A      0.605177   183A      0.606078  
     184A      0.606699   185A      0.606822   186A      0.610752  
     187A      0.612820   188A      0.625921   189A      0.633035  
     190A      0.641399   191A      0.642786   192A      0.651045  
     193A      0.666588   194A      0.671006   195A      0.671389  
     196A      0.674727   197A      0.680969   198A      0.689440  
     199A      0.691849   200A      0.691926   201A      0.693446  
     202A      0.715071   203A      0.717141   204A      0.717761  
     205A      0.727877   206A      0.736043   207A      0.737399  
     208A      0.737611   209A      0.746428   210A      0.751480  
     211A      0.760788   212A      0.761441   213A      0.768140  
     214A      0.773654   215A      0.778426   216A      0.780580  
     217A      0.788209   218A      0.792292   219A      0.797152  
     220A      0.806130   221A      0.810395   222A      0.814634  
     223A      0.829806   224A      0.836047   225A      0.844681  
     226A      0.854134   227A      0.855757   228A      0.856970  
     229A      0.861083   230A      0.863333   231A      0.867619  
     232A      0.870265   233A      0.878120   234A      0.890633  
     235A      0.900510   236A      0.906294   237A      0.908680  
     238A      0.908999   239A      0.910403   240A      0.924760  
     241A      0.925905   242A      0.928335   243A      0.936311  
     244A      0.936993   245A      0.942691   246A      0.946633  
     247A      0.953040   248A      0.956940   249A      0.957652  
     250A      0.960754   251A      0.968290   252A      0.975525  
     253A      0.977303   254A      0.982765   255A      0.988072  
     256A      0.995070   257A      0.997175   258A      1.000815  
     259A      1.004908   260A      1.010767   261A      1.011771  
     262A      1.018119   263A      1.019980   264A      1.033196  
     265A      1.039377   266A      1.049154   267A      1.050826  
     268A      1.058452   269A      1.062764   270A      1.064686  
     271A      1.070520   272A      1.071526   273A      1.074572  
     274A      1.080247   275A      1.081591   276A      1.082922  
     277A      1.086346   278A      1.095346   279A      1.098530  
     280A      1.102714   281A      1.107850   282A      1.113382  
     283A      1.113670   284A      1.119370   285A      1.123577  
     286A      1.127952   287A      1.130584   288A      1.135282  
     289A      1.142817   290A      1.164204   291A      1.168745  
     292A      1.171225   293A      1.173228   294A      1.174871  
     295A      1.178010   296A      1.179328   297A      1.196261  
     298A      1.201867   299A      1.208269   300A      1.209230  
     301A      1.212462   302A      1.213466   303A      1.222769  
     304A      1.226246   305A      1.233282   306A      1.238014  
     307A      1.238163   308A      1.254254   309A      1.256122  
     310A      1.258831   311A      1.261831   312A      1.265031  
     313A      1.280241   314A      1.283703   315A      1.287241  
     316A      1.293471   317A      1.302537   318A      1.303235  
     319A      1.303672   320A      1.325344   321A      1.327964  
     322A      1.331168   323A      1.334506   324A      1.349022  
     325A      1.352089   326A      1.352534   327A      1.356811  
     328A      1.357426   329A      1.361416   330A      1.381018  
     331A      1.385261   332A      1.393715   333A      1.393846  
     334A      1.407280   335A      1.409566   336A      1.418199  
     337A      1.426571   338A      1.435441   339A      1.435592  
     340A      1.437682   341A      1.452577   342A      1.455788  
     343A      1.458681   344A      1.488558   345A      1.488875  
     346A      1.492731   347A      1.502280   348A      1.503315  
     349A      1.510244   350A      1.523843   351A      1.525119  
     352A      1.539131   353A      1.548977   354A      1.549554  
     355A      1.563223   356A      1.571089   357A      1.574295  
     358A      1.575829   359A      1.590261   360A      1.594478  
     361A      1.619824   362A      1.621380   363A      1.623747  
     364A      1.625836   365A      1.631314   366A      1.636424  
     367A      1.637223   368A      1.649120   369A      1.650046  
     370A      1.663169   371A      1.683931   372A      1.703883  
     373A      1.707692   374A      1.718551   375A      1.720338  
     376A      1.726986   377A      1.744562   378A      1.745759  
     379A      1.757693   380A      1.761157   381A      1.762836  
     382A      1.771340   383A      1.774710   384A      1.788074  
     385A      1.788305   386A      1.804546   387A      1.806350  
     388A      1.811503   389A      1.816183   390A      1.823214  
     391A      1.844554   392A      1.848886   393A      1.861750  
     394A      1.862296   395A      1.864663   396A      1.894734  
     397A      1.902060   398A      1.902091   399A      1.918311  
     400A      1.930789   401A      1.932019   402A      1.940440  
     403A      1.947399   404A      1.963002   405A      1.965953  
     406A      1.966948   407A      1.975307   408A      1.979487  
     409A      1.988886   410A      1.992154   411A      1.997827  
     412A      2.006338   413A      2.006648   414A      2.025303  
     415A      2.037984   416A      2.040255   417A      2.050404  
     418A      2.051759   419A      2.060079   420A      2.067958  
     421A      2.073968   422A      2.074512   423A      2.089617  
     424A      2.104943   425A      2.116080   426A      2.120999  
     427A      2.140176   428A      2.147731   429A      2.157526  
     430A      2.161549   431A      2.165101   432A      2.174684  
     433A      2.175390   434A      2.180878   435A      2.182026  
     436A      2.189767   437A      2.197563   438A      2.208381  
     439A      2.217004   440A      2.221267   441A      2.231727  
     442A      2.248446   443A      2.253183   444A      2.269211  
     445A      2.308044   446A      2.311374   447A      2.314939  
     448A      2.318937   449A      2.319129   450A      2.327933  
     451A      2.328585   452A      2.357436   453A      2.365577  
     454A      2.369986   455A      2.373311   456A      2.396680  
     457A      2.406550   458A      2.409248   459A      2.424103  
     460A      2.433551   461A      2.434023   462A      2.447049  
     463A      2.457544   464A      2.473460   465A      2.475746  
     466A      2.481133   467A      2.500103   468A      2.515672  
     469A      2.520257   470A      2.544516   471A      2.555115  
     472A      2.558359   473A      2.562192   474A      2.565809  
     475A      2.566758   476A      2.572977   477A      2.604011  
     478A      2.626636   479A      2.635982   480A      2.639366  
     481A      2.647917   482A      2.658786   483A      2.680290  
     484A      2.683704   485A      2.685498   486A      2.694816  
     487A      2.700447   488A      2.773478   489A      2.791142  
     490A      2.807388   491A      2.826363   492A      2.828799  
     493A      2.829103   494A      2.843087   495A      2.858515  
     496A      2.887256   497A      2.908855   498A      2.912500  
     499A      2.930021   500A      2.935841   501A      2.991741  
     502A      3.011296   503A      3.027253   504A      3.034758  
     505A      3.065528   506A      3.068443   507A      3.078897  
     508A      3.089519   509A      3.134539   510A      3.151378  
     511A      3.154875   512A      3.184474   513A      3.189873  
     514A      3.228099   515A      3.235207   516A      3.244285  
     517A      3.256456   518A      3.264568   519A      3.271382  
     520A      3.297602   521A      3.313080   522A      3.338600  
     523A      3.343159   524A      3.348272   525A      3.351961  
     526A      3.364363   527A      3.399559   528A      3.414065  
     529A      3.414351   530A      3.419353   531A      3.421266  
     532A      3.421597   533A      3.447487   534A      3.451430  
     535A      3.461883   536A      3.463204   537A      3.478324  
     538A      3.490057   539A      3.494332   540A      3.498654  
     541A      3.530787   542A      3.546668   543A      3.548010  
     544A      3.548477   545A      3.560647   546A      3.560779  
     547A      3.580200   548A      3.590752   549A      3.596470  
     550A      3.603868   551A      3.611998   552A      3.623809  
     553A      3.629622   554A      3.635550   555A      3.640319  
     556A      3.643618   557A      3.653054   558A      3.669651  
     559A      3.678316   560A      3.694423   561A      3.705341  
     562A      3.709257   563A      3.712355   564A      3.714701  
     565A      3.721566   566A      3.729519   567A      3.735842  
     568A      3.759180   569A      3.773204   570A      3.774719  
     571A      3.774800   572A      3.807605   573A      3.809837  
     574A      3.812308   575A      3.814322   576A      3.826302  
     577A      3.834119   578A      3.839940   579A      3.855368  
     580A      3.857172   581A      3.877104   582A      3.898601  
     583A      3.908058   584A      3.913884   585A      3.918348  
     586A      3.918698   587A      3.919342   588A      3.932289  
     589A      3.955749   590A      3.957196   591A      3.960409  
     592A      3.972018   593A      3.990741   594A      3.995410  
     595A      3.995573   596A      3.996425   597A      4.027964  
     598A      4.032582   599A      4.052965   600A      4.058969  
     601A      4.068070   602A      4.077818   603A      4.079263  
     604A      4.088229   605A      4.095082   606A      4.100649  
     607A      4.119303   608A      4.119758   609A      4.120677  
     610A      4.128258   611A      4.157115   612A      4.158855  
     613A      4.177233   614A      4.179367   615A      4.184742  
     616A      4.187191   617A      4.192156   618A      4.194941  
     619A      4.208419   620A      4.211888   621A      4.222790  
     622A      4.255319   623A      4.263737   624A      4.265834  
     625A      4.273891   626A      4.280226   627A      4.285875  
     628A      4.287398   629A      4.296695   630A      4.322312  
     631A      4.329073   632A      4.333659   633A      4.350357  
     634A      4.353879   635A      4.362133   636A      4.375221  
     637A      4.400046   638A      4.401393   639A      4.402881  
     640A      4.423808   641A      4.429796   642A      4.431001  
     643A      4.434647   644A      4.435156   645A      4.435449  
     646A      4.436930   647A      4.476321   648A      4.478082  
     649A      4.483736   650A      4.504468   651A      4.518583  
     652A      4.528996   653A      4.539319   654A      4.550334  
     655A      4.559584   656A      4.559848   657A      4.560744  
     658A      4.591076   659A      4.608425   660A      4.613453  
     661A      4.617352   662A      4.627393   663A      4.651278  
     664A      4.653751   665A      4.671011   666A      4.733524  
     667A      4.733864   668A      4.749099   669A      4.766082  
     670A      4.769269   671A      4.777318   672A      4.779684  
     673A      4.784015   674A      4.802672   675A      4.823965  
     676A      4.835399   677A      4.862667   678A      4.875210  
     679A      4.878361   680A      4.903325   681A      4.917108  
     682A      4.918064   683A      4.919242   684A      4.951521  
     685A      4.963458   686A      4.977671   687A      4.999285  
     688A      5.006710   689A      5.020204   690A      5.025176  
     691A      5.034693   692A      5.047943   693A      5.053219  
     694A      5.058068   695A      5.073151   696A      5.082949  
     697A      5.088304   698A      5.096002   699A      5.106516  
     700A      5.131825   701A      5.139050   702A      5.146584  
     703A      5.164467   704A      5.202952   705A      5.210396  
     706A      5.213331   707A      5.216970   708A      5.228957  
     709A      5.240411   710A      5.240573   711A      5.245976  
     712A      5.274647   713A      5.289333   714A      5.302167  
     715A      5.323562   716A      5.325845   717A      5.350981  
     718A      5.357548   719A      5.391036   720A      5.410347  
     721A      5.413477   722A      5.419566   723A      5.427911  
     724A      5.436764   725A      5.468493   726A      5.489681  
     727A      5.503598   728A      5.521577   729A      5.528657  
     730A      5.566626   731A      5.601012   732A      5.644594  
     733A      5.682267   734A      5.698485   735A      5.702567  
     736A      5.728434   737A      5.730598   738A      5.732366  
     739A      5.777031   740A      5.792343   741A      5.801418  
     742A      5.813394   743A      5.855029   744A      5.877560  
     745A      5.896740   746A      5.927211   747A      5.959174  
     748A      6.003831   749A      6.027825   750A      6.072186  
     751A      6.105230   752A      6.142493   753A      6.151971  
     754A      6.155746   755A      6.207261   756A      6.239458  
     757A      6.326651   758A      6.361454   759A      6.363254  
     760A      6.381290   761A      6.438120   762A      6.441723  
     763A      6.534860   764A      6.543531   765A      6.599762  
     766A      6.635345   767A      6.647968   768A      6.659632  
     769A      6.751318   770A      6.794891   771A      6.816674  
     772A      6.838524   773A      6.900793   774A      6.926364  
     775A      6.946780   776A      6.962254   777A      7.000713  
     778A      7.055399   779A      7.106791   780A      7.148577  
     781A      7.224074   782A      7.245809   783A      7.274744  
     784A      7.534359   785A      7.537104   786A      7.555183  
     787A      7.637016   788A      7.841319   789A      7.860991  
     790A      7.942362   791A      8.075490   792A      8.129186  
     793A     16.062383   794A     16.188891   795A     16.221530  
     796A     16.492574   797A     17.136360   798A     18.893576  
     799A     19.314747   800A     19.783165   801A     20.040025  
     802A     20.177246   803A     20.180711   804A     20.188195  
     805A     21.830409  

    Final Occupation by Irrep:
              A 
    DOCC [    45 ]

  Energy converged.

  @DF-RHF Final Energy:  -551.18530441294911

   => Energetics <=

    Nuclear Repulsion Energy =            700.0784740726096516
    One-Electron Energy =               -2136.8400760001250092
    Two-Electron Energy =                 885.5762975145662494
    DFT Exchange-Correlation Energy =       0.0000000000000000
    Empirical Dispersion Energy =           0.0000000000000000
    PCM Polarization Energy =               0.0000000000000000
    EFP Energy =                            0.0000000000000000
    Total Energy =                       -551.1853044129491082



Properties will be evaluated at   0.000000,   0.000000,   0.000000 Bohr

Properties computed using the SCF density matrix

  Nuclear Dipole Moment: (a.u.)
     X:     5.8859      Y:    -3.1283      Z:    -3.6746

  Electronic Dipole Moment: (a.u.)
     X:     1.4827      Y:    -0.7895      Z:    -0.9246

  Dipole Moment: (a.u.)
     X:     7.3686      Y:    -3.9179      Z:    -4.5992     Total:     9.5288

  Dipole Moment: (Debye)
     X:    18.7291      Y:    -9.9582      Z:   -11.6899     Total:    24.2198


*** tstop() called on gpu-1-14.local at Sun Nov 12 16:45:38 2017
Module time:
	user time   =    1206.93 seconds =      20.12 minutes
	system time =      55.15 seconds =       0.92 minutes
	total time  =        517 seconds =       8.62 minutes
Total time:
	user time   =    1206.94 seconds =      20.12 minutes
	system time =      55.15 seconds =       0.92 minutes
	total time  =        517 seconds =       8.62 minutes

  //>>>>>>>>>>>>>>>>>>>>>>>>>>>>>>>>>>>//
  //               DFMP2               //
  //<<<<<<<<<<<<<<<<<<<<<<<<<<<<<<<<<<<//

   => Loading Basis Set <=

    Name: (AUG-CC-PVTZ AUX)
    Role: RIFIT
    Keyword: DF_BASIS_MP2
    atoms 1-11  entry C          line   147 file /cbio/jclab/home/chayas/anaconda/envs/py35/share/psi4/basis/aug-cc-pvtz-ri.gbs 
    atoms 12    entry N          line   205 file /cbio/jclab/home/chayas/anaconda/envs/py35/share/psi4/basis/aug-cc-pvtz-ri.gbs 
    atoms 13    entry O          line   263 file /cbio/jclab/home/chayas/anaconda/envs/py35/share/psi4/basis/aug-cc-pvtz-ri.gbs 
    atoms 14-22 entry H          line    29 file /cbio/jclab/home/chayas/anaconda/envs/py35/share/psi4/basis/aug-cc-pvtz-ri.gbs 

	 --------------------------------------------------------
	                          DF-MP2                         
	      2nd-Order Density-Fitted Moller-Plesset Theory     
	              RMP2 Wavefunction,   8 Threads             
	                                                         
	        Rob Parrish, Justin Turney, Andy Simmonett,      
	           Ed Hohenstein, and C. David Sherrill          
	 --------------------------------------------------------

   => Auxiliary Basis Set <=

  Basis Set: (AUG-CC-PVTZ AUX)
    Blend: AUG-CC-PVTZ-RI
    Number of shells: 490
    Number of basis function: 1792
    Number of Cartesian functions: 2263
    Spherical Harmonics?: true
    Max angular momentum: 4

	 --------------------------------------------------------
	                 NBF =   805, NAUX =  1792
	 --------------------------------------------------------
	   CLASS    FOCC     OCC    AOCC    AVIR     VIR    FVIR
	   PAIRS       0      45      45     760     760       0
	 --------------------------------------------------------


         ------------------------------------------------------------
                                     CPHF                           
                                  Rob Parrish                       
         ------------------------------------------------------------

  ==> Geometry <==

    Molecular point group: c1
    Full point group: C1

    Geometry (in Angstrom), charge = 0, multiplicity = 1:

       Center              X                  Y                   Z               Mass       
    ------------   -----------------  -----------------  -----------------  -----------------
           C         -1.297314629002     0.734206384654    -0.557594615714    12.000000000000
           C         -0.304314629002     0.118206384654     1.556405384286    12.000000000000
           C         -2.375314629002     1.307206384654     0.115405384286    12.000000000000
           C         -1.382314629002     0.691206384654     2.230405384286    12.000000000000
           C          0.814685370998    -1.796793615346    -0.905594615714    12.000000000000
           C          1.978685370998     0.311206384654    -0.838594615714    12.000000000000
           C          1.901685370998    -2.340793615346    -1.573594615714    12.000000000000
           C          3.036685370998    -0.285793615346    -1.507594615714    12.000000000000
           C         -0.261314629002     0.139206384654     0.162405384286    12.000000000000
           C          0.857685370998    -0.455793615346    -0.535594615714    12.000000000000
           C         -2.418314629002     1.286206384654     1.509405384286    12.000000000000
           N          2.968685370998    -1.578793615346    -1.852594615714    14.003074004780
           O         -3.409314629002     1.812206384654     2.128405384286    15.994914619560
           H         -1.278314629002     0.759206384654    -1.644594615714     1.007825032070
           H          0.495685370998    -0.341793615346     2.131405384286     1.007825032070
           H         -3.171314629002     1.764206384654    -0.470594615714     1.007825032070
           H         -1.391314629002     0.662206384654     3.318405384286     1.007825032070
           H         -0.047314629002    -2.418793615346    -0.682594615714     1.007825032070
           H          2.039685370998     1.360206384654    -0.561594615714     1.007825032070
           H          1.955685370998    -3.369793615346    -1.899594615714     1.007825032070
           H          3.944685370998     0.232206384654    -1.783594615714     1.007825032070
           H          3.757685370998    -1.998793615346    -2.343594615714     1.007825032070

  Nuclear repulsion =  700.078474072609652
  Reference energy  = -551.185304412949108

  ==> Basis Set <==

  Basis Set: AUG-CC-PVTZ
    Blend: AUG-CC-PVTZ
    Number of shells: 263
    Number of basis function: 805
    Number of Cartesian functions: 940
    Spherical Harmonics?: true
    Max angular momentum: 3

  ==> CGRSolver (by Rob Parrish) <==

   Number of roots    =         1
   Preconditioning    =    JACOBI
   Convergence cutoff =     1E-06
   Maximum iterations =       100

  ==> CPHFRHamiltonian (by Rob Parrish) <== 

  ==> DFJK: Density-Fitted J/K Matrices <==

    J tasked:                  Yes
    K tasked:                  Yes
    wK tasked:                  No
    OpenMP threads:              8
    Integrals threads:           8
    Memory (MB):              3576
    Algorithm:                Disk
    Integral Cache:           NONE
    Schwarz Cutoff:          1E-12
    Fitting Condition:       1E-12

   => Auxiliary Basis Set <=

  Basis Set: (AUG-CC-PVTZ AUX)
    Blend: AUG-CC-PVTZ-JKFIT
    Number of shells: 516
    Number of basis function: 1766
    Number of Cartesian functions: 2198
    Spherical Harmonics?: true
    Max angular momentum: 4

  ==> CPHF Iterations <==

  => Iterations <=

             Iter  Converged  Remaining    Residual
  CGR           1          0          1   1.437E-01
  CGR           2          0          1   5.623E-02
  CGR           3          0          1   3.131E-02
  CGR           4          0          1   9.632E-03
  CGR           5          0          1   3.933E-03
  CGR           6          0          1   2.009E-03
  CGR           7          0          1   6.358E-04
  CGR           8          0          1   2.444E-04
  CGR           9          0          1   9.554E-05
  CGR          10          0          1   2.952E-05
  CGR          11          0          1   1.396E-05
  CGR          12          0          1   6.338E-06
  CGR          13          0          1   2.300E-06
  CGR          14          1          0   8.298E-07

    CGRSolver converged.

  ==> DFCorrGrad: Density-Fitted Correlated Gradients <==

    OpenMP threads:              8
    Integrals threads:           8
    Memory (MB):              3576
    Schwarz Cutoff:          0E+00
    Fitting Condition:       1E-12

   => Auxiliary Basis Set <=

  Basis Set: (AUG-CC-PVTZ AUX)
    Blend: AUG-CC-PVTZ-JKFIT
    Number of shells: 516
    Number of basis function: 1766
    Number of Cartesian functions: 2198
    Spherical Harmonics?: true
    Max angular momentum: 4

	-----------------------------------------------------------
	 ==================> DF-MP2 Energies <==================== 
	-----------------------------------------------------------
	 Reference Energy          =    -551.1853044129491082 [Eh]
	 Singles Energy            =      -0.0000000000000002 [Eh]
	 Same-Spin Energy          =      -0.6050970835047436 [Eh]
	 Opposite-Spin Energy      =      -1.8335732207444506 [Eh]
	 Correlation Energy        =      -2.4386703042491940 [Eh]
	 Total Energy              =    -553.6239747171982799 [Eh]
	-----------------------------------------------------------
	 ================> DF-SCS-MP2 Energies <================== 
	-----------------------------------------------------------
	 SCS Same-Spin Scale       =       0.3333333333333333 [-]
	 SCS Opposite-Spin Scale   =       1.2000000000000000 [-]
	 SCS Same-Spin Energy      =      -0.2016990278349145 [Eh]
	 SCS Opposite-Spin Energy  =      -2.2002878648933408 [Eh]
	 SCS Correlation Energy    =      -2.4019868927282553 [Eh]
	 SCS Total Energy          =    -553.5872913056773541 [Eh]
	-----------------------------------------------------------


  -Total Gradient:
     Atom            X                  Y                   Z
    ------   -----------------  -----------------  -----------------
       1        0.013453959678    -0.007448383732    -0.000344979977
       2        0.007969239263    -0.003921417519    -0.013058332291
       3       -0.022741986315     0.011342692572     0.038209899982
       4       -0.040240798964     0.021992936845     0.002004381539
       5       -0.015811669597     0.008876934256     0.009980367487
       6       -0.016196167645     0.007572663092     0.009640618964
       7        0.009615754283     0.008234001422    -0.001969652634
       8       -0.001997881023    -0.012867692738    -0.002571076001
       9       -0.003889660093     0.001973278525     0.002430360589
      10        0.014705881231    -0.007726400979    -0.009043661139
      11        0.057321345330    -0.030285468191    -0.036318159622
      12       -0.002346389831     0.001680013601     0.001396130170
      13       -0.008327252029     0.004356011160     0.005276188832
      14       -0.001893061379     0.001156368600    -0.002424299634
      15        0.000666568717    -0.000473373958     0.003051025405
      16       -0.002759484851     0.001746952664    -0.008606880623
      17        0.004753328395    -0.002790497632     0.007013999240
      18       -0.003982913405    -0.005279780800     0.000316934972
      19        0.002411774958     0.006495232081     0.000796515242
      20        0.000545366646    -0.001880231453    -0.000869097674
      21        0.002138471275     0.000751707821    -0.000858149138
      22        0.006605575357    -0.003505545634    -0.004052133686


*** tstop() called on gpu-1-14.local at Sun Nov 12 17:16:35 2017
Module time:
	user time   =    5262.32 seconds =      87.71 minutes
	system time =     111.78 seconds =       1.86 minutes
	total time  =       2374 seconds =      39.57 minutes
Total time:
	user time   =    5262.33 seconds =      87.71 minutes
	system time =     111.78 seconds =       1.86 minutes
	total time  =       2374 seconds =      39.57 minutes

			-----------------------------------------
			 OPTKING 2.0: for geometry optimizations 
			  - R.A. King,  Bethel University        
			-----------------------------------------

	Internal coordinates to be generated automatically.
	Detected frag 1 with atoms:  1 2 3 4 5 6 7 8 9 10 11 12 13 14 15 16 17 18 19 20
	 21 22
	---Fragment 1 Bond Connectivity---
	 1 : 3 9 14
	 2 : 4 9 15
	 3 : 1 11 16
	 4 : 2 11 17
	 5 : 7 10 18
	 6 : 8 10 19
	 7 : 5 12 20
	 8 : 6 12 21
	 9 : 1 2 10
	 10 : 5 6 9
	 11 : 3 4 13
	 12 : 7 8 22
	 13 : 11
	 14 : 1
	 15 : 2
	 16 : 3
	 17 : 4
	 18 : 5
	 19 : 6
	 20 : 7
	 21 : 8
	 22 : 12

	Assuming in current code that numbering for constraints corresponds to unified fragment.
	Fixed dihedral atom list: 
	     1     9    10     5
	---Fragment 1 Geometry and Gradient---
	 C          -2.4515693570        1.3874489920       -1.0537011169
	 C          -0.5750713070        0.2233776942        2.9411799280
	 C          -4.4886941283        2.4702620662        0.2180845706
	 C          -2.6121960783        1.3061907683        4.2148553416
	 C           1.5395322357       -3.3954478503       -1.7113258111
	 C           3.7391734543        0.5880948378       -1.5847141602
	 C           3.5936645421       -4.4234588666       -2.9736628679
	 C           5.7385037029       -0.5400716635       -2.8489409431
	 C          -0.4938130833        0.2630619429        0.3069016988
	 C           1.6207904594       -0.8613251061       -1.0121271419
	 C          -4.5699523520        2.4305778174        2.8523627998
	 N           5.6100023259       -2.9834875534       -3.5008964590
	 O          -6.4426709497        3.4245737633        4.0221032761
	 H          -2.4156645605        1.4346921453       -3.1078334233
	 H           0.9367095993       -0.6458963270        4.0277724545
	 H          -5.9929161300        3.3338669089       -0.8892949433
	 H          -2.6292036135        1.2513887104        6.2708773742
	 H          -0.0894116909       -4.5708575050       -1.2899168835
	 H           3.8544467484        2.5704175512       -1.0612600214
	 H           3.6957097533       -6.3679870574       -3.5897135872
	 H           7.4543750316        0.4388064733       -3.3705053558
	 H           7.1009962447       -3.7771725292       -4.4287519902
	             0.0134539597       -0.0074483837       -0.0003449800
	             0.0079692393       -0.0039214175       -0.0130583323
	            -0.0227419863        0.0113426926        0.0382099000
	            -0.0402407990        0.0219929368        0.0020043815
	            -0.0158116696        0.0088769343        0.0099803675
	            -0.0161961676        0.0075726631        0.0096406190
	             0.0096157543        0.0082340014       -0.0019696526
	            -0.0019978810       -0.0128676927       -0.0025710760
	            -0.0038896601        0.0019732785        0.0024303606
	             0.0147058812       -0.0077264010       -0.0090436611
	             0.0573213453       -0.0302854682       -0.0363181596
	            -0.0023463898        0.0016800136        0.0013961302
	            -0.0083272520        0.0043560112        0.0052761888
	            -0.0018930614        0.0011563686       -0.0024242996
	             0.0006665687       -0.0004733740        0.0030510254
	            -0.0027594849        0.0017469527       -0.0086068806
	             0.0047533284       -0.0027904976        0.0070139992
	            -0.0039829134       -0.0052797808        0.0003169350
	             0.0024117750        0.0064952321        0.0007965152
	             0.0005453666       -0.0018802315       -0.0008690977
	             0.0021384713        0.0007517078       -0.0008581491
	             0.0066055754       -0.0035055456       -0.0040521337

	Previous optimization step data not found.  Starting new optimization.

	---Fragment 1 Intrafragment Coordinates---
	 - Coordinate -           - BOHR/RAD -       - ANG/DEG -
	 R(1,3)           =         2.634350	       1.394038
	 R(1,9)           =         2.635962	       1.394891
	 R(1,14)          =         2.054989	       1.087453
	 R(2,4)           =         2.635263	       1.394521
	 R(2,9)           =         2.635830	       1.394821
	 R(2,15)          =         2.054702	       1.087302
	 R(3,11)          =         2.635830	       1.394821
	 R(3,16)          =         2.057860	       1.088972
	 R(4,11)          =         2.636938	       1.395407
	 R(4,17)          =         2.056823	       1.088424
	 R(5,7)           =         2.621023	       1.386986
	 R(5,10)          =         2.630068	       1.391772
	 R(5,18)          =         2.052470	       1.086120
	 R(6,8)           =         2.620754	       1.386843
	 R(6,10)          =         2.629871	       1.391668
	 R(6,19)          =         2.053508	       1.086670
	 R(7,12)          =         2.533202	       1.340513
	 R(7,20)          =         2.042332	       1.080756
	 R(8,12)          =         2.532161	       1.339962
	 R(8,21)          =         2.043146	       1.081186
	 R(9,10)          =         2.734160	       1.446855
	 R(11,13)         =         2.421445	       1.281373
	 R(12,22)         =         1.927152	       1.019805
	 B(1,3,11)        =         2.094553	     120.009056
	 B(1,3,16)        =         2.069123	     118.552025
	 B(1,9,2)         =         2.093692	     119.959722
	 B(1,9,10)        =         2.095337	     120.053983
	 B(2,4,11)        =         2.093699	     119.960108
	 B(2,4,17)        =         2.069829	     118.592446
	 B(2,9,10)        =         2.094156	     119.986294
	 B(3,1,9)         =         2.094940	     120.031219
	 B(3,1,14)        =         2.079025	     119.119344
	 B(3,11,4)        =         2.094306	     119.994870
	 B(3,11,13)       =         2.094918	     120.029973
	 B(4,2,9)         =         2.095181	     120.045019
	 B(4,2,15)        =         2.079455	     119.143974
	 B(4,11,13)       =         2.093961	     119.975136
	 B(5,7,12)        =         2.095661	     120.072517
	 B(5,7,20)        =         2.162613	     123.908574
	 B(5,10,6)        =         2.092130	     119.870209
	 B(5,10,9)        =         2.095078	     120.039155
	 B(6,8,12)        =         2.095404	     120.057815
	 B(6,8,21)        =         2.162269	     123.888902
	 B(6,10,9)        =         2.095977	     120.090634
	 B(7,5,10)        =         2.073428	     118.798683
	 B(7,5,18)        =         2.090088	     119.753202
	 B(7,12,8)        =         2.135687	     122.365843
	 B(7,12,22)       =         2.073639	     118.810772
	 B(8,6,10)        =         2.074060	     118.834880
	 B(8,6,19)        =         2.089428	     119.715397
	 B(8,12,22)       =         2.073858	     118.823292
	 B(9,1,14)        =         2.109221	     120.849435
	 B(9,2,15)        =         2.108550	     120.811005
	 B(10,5,18)       =         2.119669	     121.448114
	 B(10,6,19)       =         2.119697	     121.449680
	 B(11,3,16)       =         2.119509	     121.438903
	 B(11,4,17)       =         2.119657	     121.447411
	 B(12,7,20)       =         2.024911	     116.018855
	 B(12,8,21)       =         2.025510	     116.053184
	 D(1,3,11,4)      =        -0.000325	      -0.018609
	 D(1,3,11,13)     =        -3.141004	    -179.966279
	 D(1,9,2,4)       =         0.000325	       0.018608
	 D(1,9,2,15)      =        -3.141527	    -179.996257
	 D(1,9,10,5)      =        -1.570959	     -90.009343
	 D(1,9,10,6)      =         1.570385	      89.976424
	 D(2,4,11,3)      =         0.000301	       0.017261
	 D(2,4,11,13)     =         3.140981	     179.964960
	 D(2,9,1,3)       =        -0.000348	      -0.019945
	 D(2,9,1,14)      =         3.141027	     179.967567
	 D(2,9,10,5)      =         1.570850	      90.003096
	 D(2,9,10,6)      =        -1.570991	     -90.011136
	 D(3,1,9,10)      =         3.141462	     179.992491
	 D(3,11,4,17)     =         3.140700	     179.948827
	 D(4,2,9,10)      =        -3.141485	    -179.993820
	 D(4,11,3,16)     =         3.140472	     179.935781
	 D(5,7,12,8)      =         0.000817	       0.046827
	 D(5,7,12,22)     =         3.140441	     179.934030
	 D(5,10,6,8)      =        -0.000940	      -0.053862
	 D(5,10,6,19)     =        -3.141205	    -179.977800
	 D(6,8,12,7)      =        -0.001423	      -0.081506
	 D(6,8,12,22)     =        -3.141046	    -179.968695
	 D(6,10,5,7)      =         0.000357	       0.020445
	 D(6,10,5,18)     =        -3.141005	    -179.966351
	 D(7,5,10,9)      =        -3.141484	    -179.993756
	 D(7,12,8,21)     =        -3.141100	    -179.971789
	 D(8,6,10,9)      =         3.140901	     179.960346
	 D(8,12,7,20)     =         3.140996	     179.965830
	 D(9,1,3,11)      =         0.000348	       0.019955
	 D(9,1,3,16)      =        -3.140471	    -179.935743
	 D(9,2,4,11)      =        -0.000301	      -0.017270
	 D(9,2,4,17)      =        -3.140734	    -179.950778
	 D(9,10,5,18)     =         0.000339	       0.019448
	 D(9,10,6,19)     =         0.000635	       0.036409
	 D(10,5,7,12)     =        -0.000271	      -0.015530
	 D(10,5,7,20)     =        -3.140333	    -179.927826
	 D(10,6,8,12)     =         0.001459	       0.083584
	 D(10,6,8,21)     =         3.140979	     179.964844
	 D(10,9,1,14)     =        -0.000349	      -0.019997
	 D(10,9,2,15)     =        -0.000152	      -0.008685
	 D(11,3,1,14)     =        -3.141030	    -179.967773
	 D(11,4,2,15)     =         3.141546	     179.997347
	 D(12,7,5,18)     =         3.141095	     179.971495
	 D(12,8,6,19)     =        -3.141438	    -179.991130
	 D(13,11,3,16)    =        -0.000207	      -0.011889
	 D(13,11,4,17)    =        -0.001806	      -0.103475
	 D(14,1,3,16)     =         0.001336	       0.076530
	 D(15,2,4,17)     =         0.001114	       0.063839
	 D(18,5,7,20)     =         0.001033	       0.059199
	 D(19,6,8,21)     =        -0.001918	      -0.109870
	 D(20,7,12,22)    =        -0.002565	      -0.146967
	 D(21,8,12,22)    =         0.002461	       0.141022

	Current energy   :      -553.6239747172

	Generating empirical Hessian (Schlegel '84) for each fragment.
	Adding user-defined constraint: Fragment 1; Coordinate 64:
		Value =    -1.570959; Fixed value    =    -1.570796
		Force =     0.000082; Force constant =     0.500000
	Removing off-diagonal coupling between coordinate 64 and others.
	Taking RFO optimization step.
	Going to follow RFO solution 1.
	Using RFO vector 1.

	Determining step-restricting scale parameter for RS-RFO.
	Maximum step size allowed    0.10000

	 Iter      |step|        alpha        rfo_root  
	------------------------------------------------
	    0     0.19929       1.00000           1
	    1     0.14624      12.56740           1
	    2     0.11602      30.06994           1
	    3     0.10300      43.83247           1
	    4     0.10014      47.71141           1
	    5     0.10000      47.91121           1
	------------------------------------------------
	Norm of target step-size    0.10000
	Projected energy change by RFO approximation:        -0.0062011136

	Back-transformation to cartesian coordinates...
	Successfully converged to displaced geometry.

	--- Internal Coordinate Step in ANG or DEG, aJ/ANG or AJ/DEG ---
	 ---------------------------------------------------------------------------
	   Coordinate                Previous        Force       Change         New 
	   ----------                --------       ------       ------       ------
	    1 R(1,3)          =      1.394038    -0.062564    -0.005238     1.388800
	    2 R(1,9)          =      1.394891     0.035074     0.002518     1.397409
	    3 R(1,14)         =      1.087453    -0.019911    -0.001965     1.085489
	    4 R(2,4)          =      1.394521    -0.065559    -0.005510     1.389011
	    5 R(2,9)          =      1.394821     0.035976     0.002586     1.397407
	    6 R(2,15)         =      1.087302    -0.018984    -0.001873     1.085429
	    7 R(3,11)         =      1.394821     0.232005     0.019922     1.414743
	    8 R(3,16)         =      1.088972    -0.060816    -0.006017     1.082955
	    9 R(4,11)         =      1.395407     0.228654     0.019659     1.415066
	   10 R(4,17)         =      1.088424    -0.058053    -0.005738     1.082685
	   11 R(5,7)          =      1.386986    -0.078527    -0.006486     1.380499
	   12 R(5,10)         =      1.391772     0.048274     0.004030     1.395802
	   13 R(5,18)         =      1.086120    -0.051490    -0.005069     1.081051
	   14 R(6,8)          =      1.386843    -0.077432    -0.006383     1.380461
	   15 R(6,10)         =      1.391668     0.047989     0.004011     1.395679
	   16 R(6,19)         =      1.086670    -0.054446    -0.005365     1.081305
	   17 R(7,12)         =      1.340513     0.022375     0.001642     1.342154
	   18 R(7,20)         =      1.080756    -0.017133    -0.001670     1.079086
	   19 R(8,12)         =      1.339962     0.026209     0.001927     1.341889
	   20 R(8,21)         =      1.081186    -0.019568    -0.001909     1.079277
	   21 R(9,10)         =      1.446855     0.046438     0.004345     1.451201
	   22 R(11,13)        =      1.281373    -0.088790    -0.005557     1.275816
	   23 R(12,22)        =      1.019805    -0.070073    -0.006053     1.013752
	   24 B(1,3,11)       =    120.009056     0.000691     1.045192   121.054248
	   25 B(1,3,16)       =    118.552025     0.000085     0.182568   118.734593
	   26 B(1,9,2)        =    119.959722    -0.000127    -0.326580   119.633142
	   27 B(1,9,10)       =    120.053983     0.000059     0.156371   120.210354
	   28 B(2,4,11)       =    119.960108     0.000706     1.062795   121.022903
	   29 B(2,4,17)       =    118.592446     0.000075     0.169590   118.762036
	   30 B(2,9,10)       =    119.986294     0.000069     0.170210   120.156504
	   31 B(3,1,9)        =    120.031219     0.000245     0.263611   120.294830
	   32 B(3,1,14)       =    119.119344     0.000052     0.153224   119.272569
	   33 B(3,11,4)       =    119.994870    -0.001762    -2.308352   117.686519
	   34 B(3,11,13)      =    120.029973     0.000873     1.143852   121.173825
	   35 B(4,2,9)        =    120.045019     0.000247     0.263335   120.308354
	   36 B(4,2,15)       =    119.143974     0.000045     0.144897   119.288871
	   37 B(4,11,13)      =    119.975136     0.000889     1.164505   121.139641
	   38 B(5,7,12)       =    120.072517    -0.000310    -0.461693   119.610824
	   39 B(5,7,20)       =    123.908574     0.000116     0.165942   124.074516
	   40 B(5,10,6)       =    119.870209    -0.000766    -1.058327   118.811882
	   41 B(5,10,9)       =    120.039155     0.000389     0.536490   120.575645
	   42 B(6,8,12)       =    120.057815    -0.000307    -0.454051   119.603764
	   43 B(6,8,21)       =    123.888902     0.000116     0.166088   124.054990
	   44 B(6,10,9)       =    120.090634     0.000378     0.521837   120.612472
	   45 B(7,5,10)       =    118.798683     0.000567     0.810152   119.608835
	   46 B(7,5,18)       =    119.753202    -0.000113    -0.125487   119.627715
	   47 B(7,12,8)       =    122.365843     0.000265     0.372158   122.738001
	   48 B(7,12,22)      =    118.810772    -0.000133    -0.187403   118.623369
	   49 B(8,6,10)       =    118.834880     0.000552     0.791769   119.626649
	   50 B(8,6,19)       =    119.715397    -0.000102    -0.110786   119.604611
	   51 B(8,12,22)      =    118.823292    -0.000131    -0.184745   118.638547
	   52 B(9,1,14)       =    120.849435    -0.000297    -0.416835   120.432600
	   53 B(9,2,15)       =    120.811005    -0.000293    -0.408232   120.402773
	   54 B(10,5,18)      =    121.448114    -0.000454    -0.684665   120.763450
	   55 B(10,6,19)      =    121.449680    -0.000450    -0.680978   120.768702
	   56 B(11,3,16)      =    121.438903    -0.000776    -1.227758   120.211145
	   57 B(11,4,17)      =    121.447411    -0.000781    -1.232380   120.215032
	   58 B(12,7,20)      =    116.018855     0.000195     0.295757   116.314613
	   59 B(12,8,21)      =    116.053184     0.000191     0.287978   116.341162
	   60 D(1,3,11,4)     =     -0.018609     0.000000     0.003308    -0.015301
	   61 D(1,3,11,13)    =   -179.966279    -0.000000    -0.004196  -179.970475
	   62 D(1,9,2,4)      =      0.018608    -0.000000    -0.002004     0.016604
	   63 D(1,9,2,15)     =   -179.996257    -0.000000    -0.000904  -179.997161
	   64 D(1,9,10,5)     =    -90.009343     0.000000     0.002505   -90.006838
	   65 D(1,9,10,6)     =     89.976424     0.000000     0.001738    89.978162
	   66 D(2,4,11,3)     =      0.017261    -0.000000    -0.003615     0.013646
	   67 D(2,4,11,13)    =    179.964960     0.000000     0.003876   179.968836
	   68 D(2,9,1,3)      =     -0.019945     0.000000     0.001702    -0.018243
	   69 D(2,9,1,14)     =    179.967567     0.000000     0.002400   179.969967
	   70 D(2,9,10,5)     =     90.003096     0.000000    -0.000400    90.002696
	   71 D(2,9,10,6)     =    -90.011136    -0.000000    -0.001167   -90.012303
	   72 D(3,1,9,10)     =    179.992491    -0.000000    -0.001250   179.991242
	   73 D(3,11,4,17)    =    179.948827     0.000000     0.001701   179.950527
	   74 D(4,2,9,10)     =   -179.993820     0.000000     0.000944  -179.992876
	   75 D(4,11,3,16)    =    179.935781     0.000001     0.006033   179.941814
	   76 D(5,7,12,8)     =      0.046827    -0.000000    -0.004003     0.042824
	   77 D(5,7,12,22)    =    179.934030     0.000000     0.002014   179.936044
	   78 D(5,10,6,8)     =     -0.053862     0.000000     0.002843    -0.051020
	   79 D(5,10,6,19)    =   -179.977800    -0.000000    -0.002432  -179.980232
	   80 D(6,8,12,7)     =     -0.081506     0.000001     0.007404    -0.074102
	   81 D(6,8,12,22)    =   -179.968695     0.000000     0.001389  -179.967306
	   82 D(6,10,5,7)     =      0.020445    -0.000000    -0.000104     0.020341
	   83 D(6,10,5,18)    =   -179.966351    -0.000000    -0.002184  -179.968534
	   84 D(7,5,10,9)     =   -179.993756    -0.000000    -0.000636  -179.994392
	   85 D(7,12,8,21)    =   -179.971789    -0.000000    -0.001285  -179.973074
	   86 D(8,6,10,9)     =    179.960346     0.000000     0.003373   179.963719
	   87 D(8,12,7,20)    =    179.965830     0.000000     0.001199   179.967030
	   88 D(9,1,3,11)     =      0.019955    -0.000000    -0.002053     0.017902
	   89 D(9,1,3,16)     =   -179.935743    -0.000000    -0.004090  -179.939833
	   90 D(9,2,4,11)     =     -0.017270     0.000000     0.002675    -0.014595
	   91 D(9,2,4,17)     =   -179.950778    -0.000000    -0.001597  -179.952375
	   92 D(9,10,5,18)    =      0.019448    -0.000000    -0.002716     0.016733
	   93 D(9,10,6,19)    =      0.036409    -0.000000    -0.001902     0.034507
	   94 D(10,5,7,12)    =     -0.015530     0.000000     0.000282    -0.015247
	   95 D(10,5,7,20)    =   -179.927826    -0.000001    -0.005398  -179.933225
	   96 D(10,6,8,12)    =      0.083584    -0.000001    -0.006469     0.077115
	   97 D(10,6,8,21)    =    179.964844     0.000000     0.002991   179.967835
	   98 D(10,9,1,14)    =     -0.019997    -0.000000    -0.000551    -0.020548
	   99 D(10,9,2,15)    =     -0.008685     0.000000     0.002044    -0.006640
	  100 D(11,3,1,14)    =   -179.967773    -0.000000    -0.002671  -179.970444
	  101 D(11,4,2,15)    =    179.997347     0.000000     0.001670   179.999017
	  102 D(12,7,5,18)    =    179.971495     0.000000     0.002260   179.973755
	  103 D(12,8,6,19)    =   -179.991130    -0.000000    -0.001711  -179.992841
	  104 D(13,11,3,16)   =     -0.011889    -0.000000    -0.001471    -0.013359
	  105 D(13,11,4,17)   =     -0.103475     0.000001     0.009192    -0.094283
	  106 D(14,1,3,16)    =      0.076530    -0.000000    -0.004709     0.071821
	  107 D(15,2,4,17)    =      0.063839    -0.000000    -0.002602     0.061237
	  108 D(18,5,7,20)    =      0.059199    -0.000000    -0.003420     0.055778
	  109 D(19,6,8,21)    =     -0.109870     0.000001     0.007749    -0.102121
	  110 D(20,7,12,22)   =     -0.146967     0.000001     0.007216    -0.139751
	  111 D(21,8,12,22)   =      0.141022    -0.000001    -0.007300     0.133722
	 ---------------------------------------------------------------------------
	Successfully symmetrized geometry.
	 Forces used to impose fixed constraints are not included.
	  Forces zeroed: 64 

  ==> Convergence Check <==

  Measures of convergence in internal coordinates in au.
  Criteria marked as inactive (o), active & met (*), and active & unmet ( ).
  --------------------------------------------------------------------------------------------- ~
   Step     Total Energy     Delta E     MAX Force     RMS Force      MAX Disp      RMS Disp    ~
  --------------------------------------------------------------------------------------------- ~
    Convergence Criteria    1.00e-06 *    3.00e-04 *             o    1.20e-03 *             o  ~
  --------------------------------------------------------------------------------------------- ~
      1    -553.62397472   -5.54e+02      2.82e-02      6.05e-03 o    4.03e-02      9.49e-03 o  ~
  ---------------------------------------------------------------------------------------------

	Writing optimization data to binary file.
	Structure for next step:
	Cartesian Geometry (in Angstrom)
	    C    -1.3028646096   0.7371910661  -0.5543160365
	    C    -0.3098889576   0.1211861860   1.5601783272
	    C    -2.3778667880   1.3086834250   0.1139137279
	    C    -1.3826826029   0.6913343602   2.2335248057
	    C     0.8278845280  -1.8002777329  -0.9128117760
	    C     1.9887482921   0.3025296081  -0.8458163066
	    C     1.9066848106  -2.3475584522  -1.5779825271
	    C     3.0450595586  -0.2860701827  -1.5117204183
	    C    -0.2632013061   0.1402569876   0.1636819262
	    C     0.8591325903  -0.4565364108  -0.5364518274
	    C    -2.4463537824   1.3010945676   1.5269778220
	    N     2.9730336907  -1.5811966646  -1.8554129811
	    O    -3.4330799292   1.8249242490   2.1431608518
	    H    -1.2796163636   0.7597586398  -1.6393210622
	    H     0.4908821352  -0.3390825195   2.1303312802
	    H    -3.1701439393   1.7635533265  -0.4676202088
	    H    -1.3928945282   0.6631305071   3.3157943899
	    H    -0.0313360409  -2.4171930498  -0.6895903363
	    H     2.0467246186   1.3461821009  -0.5689623725
	    H     1.9587611183  -3.3753214346  -1.9026621185
	    H     3.9507754855   0.2326399108  -1.7864163532
	    H     3.7573201817  -1.9986880254  -2.3435603521
			--------------------------
			 OPTKING Finished Execution 
			--------------------------

    Structure for next step:
    Molecular point group: c1
    Full point group: C1

    Geometry (in Angstrom), charge = 0, multiplicity = 1:

    C           -1.300734584952     0.736030461655    -0.555633582189
    C           -0.307758932884     0.120025581564     1.558860781497
    C           -2.375736763276     1.307522820528     0.112596182202
    C           -1.380552578254     0.690173755704     2.232207260071
    C            0.830014552715    -1.801438337382    -0.914129321637
    C            1.990878316754     0.301369003600    -0.847133852286
    C            1.908814835316    -2.348719056642    -1.579300072715
    C            3.047189583317    -0.287230787159    -1.513037963957
    C           -0.261071281388     0.139096383075     0.162364380500
    C            0.861262614990    -0.457697015245    -0.537769373082
    C           -2.444223757717     1.299933963114     1.525660276343
    N            2.975163715416    -1.582357269065    -1.856730526713
    O           -3.430949904555     1.823763644561     2.141843306192
    H           -1.277486338934     0.758598035303    -1.640638607872
    H            0.493012159827    -0.340243124015     2.129013734574
    H           -3.168013914586     1.762392722059    -0.468937754421
    H           -1.390764503571     0.661969902651     3.314476844201
    H           -0.029206016231    -2.418353654276    -0.690907881936
    H            2.048854643325     1.345021496371    -0.570279918134
    H            1.960891142984    -3.376482039073    -1.903979664164
    H            3.952905510154     0.231479306347    -1.787733898870
    H            3.759450206373    -1.999848629834    -2.344877897762

gradient() will perform analytic gradient computation.

*** tstart() called on gpu-1-14.local
*** at Sun Nov 12 17:16:36 2017

    SCF Algorithm Type (re)set to DF.

*** tstart() called on gpu-1-14.local
*** at Sun Nov 12 17:16:36 2017

   => Loading Basis Set <=

    Name: AUG-CC-PVTZ
    Role: ORBITAL
    Keyword: BASIS
    atoms 1-11  entry C          line   221 file /cbio/jclab/home/chayas/anaconda/envs/py35/share/psi4/basis/aug-cc-pvtz.gbs 
    atoms 12    entry N          line   267 file /cbio/jclab/home/chayas/anaconda/envs/py35/share/psi4/basis/aug-cc-pvtz.gbs 
    atoms 13    entry O          line   313 file /cbio/jclab/home/chayas/anaconda/envs/py35/share/psi4/basis/aug-cc-pvtz.gbs 
    atoms 14-22 entry H          line    34 file /cbio/jclab/home/chayas/anaconda/envs/py35/share/psi4/basis/aug-cc-pvtz.gbs 


         ---------------------------------------------------------
                                   SCF
            by Justin Turney, Rob Parrish, and Andy Simmonett
                              RHF Reference
                        8 Threads,   4768 MiB Core
         ---------------------------------------------------------

  ==> Geometry <==

    Molecular point group: c1
    Full point group: C1

    Geometry (in Angstrom), charge = 0, multiplicity = 1:

       Center              X                  Y                   Z               Mass       
    ------------   -----------------  -----------------  -----------------  -----------------
           C         -1.300734584952     0.736030461655    -0.555633582189    12.000000000000
           C         -0.307758932884     0.120025581564     1.558860781497    12.000000000000
           C         -2.375736763276     1.307522820528     0.112596182202    12.000000000000
           C         -1.380552578254     0.690173755704     2.232207260071    12.000000000000
           C          0.830014552715    -1.801438337382    -0.914129321637    12.000000000000
           C          1.990878316754     0.301369003600    -0.847133852286    12.000000000000
           C          1.908814835316    -2.348719056642    -1.579300072715    12.000000000000
           C          3.047189583317    -0.287230787159    -1.513037963957    12.000000000000
           C         -0.261071281388     0.139096383075     0.162364380500    12.000000000000
           C          0.861262614990    -0.457697015245    -0.537769373082    12.000000000000
           C         -2.444223757717     1.299933963114     1.525660276343    12.000000000000
           N          2.975163715416    -1.582357269065    -1.856730526713    14.003074004780
           O         -3.430949904555     1.823763644561     2.141843306192    15.994914619560
           H         -1.277486338934     0.758598035303    -1.640638607872     1.007825032070
           H          0.493012159827    -0.340243124015     2.129013734574     1.007825032070
           H         -3.168013914586     1.762392722059    -0.468937754421     1.007825032070
           H         -1.390764503571     0.661969902651     3.314476844201     1.007825032070
           H         -0.029206016231    -2.418353654276    -0.690907881936     1.007825032070
           H          2.048854643325     1.345021496371    -0.570279918134     1.007825032070
           H          1.960891142984    -3.376482039073    -1.903979664164     1.007825032070
           H          3.952905510154     0.231479306347    -1.787733898870     1.007825032070
           H          3.759450206373    -1.999848629834    -2.344877897762     1.007825032070

  Running in c1 symmetry.

  Rotational constants: A =      0.09644  B =      0.01284  C =      0.01281 [cm^-1]
  Rotational constants: A =   2891.20951  B =    384.98142  C =    384.06309 [MHz]
  Nuclear repulsion =  698.455488496297107

  Charge       = 0
  Multiplicity = 1
  Electrons    = 90
  Nalpha       = 45
  Nbeta        = 45

  ==> Algorithm <==

  SCF Algorithm Type is DF.
  DIIS enabled.
  MOM disabled.
  Fractional occupation disabled.
  Guess Type is READ.
  Energy threshold   = 1.00e-10
  Density threshold  = 1.00e-10
  Integral threshold = 0.00e+00

  ==> Primary Basis <==

  Basis Set: AUG-CC-PVTZ
    Blend: AUG-CC-PVTZ
    Number of shells: 263
    Number of basis function: 805
    Number of Cartesian functions: 940
    Spherical Harmonics?: true
    Max angular momentum: 3

   => Loading Basis Set <=

    Name: (AUG-CC-PVTZ AUX)
    Role: JKFIT
    Keyword: DF_BASIS_SCF
    atoms 1-11  entry C          line   161 file /cbio/jclab/home/chayas/anaconda/envs/py35/share/psi4/basis/aug-cc-pvtz-jkfit.gbs 
    atoms 12    entry N          line   223 file /cbio/jclab/home/chayas/anaconda/envs/py35/share/psi4/basis/aug-cc-pvtz-jkfit.gbs 
    atoms 13    entry O          line   285 file /cbio/jclab/home/chayas/anaconda/envs/py35/share/psi4/basis/aug-cc-pvtz-jkfit.gbs 
    atoms 14-22 entry H          line    69 file /cbio/jclab/home/chayas/anaconda/envs/py35/share/psi4/basis/aug-cc-pvtz-jkfit.gbs 

  Reading orbitals from file 180, no projection.

  ==> Pre-Iterations <==

   -------------------------------------------------------
    Irrep   Nso     Nmo     Nalpha   Nbeta   Ndocc  Nsocc
   -------------------------------------------------------
     A        805     805       0       0       0       0
   -------------------------------------------------------
    Total     805     805      45      45      45       0
   -------------------------------------------------------

  ==> Integral Setup <==

  ==> DFJK: Density-Fitted J/K Matrices <==

    J tasked:                  Yes
    K tasked:                  Yes
    wK tasked:                  No
    OpenMP threads:              8
    Integrals threads:           8
    Memory (MB):              3576
    Algorithm:                Disk
    Integral Cache:           NONE
    Schwarz Cutoff:          1E-12
    Fitting Condition:       1E-12

   => Auxiliary Basis Set <=

  Basis Set: (AUG-CC-PVTZ AUX)
    Blend: AUG-CC-PVTZ-JKFIT
    Number of shells: 516
    Number of basis function: 1766
    Number of Cartesian functions: 2198
    Spherical Harmonics?: true
    Max angular momentum: 4

  Minimum eigenvalue in the overlap matrix is 7.1957294108E-07.
  Using Symmetric Orthogonalization.

  SCF Guess: Orbitals guess was supplied from a previous computation.

  ==> Iterations <==

                           Total Energy        Delta E     RMS |[F,P]|

   @DF-RHF iter   0:  -551.25950144335468   -5.51260e+02   4.62743e-04 
   @DF-RHF iter   1:  -551.19106835367074    6.84331e-02   1.14165e-04 
   @DF-RHF iter   2:  -551.19131819748395   -2.49844e-04   8.83419e-05 DIIS
   @DF-RHF iter   3:  -551.19156714621010   -2.48949e-04   6.76092e-06 DIIS
   @DF-RHF iter   4:  -551.19157170906863   -4.56286e-06   3.32800e-06 DIIS
   @DF-RHF iter   5:  -551.19157314198299   -1.43291e-06   1.36664e-06 DIIS
   @DF-RHF iter   6:  -551.19157358281882   -4.40836e-07   7.79994e-07 DIIS
   @DF-RHF iter   7:  -551.19157370486653   -1.22048e-07   3.27882e-07 DIIS
   @DF-RHF iter   8:  -551.19157372935479   -2.44883e-08   1.34054e-07 DIIS
   @DF-RHF iter   9:  -551.19157373317967   -3.82488e-09   5.62747e-08 DIIS
   @DF-RHF iter  10:  -551.19157373364806   -4.68390e-10   1.93984e-08 DIIS
   @DF-RHF iter  11:  -551.19157373369342   -4.53610e-11   6.23221e-09 DIIS
   @DF-RHF iter  12:  -551.19157373371570   -2.22826e-11   1.65547e-09 DIIS
   @DF-RHF iter  13:  -551.19157373369444    2.12594e-11   1.09731e-09 DIIS
   @DF-RHF iter  14:  -551.19157373369887   -4.43379e-12   3.62146e-10 DIIS
   @DF-RHF iter  15:  -551.19157373370854   -9.66338e-12   1.02902e-10 DIIS
   @DF-RHF iter  16:  -551.19157373372218   -1.36424e-11   3.27917e-11 DIIS

  ==> Post-Iterations <==

    Orbital Energies (a.u.)
    -----------------------

    Doubly Occupied:                                                      

       1A    -20.390686     2A    -15.742158     3A    -11.385862  
       4A    -11.385828     5A    -11.333561     6A    -11.309487  
       7A    -11.309447     8A    -11.214920     9A    -11.207528  
      10A    -11.207499    11A    -11.190846    12A    -11.159606  
      13A    -11.159570    14A     -1.417767    15A     -1.221596  
      16A     -1.194532    17A     -1.141230    18A     -1.094708  
      19A     -0.991299    20A     -0.969595    21A     -0.964031  
      22A     -0.903983    23A     -0.868289    24A     -0.784385  
      25A     -0.774415    26A     -0.766840    27A     -0.730468  
      28A     -0.700738    29A     -0.696583    30A     -0.682306  
      31A     -0.622817    32A     -0.605411    33A     -0.595325  
      34A     -0.586605    35A     -0.542312    36A     -0.516443  
      37A     -0.477783    38A     -0.474005    39A     -0.453653  
      40A     -0.444914    41A     -0.441114    42A     -0.388244  
      43A     -0.305535    44A     -0.301295    45A     -0.210112  

    Virtual:                                                              

      46A     -0.020358    47A      0.001353    48A      0.003138  
      49A      0.016392    50A      0.025452    51A      0.033060  
      52A      0.035009    53A      0.038011    54A      0.049006  
      55A      0.049196    56A      0.057841    57A      0.066164  
      58A      0.069301    59A      0.072767    60A      0.073407  
      61A      0.080980    62A      0.086558    63A      0.094835  
      64A      0.098553    65A      0.105784    66A      0.106643  
      67A      0.121494    68A      0.122877    69A      0.126869  
      70A      0.126953    71A      0.128171    72A      0.129552  
      73A      0.129840    74A      0.131881    75A      0.149527  
      76A      0.156042    77A      0.157581    78A      0.159423  
      79A      0.160325    80A      0.164971    81A      0.170386  
      82A      0.177550    83A      0.183845    84A      0.184420  
      85A      0.190210    86A      0.190543    87A      0.193049  
      88A      0.194339    89A      0.199385    90A      0.206948  
      91A      0.209582    92A      0.209691    93A      0.209973  
      94A      0.222533    95A      0.222872    96A      0.239896  
      97A      0.242202    98A      0.242553    99A      0.245408  
     100A      0.245437   101A      0.245583   102A      0.260475  
     103A      0.260991   104A      0.261957   105A      0.267853  
     106A      0.270982   107A      0.277890   108A      0.282947  
     109A      0.290260   110A      0.296379   111A      0.297844  
     112A      0.298399   113A      0.308230   114A      0.313645  
     115A      0.320857   116A      0.321794   117A      0.322531  
     118A      0.322788   119A      0.331966   120A      0.337924  
     121A      0.338990   122A      0.339110   123A      0.349800  
     124A      0.355287   125A      0.357128   126A      0.357243  
     127A      0.359161   128A      0.361179   129A      0.371089  
     130A      0.376089   131A      0.379682   132A      0.383784  
     133A      0.387175   134A      0.392679   135A      0.394413  
     136A      0.403853   137A      0.405146   138A      0.406057  
     139A      0.412606   140A      0.415788   141A      0.418080  
     142A      0.427779   143A      0.431940   144A      0.435600  
     145A      0.441437   146A      0.449793   147A      0.451314  
     148A      0.452381   149A      0.458853   150A      0.461209  
     151A      0.463685   152A      0.476229   153A      0.477345  
     154A      0.478144   155A      0.479584   156A      0.485214  
     157A      0.488301   158A      0.489415   159A      0.492188  
     160A      0.499834   161A      0.502196   162A      0.502559  
     163A      0.514327   164A      0.514599   165A      0.524533  
     166A      0.526494   167A      0.528499   168A      0.534377  
     169A      0.534807   170A      0.541386   171A      0.548020  
     172A      0.549579   173A      0.552093   174A      0.557529  
     175A      0.562654   176A      0.566167   177A      0.571339  
     178A      0.590481   179A      0.591183   180A      0.597141  
     181A      0.599143   182A      0.603287   183A      0.604571  
     184A      0.606214   185A      0.607535   186A      0.608619  
     187A      0.612572   188A      0.622983   189A      0.632162  
     190A      0.639985   191A      0.642818   192A      0.651832  
     193A      0.666046   194A      0.672209   195A      0.672264  
     196A      0.674661   197A      0.678236   198A      0.690058  
     199A      0.691416   200A      0.692180   201A      0.695659  
     202A      0.713589   203A      0.718195   204A      0.718636  
     205A      0.726143   206A      0.734315   207A      0.737448  
     208A      0.738072   209A      0.743635   210A      0.752687  
     211A      0.760135   212A      0.762705   213A      0.766813  
     214A      0.770083   215A      0.777470   216A      0.780289  
     217A      0.785032   218A      0.792202   219A      0.796698  
     220A      0.804622   221A      0.811655   222A      0.814029  
     223A      0.826753   224A      0.835728   225A      0.841425  
     226A      0.851950   227A      0.854719   228A      0.858814  
     229A      0.859040   230A      0.864329   231A      0.868115  
     232A      0.872499   233A      0.877950   234A      0.892963  
     235A      0.899184   236A      0.905495   237A      0.908336  
     238A      0.909668   239A      0.909900   240A      0.924920  
     241A      0.925542   242A      0.931113   243A      0.935695  
     244A      0.935818   245A      0.941620   246A      0.944018  
     247A      0.952010   248A      0.956386   249A      0.959736  
     250A      0.960595   251A      0.967760   252A      0.975120  
     253A      0.978135   254A      0.982629   255A      0.987765  
     256A      0.995570   257A      0.997162   258A      0.999982  
     259A      1.006778   260A      1.010660   261A      1.012299  
     262A      1.015928   263A      1.020702   264A      1.031752  
     265A      1.037692   266A      1.048285   267A      1.052042  
     268A      1.058652   269A      1.060595   270A      1.066650  
     271A      1.069785   272A      1.071579   273A      1.075259  
     274A      1.077987   275A      1.081963   276A      1.083734  
     277A      1.083817   278A      1.091187   279A      1.097422  
     280A      1.102897   281A      1.108460   282A      1.111579  
     283A      1.113231   284A      1.122793   285A      1.122995  
     286A      1.128080   287A      1.130316   288A      1.136878  
     289A      1.142034   290A      1.165264   291A      1.168403  
     292A      1.169220   293A      1.173759   294A      1.175159  
     295A      1.180352   296A      1.182075   297A      1.192998  
     298A      1.203003   299A      1.209160   300A      1.210091  
     301A      1.210191   302A      1.212911   303A      1.222730  
     304A      1.226837   305A      1.233046   306A      1.236531  
     307A      1.238050   308A      1.250469   309A      1.256842  
     310A      1.258853   311A      1.260221   312A      1.260763  
     313A      1.280037   314A      1.286703   315A      1.287918  
     316A      1.296318   317A      1.303049   318A      1.303443  
     319A      1.305874   320A      1.325730   321A      1.327295  
     322A      1.330377   323A      1.331879   324A      1.346372  
[...]
	 B(1,9,10)        =         2.106703	     120.705185
	 B(2,4,11)        =         2.147982	     123.070292
	 B(2,4,17)        =         2.092056	     119.865974
	 B(2,9,10)        =         2.106723	     120.706309
	 B(3,1,9)         =         2.107214	     120.734473
	 B(3,1,14)        =         2.089146	     119.699233
	 B(3,11,4)        =         1.986208	     113.801310
	 B(3,11,13)       =         2.148491	     123.099464
	 B(4,2,9)         =         2.107218	     120.734713
	 B(4,2,15)        =         2.089149	     119.699426
	 B(4,11,13)       =         2.148486	     123.099178
	 B(5,7,12)        =         2.078192	     119.071654
	 B(5,7,20)        =         2.169528	     124.304822
	 B(5,10,6)        =         2.038971	     116.824448
	 B(5,10,9)        =         2.122070	     121.585679
	 B(6,8,12)        =         2.078188	     119.071410
	 B(6,8,21)        =         2.169532	     124.305027
	 B(6,10,9)        =         2.122143	     121.589816
	 B(7,5,10)        =         2.112757	     121.052074
	 B(7,5,18)        =         2.091389	     119.827782
	 B(7,12,8)        =         2.145497	     122.927946
	 B(7,12,22)       =         2.068842	     118.535915
	 B(8,6,10)        =         2.112764	     121.052456
	 B(8,6,19)        =         2.091383	     119.827439
	 B(8,12,22)       =         2.068846	     118.536138
	 B(9,1,14)        =         2.086826	     119.566294
	 B(9,2,15)        =         2.086818	     119.565856
	 B(10,5,18)       =         2.079039	     119.120144
	 B(10,6,19)       =         2.079038	     119.120103
	 B(11,3,16)       =         2.043154	     117.064102
	 B(11,4,17)       =         2.043148	     117.063733
	 B(12,7,20)       =         2.035464	     116.623523
	 B(12,8,21)       =         2.035465	     116.623562
	 D(1,3,11,4)      =         0.000308	       0.017650
	 D(1,3,11,13)     =         3.140555	     179.940563
	 D(1,9,2,4)       =        -0.000971	      -0.055634
	 D(1,9,2,15)      =         3.141097	     179.971595
	 D(1,9,10,5)      =        -1.570954	     -90.009021
	 D(1,9,10,6)      =         1.569073	      89.901267
	 D(2,4,11,3)      =        -0.000668	      -0.038277
	 D(2,4,11,13)     =        -3.140915	    -179.961190
	 D(2,9,1,3)       =         0.000620	       0.035512
	 D(2,9,1,14)      =        -3.140912	    -179.961021
	 D(2,9,10,5)      =         1.568390	      89.862138
	 D(2,9,10,6)      =        -1.574768	     -90.227573
	 D(3,1,9,10)      =         3.140011	     179.909354
	 D(3,11,4,17)     =         3.141113	     179.972536
	 D(4,2,9,10)      =        -3.140362	    -179.929475
	 D(4,11,3,16)     =        -3.141482	    -179.993645
	 D(5,7,12,8)      =        -0.000217	      -0.012414
	 D(5,7,12,22)     =        -3.141556	    -179.997906
	 D(5,10,6,8)      =        -0.000618	      -0.035436
	 D(5,10,6,19)     =         3.141170	     179.975790
	 D(6,8,12,7)      =         0.000249	       0.014269
	 D(6,8,12,22)     =         3.141593	     180.000000
	 D(6,10,5,7)      =         0.000651	       0.037307
	 D(6,10,5,18)     =        -3.140968	    -179.964235
	 D(7,5,10,9)      =         3.140749	     179.951675
	 D(7,12,8,21)     =        -3.141496	    -179.994454
	 D(8,6,10,9)      =        -3.140716	    -179.949799
	 D(8,12,7,20)     =         3.141149	     179.974588
	 D(9,1,3,11)      =        -0.000312	      -0.017889
	 D(9,1,3,16)      =         3.141483	     179.993709
	 D(9,2,4,11)      =         0.001033	       0.059194
	 D(9,2,4,17)      =        -3.140753	    -179.951910
	 D(9,10,5,18)     =        -0.000870	      -0.049868
	 D(9,10,6,19)     =         0.001072	       0.061426
	 D(10,5,7,12)     =        -0.000254	      -0.014546
	 D(10,5,7,20)     =         3.141593	     180.000000
	 D(10,6,8,12)     =         0.000189	       0.010812
	 D(10,6,8,21)     =        -3.141239	    -179.979748
	 D(10,9,1,14)     =        -0.001522	      -0.087179
	 D(10,9,2,15)     =         0.001706	       0.097755
	 D(11,3,1,14)     =         3.141220	     179.978639
	 D(11,4,2,15)     =        -3.141035	    -179.968072
	 D(12,7,5,18)     =         3.141366	     179.987008
	 D(12,8,6,19)     =         3.141593	     180.000000
	 D(13,11,3,16)    =        -0.001235	      -0.070732
	 D(13,11,4,17)    =         0.000866	       0.049623
	 D(14,1,3,16)     =        -0.000170	      -0.009763
	 D(15,2,4,17)     =         0.000363	       0.020824
	 D(18,5,7,20)     =         0.000019	       0.001074
	 D(19,6,8,21)     =         0.000156	       0.008948
	 D(20,7,12,22)    =        -0.000190	      -0.010904
	 D(21,8,12,22)    =        -0.000156	      -0.008962

	Current energy   :      -553.6318818626

	Energy change for the previous step:
		Projected    :        -0.0000031672
		Actual       :        -0.0000004652

	Performing BFGS update.
	Previous computed or guess Hessian on step 1.
	Steps to be used in Hessian update: 5 4
	Adding user-defined constraint: Fragment 1; Coordinate 64:
		Value =    -1.570954; Fixed value    =    -1.570800
		Force =     0.000096; Force constant =     0.625000
	Removing off-diagonal coupling between coordinate 64 and others.
	Taking RFO optimization step.
	Going to follow RFO solution 1.
	Using RFO vector 1.
	Norm of target step-size    0.00961
	Projected energy change by RFO approximation:        -0.0000016297

	Back-transformation to cartesian coordinates...
	Could not converge backtransformation.
	Using first guess instead.

	--- Internal Coordinate Step in ANG or DEG, aJ/ANG or AJ/DEG ---
	 ---------------------------------------------------------------------------
	   Coordinate                Previous        Force       Change         New 
	   ----------                --------       ------       ------       ------
	    1 R(1,3)          =      1.377680     0.000006    -0.000070     1.377611
	    2 R(1,9)          =      1.401303    -0.000374     0.000028     1.401331
	    3 R(1,14)         =      1.083931    -0.000075    -0.000007     1.083924
	    4 R(2,4)          =      1.377681    -0.000005    -0.000066     1.377615
	    5 R(2,9)          =      1.401311    -0.000393     0.000015     1.401326
	    6 R(2,15)         =      1.083929    -0.000080    -0.000011     1.083918
	    7 R(3,11)         =      1.439059    -0.000229    -0.000087     1.438972
	    8 R(3,16)         =      1.080928    -0.000355    -0.000077     1.080852
	    9 R(4,11)         =      1.439061    -0.000222    -0.000091     1.438971
	   10 R(4,17)         =      1.080927    -0.000346    -0.000074     1.080853
	   11 R(5,7)          =      1.374900    -0.000111     0.000030     1.374930
	   12 R(5,10)         =      1.401035    -0.000051     0.000052     1.401086
	   13 R(5,18)         =      1.078261    -0.000222    -0.000036     1.078224
	   14 R(6,8)          =      1.374902    -0.000091     0.000031     1.374933
	   15 R(6,10)         =      1.401030    -0.000075     0.000057     1.401087
	   16 R(6,19)         =      1.078259    -0.000212    -0.000039     1.078220
	   17 R(7,12)         =      1.343863    -0.000042    -0.000056     1.343807
	   18 R(7,20)         =      1.077215    -0.000032    -0.000003     1.077212
	   19 R(8,12)         =      1.343857    -0.000047    -0.000061     1.343796
	   20 R(8,21)         =      1.077215    -0.000040    -0.000003     1.077212
	   21 R(9,10)         =      1.446589     0.000634    -0.000044     1.446545
	   22 R(11,13)        =      1.254832    -0.000045     0.000075     1.254907
	   23 R(12,22)        =      1.010017    -0.000224    -0.000010     1.010008
	   24 B(1,3,11)       =    123.070801    -0.000000    -0.016309   123.054492
	   25 B(1,3,16)       =    119.865096     0.000000     0.042779   119.907875
	   26 B(1,9,2)        =    118.588384     0.000000    -0.003933   118.584451
	   27 B(1,9,10)       =    120.705185    -0.000002    -0.006290   120.698895
	   28 B(2,4,11)       =    123.070292    -0.000000    -0.016346   123.053946
	   29 B(2,4,17)       =    119.865974     0.000000     0.042228   119.908202
	   30 B(2,9,10)       =    120.706309     0.000002     0.009589   120.715898
	   31 B(3,1,9)        =    120.734473     0.000000     0.005918   120.740391
	   32 B(3,1,14)       =    119.699233     0.000001     0.022808   119.722041
	   33 B(3,11,4)       =    113.801310    -0.000000     0.024424   113.825734
	   34 B(3,11,13)      =    123.099464     0.000000    -0.012610   123.086853
	   35 B(4,2,9)        =    120.734713     0.000000     0.006132   120.740845
	   36 B(4,2,15)       =    119.699426     0.000001     0.021892   119.721318
	   37 B(4,11,13)      =    123.099178     0.000000    -0.011770   123.087408
	   38 B(5,7,12)       =    119.071654     0.000000     0.006362   119.078016
	   39 B(5,7,20)       =    124.304822     0.000000    -0.004229   124.300594
	   40 B(5,10,6)       =    116.824448    -0.000001    -0.011386   116.813062
	   41 B(5,10,9)       =    121.585679     0.000000     0.003606   121.589285
	   42 B(6,8,12)       =    119.071410     0.000000     0.005891   119.077301
	   43 B(6,8,21)       =    124.305027     0.000000    -0.003752   124.301275
	   44 B(6,10,9)       =    121.589816     0.000001     0.007502   121.597318
	   45 B(7,5,10)       =    121.052074     0.000001     0.002839   121.054913
	   46 B(7,5,18)       =    119.827782    -0.000000     0.007008   119.834790
	   47 B(7,12,8)       =    122.927946    -0.000001    -0.006985   122.920961
	   48 B(7,12,22)      =    118.535915     0.000000     0.003537   118.539451
	   49 B(8,6,10)       =    121.052456     0.000001     0.003234   121.055690
	   50 B(8,6,19)       =    119.827439    -0.000000     0.007996   119.835435
	   51 B(8,12,22)      =    118.536138     0.000000     0.003440   118.539578
	   52 B(9,1,14)       =    119.566294    -0.000002    -0.028727   119.537567
	   53 B(9,2,15)       =    119.565856    -0.000002    -0.028047   119.537809
	   54 B(10,5,18)      =    119.120144    -0.000001    -0.009847   119.110297
	   55 B(10,6,19)      =    119.120103    -0.000001    -0.011231   119.108872
	   56 B(11,3,16)      =    117.064102    -0.000000    -0.026471   117.037631
	   57 B(11,4,17)      =    117.063733    -0.000000    -0.025883   117.037851
	   58 B(12,7,20)      =    116.623523    -0.000000    -0.002139   116.621383
	   59 B(12,8,21)      =    116.623562    -0.000001    -0.002144   116.621418
	   60 D(1,3,11,4)     =      0.017650    -0.000001    -0.048605    -0.030955
	   61 D(1,3,11,13)    =    179.940563     0.000001     0.004895   179.945458
	   62 D(1,9,2,4)      =     -0.055634    -0.000000    -0.090508    -0.146142
	   63 D(1,9,2,15)     =    179.971595    -0.000000    -0.057102   179.914493
	   64 D(1,9,10,5)     =    -90.009021    -0.000001    -0.007962   -90.016983
	   65 D(1,9,10,6)     =     89.901267    -0.000001    -0.135483    89.765784
	   66 D(2,4,11,3)     =     -0.038277     0.000000     0.020685    -0.017592
	   67 D(2,4,11,13)    =   -179.961190    -0.000001    -0.032815  -179.994005
	   68 D(2,9,1,3)      =      0.035512     0.000000     0.063257     0.098769
	   69 D(2,9,1,14)     =   -179.961021     0.000000     0.069371  -179.891650
	   70 D(2,9,10,5)     =     89.862138    -0.000001    -0.199941    89.662197
	   71 D(2,9,10,6)     =    -90.227573    -0.000001    -0.327463   -90.555036
	   72 D(3,1,9,10)     =    179.909354    -0.000000    -0.124682   179.784672
	   73 D(3,11,4,17)    =    179.972536     0.000000     0.023263   179.995800
	   74 D(4,2,9,10)     =   -179.929475     0.000000     0.097484  -179.831990
	   75 D(4,11,3,16)    =   -179.993645    -0.000001    -0.051274  -180.044919
	   76 D(5,7,12,8)     =     -0.012414     0.000000    -0.017234    -0.029649
	   77 D(5,7,12,22)    =   -179.997906     0.000000     0.003824  -179.994082
	   78 D(5,10,6,8)     =     -0.035436     0.000000    -0.038249    -0.073685
	   79 D(5,10,6,19)    =    179.975790     0.000000    -0.030537   179.945253
	   80 D(6,8,12,7)     =      0.014269    -0.000000     0.023296     0.037565
	   81 D(6,8,12,22)    =    180.000000    -0.000000     0.001998   180.001998
	   82 D(6,10,5,7)     =      0.037307    -0.000000     0.044366     0.081674
	   83 D(6,10,5,18)    =   -179.964235     0.000000     0.041467  -179.922769
	   84 D(7,5,10,9)     =    179.951675    -0.000000    -0.077320   179.874355
	   85 D(7,12,8,21)    =   -179.994454    -0.000000     0.006221  -179.988233
	   86 D(8,6,10,9)     =   -179.949799     0.000000     0.083451  -179.866348
	   87 D(8,12,7,20)    =    179.974588    -0.000000    -0.033962   179.940626
	   88 D(9,1,3,11)     =     -0.017889     0.000000     0.007613    -0.010276
	   89 D(9,1,3,16)     =    179.993709     0.000000     0.010363   180.004072
	   90 D(9,2,4,11)     =      0.059194    -0.000000     0.048301     0.107495
	   91 D(9,2,4,17)     =   -179.951910    -0.000000     0.045645  -179.906265
	   92 D(9,10,5,18)    =     -0.049868    -0.000000    -0.080220    -0.130088
	   93 D(9,10,6,19)    =      0.061426     0.000000     0.091163     0.152590
	   94 D(10,5,7,12)    =     -0.014546    -0.000000    -0.018064    -0.032610
	   95 D(10,5,7,20)    =    180.000000     0.000000     0.000000   180.000000
	   96 D(10,6,8,12)    =      0.010812     0.000000     0.005859     0.016670
	   97 D(10,6,8,21)    =   -179.979748     0.000000     0.024337  -179.955411
	   98 D(10,9,1,14)    =     -0.087179    -0.000000    -0.118568    -0.205747
	   99 D(10,9,2,15)    =      0.097755     0.000000     0.130890     0.228645
	  100 D(11,3,1,14)    =    179.978639     0.000000     0.001487   179.980126
	  101 D(11,4,2,15)    =   -179.968072    -0.000000     0.014820  -179.953251
	  102 D(12,7,5,18)    =    179.987008    -0.000000    -0.015144   179.971864
	  103 D(12,8,6,19)    =    180.000000     0.000000    -0.002403   179.997597
	  104 D(13,11,3,16)   =     -0.070732     0.000001     0.002227    -0.068506
	  105 D(13,11,4,17)   =      0.049623    -0.000001    -0.030236     0.019387
	  106 D(14,1,3,16)    =     -0.009763     0.000000     0.004236    -0.005526
	  107 D(15,2,4,17)    =      0.020824    -0.000000     0.012164     0.032988
	  108 D(18,5,7,20)    =      0.001074     0.000000     0.002958     0.004032
	  109 D(19,6,8,21)    =      0.008948     0.000000     0.016567     0.025515
	  110 D(20,7,12,22)   =     -0.010904    -0.000000    -0.012903    -0.023806
	  111 D(21,8,12,22)   =     -0.008962    -0.000000    -0.014838    -0.023800
	 ---------------------------------------------------------------------------
	Successfully symmetrized geometry.
	 Forces used to impose fixed constraints are not included.
	  Forces zeroed: 64 

  ==> Convergence Check <==

  Measures of convergence in internal coordinates in au.
  Criteria marked as inactive (o), active & met (*), and active & unmet ( ).
  ---------------------------------------------------------------------------------------------
   Step     Total Energy     Delta E     MAX Force     RMS Force      MAX Disp      RMS Disp   
  ---------------------------------------------------------------------------------------------
    Convergence Criteria    1.00e-06 *    3.00e-04 *             o    1.20e-03 *             o
  ---------------------------------------------------------------------------------------------
      6    -553.63188186   -4.65e-07 *    7.69e-05 *    2.03e-05 o    5.72e-03      9.13e-04 o  ~
  ---------------------------------------------------------------------------------------------


  **** Optimization is complete! (in 6 steps) ****

  ==> Optimization Summary <==

  Measures of convergence in internal coordinates in au.
  --------------------------------------------------------------------------------------------------------------- ~
   Step         Total Energy             Delta E       MAX Force       RMS Force        MAX Disp        RMS Disp  ~
  --------------------------------------------------------------------------------------------------------------- ~
      1    -553.623974717198   -553.623974717198      0.02816032      0.00604685      0.04028834      0.00949138  ~
      2    -553.628868877984     -0.004894160786      0.01388229      0.00350695      0.04087350      0.00949198  ~
      3    -553.631371948026     -0.002503070042      0.00555298      0.00135718      0.02786329      0.00684359  ~
      4    -553.631877846158     -0.000505898131      0.00074465      0.00013164      0.00198938      0.00055749  ~
      5    -553.631881397410     -0.000003551252      0.00010386      0.00002995      0.00211192      0.00053332  ~
      6    -553.631881862566     -0.000000465156      0.00007690      0.00002073      0.00571530      0.00091260  ~
  --------------------------------------------------------------------------------------------------------------- ~

	Writing optimization data to binary file.
	Final energy is   -553.6318818625659
	Final (previous) structure:
	Cartesian Geometry (in Angstrom)
	    C    -1.3047889874   0.7398152935  -0.5482285504
	    C    -0.3165863585   0.1237864544   1.5614077041
	    C    -2.3711424212   1.3055830708   0.1156994837
	    C    -1.3821715139   0.6895644222   2.2265604401
	    C     0.8522344506  -1.8037055573  -0.9234316134
	    C     2.0050230782   0.2853750666  -0.8590271932
	    C     1.9209778290  -2.3583071722  -1.5871748801
	    C     3.0613401071  -0.2917111467  -1.5234986792
	    C    -0.2568015284   0.1383743722   0.1614488203
	    C     0.8616348141  -0.4572251505  -0.5363908934
	    C    -2.4848667429   1.3200230944   1.5501855455
	    N     2.9873578813  -1.5892600025  -1.8653248678
	    O    -3.4553487922   1.8361349259   2.1554926566
	    H    -1.2750470038   0.7594735586  -1.6315735611
	    H     0.4852694647  -0.3376727121   2.1261947846
	    H    -3.1719131753   1.7659047586  -0.4457946621
	    H    -1.4135705698   0.6710698789   3.3068725645
	    H    -0.0097760808  -2.4095557930  -0.6942383205
	    H     2.0514399334   1.3255810001  -0.5789207217
	    H     1.9694706697  -3.3853220082  -1.9085496357
	    H     3.9639532077   0.2288051811  -1.7968946447
	    H     3.7679283699  -2.0049519897  -2.3532235234
	Saving final (previous) structure.
			--------------------------
			 OPTKING Finished Execution 
			--------------------------

    Final optimized geometry and variables:
    Molecular point group: c1
    Full point group: C1

    Geometry (in Angstrom), charge = 0, multiplicity = 1:

    C           -1.304788987428     0.739815293474    -0.548228550419
    C           -0.316586358491     0.123786454381     1.561407704083
    C           -2.371142421212     1.305583070834     0.115699483733
    C           -1.382171513877     0.689564422237     2.226560440106
    C            0.852234450551    -1.803705557264    -0.923431613423
    C            2.005023078159     0.285375066600    -0.859027193154
    C            1.920977828991    -2.358307172181    -1.587174880079
    C            3.061340107143    -0.291711146680    -1.523498679201
    C           -0.256801528360     0.138374372168     0.161448820279
    C            0.861634814089    -0.457225150509    -0.536390893399
    C           -2.484866742936     1.320023094404     1.550185545491
    N            2.987357881337    -1.589260002484    -1.865324867761
    O           -3.455348792182     1.836134925947     2.155492656582
    H           -1.275047003805     0.759473558571    -1.631573561078
    H            0.485269464663    -0.337672712113     2.126194784604
    H           -3.171913175335     1.765904758561    -0.445794662076
    H           -1.413570569819     0.671069878914     3.306872564460
    H           -0.009776080817    -2.409555792967    -0.694238320494
    H            2.051439933369     1.325581000069    -0.578920721703
    H            1.969470669688    -3.385322008170    -1.908549635728
    H            3.963953207663     0.228805181086    -1.796894644725
    H            3.767928369857    -2.004951989702    -2.353223523436

	Cleaning optimization helper files.

*** Psi4 exiting successfully. Buy a developer a beer!
