
    -----------------------------------------------------------------------
          Psi4: An Open-Source Ab Initio Electronic Structure Package
                               Psi4 1.1 release

                         Git: Rev {HEAD} add49b9 


    R. M. Parrish, L. A. Burns, D. G. A. Smith, A. C. Simmonett,
    A. E. DePrince III, E. G. Hohenstein, U. Bozkaya, A. Yu. Sokolov,
    R. Di Remigio, R. M. Richard, J. F. Gonthier, A. M. James,
    H. R. McAlexander, A. Kumar, M. Saitow, X. Wang, B. P. Pritchard,
    P. Verma, H. F. Schaefer III, K. Patkowski, R. A. King, E. F. Valeev,
    F. A. Evangelista, J. M. Turney, T. D. Crawford, and C. D. Sherrill,
    J. Chem. Theory Comput. in press (2017).
    (doi: 10.1021/acs.jctc.7b00174)

    -----------------------------------------------------------------------


    Psi4 started on: Sunday, 12 November 2017 07:08AM

    Process ID:  19689
    PSIDATADIR: /cbio/jclab/home/chayas/anaconda/envs/py35/share/psi4
    Memory:     500.0 MiB
    Threads:    8
    
  ==> Input File <==

--------------------------------------------------------------------------

memory 5 Gb

molecule phepyrOH_cation {
  symmetry C1
  1 1 
  C      1.885   -1.036   -0.112
  C      2.878   -1.652   2.002
  C      0.807   -0.463   0.561
  C      1.800   -1.079   2.676
  C      4.251   -1.942   -1.436
  C      4.906   -3.082   0.583
  C      5.332   -2.527   -2.080
  C      5.970   -3.638   -0.113
  C      2.921   -1.631   0.608
  C      4.040   -2.225   -0.090
  C      0.764   -0.484   1.955
  N      6.150   -3.348   -1.409
  O      -0.288   0.076   2.612
  H      1.904   -1.012   -1.199
  H      3.678   -2.112   2.578
  H      0.003   -0.001   -0.006
  H      1.772   -1.098   3.762
  H      3.591   -1.277   -1.986
  H      4.765   -3.321   1.633
  H      5.573   -2.364   -3.122
  H      6.692   -4.311   0.328
  H      6.938   -3.768   -1.901
  H      -0.175   -0.018   3.571
  units Angstrom
}

dih_string = "1 9 10 5 15"
set optking fixed_dihedral = $dih_string

optimize('MP2/aug-cc-PVTZ')
--------------------------------------------------------------------------

  Memory set to   4.657 GiB by Python driver.
gradient() will perform analytic gradient computation.

*** tstart() called on gpu-2-12.local
*** at Sun Nov 12 07:08:24 2017

    SCF Algorithm Type (re)set to DF.

*** tstart() called on gpu-2-12.local
*** at Sun Nov 12 07:08:24 2017

   => Loading Basis Set <=

    Name: AUG-CC-PVTZ
    Role: ORBITAL
    Keyword: BASIS
    atoms 1-11  entry C          line   221 file /cbio/jclab/home/chayas/anaconda/envs/py35/share/psi4/basis/aug-cc-pvtz.gbs 
    atoms 12    entry N          line   267 file /cbio/jclab/home/chayas/anaconda/envs/py35/share/psi4/basis/aug-cc-pvtz.gbs 
    atoms 13    entry O          line   313 file /cbio/jclab/home/chayas/anaconda/envs/py35/share/psi4/basis/aug-cc-pvtz.gbs 
    atoms 14-23 entry H          line    34 file /cbio/jclab/home/chayas/anaconda/envs/py35/share/psi4/basis/aug-cc-pvtz.gbs 


         ---------------------------------------------------------
                                   SCF
            by Justin Turney, Rob Parrish, and Andy Simmonett
                              RHF Reference
                        8 Threads,   4768 MiB Core
         ---------------------------------------------------------

  ==> Geometry <==

    Molecular point group: c1
    Full point group: C1

    Geometry (in Angstrom), charge = 1, multiplicity = 1:

       Center              X                  Y                   Z               Mass       
    ------------   -----------------  -----------------  -----------------  -----------------
           C         -1.271584677165     0.720242246914    -0.579136021648    12.000000000000
           C         -0.278584677165     0.104242246914     1.534863978352    12.000000000000
           C         -2.349584677165     1.293242246914     0.093863978352    12.000000000000
           C         -1.356584677165     0.677242246914     2.208863978352    12.000000000000
           C          1.094415322835    -0.185757753086    -1.903136021648    12.000000000000
           C          1.749415322835    -1.325757753086     0.115863978352    12.000000000000
           C          2.175415322835    -0.770757753086    -2.547136021648    12.000000000000
           C          2.813415322835    -1.881757753086    -0.580136021648    12.000000000000
           C         -0.235584677165     0.125242246914     0.140863978352    12.000000000000
           C          0.883415322835    -0.468757753086    -0.557136021648    12.000000000000
           C         -2.392584677165     1.272242246914     1.487863978352    12.000000000000
           N          2.993415322835    -1.591757753086    -1.876136021648    14.003074004780
           O         -3.444584677165     1.832242246914     2.144863978352    15.994914619560
           H         -1.252584677165     0.744242246914    -1.666136021648     1.007825032070
           H          0.521415322835    -0.355757753086     2.110863978352     1.007825032070
           H         -3.153584677165     1.755242246914    -0.473136021648     1.007825032070
           H         -1.384584677165     0.658242246914     3.294863978352     1.007825032070
           H          0.434415322835     0.479242246914    -2.453136021648     1.007825032070
           H          1.608415322835    -1.564757753086     1.165863978352     1.007825032070
           H          2.416415322835    -0.607757753086    -3.589136021648     1.007825032070
           H          3.535415322835    -2.554757753086    -0.139136021648     1.007825032070
           H          3.781415322835    -2.011757753086    -2.368136021648     1.007825032070
           H         -3.331584677165     1.738242246914     3.103863978352     1.007825032070

  Running in c1 symmetry.

  Rotational constants: A =      0.09611  B =      0.01345  C =      0.01185 [cm^-1]
  Rotational constants: A =   2881.23015  B =    403.20637  C =    355.19818 [MHz]
  Nuclear repulsion =  713.650009904573153

  Charge       = 1
  Multiplicity = 1
  Electrons    = 90
  Nalpha       = 45
  Nbeta        = 45

  ==> Algorithm <==

  SCF Algorithm Type is DF.
  DIIS enabled.
  MOM disabled.
  Fractional occupation disabled.
  Guess Type is SAD.
  Energy threshold   = 1.00e-10
  Density threshold  = 1.00e-10
  Integral threshold = 0.00e+00

  ==> Primary Basis <==

  Basis Set: AUG-CC-PVTZ
    Blend: AUG-CC-PVTZ
    Number of shells: 272
    Number of basis function: 828
    Number of Cartesian functions: 965
    Spherical Harmonics?: true
    Max angular momentum: 3

   => Loading Basis Set <=

    Name: (AUG-CC-PVTZ AUX)
    Role: JKFIT
    Keyword: DF_BASIS_SCF
    atoms 1-11  entry C          line   161 file /cbio/jclab/home/chayas/anaconda/envs/py35/share/psi4/basis/aug-cc-pvtz-jkfit.gbs 
    atoms 12    entry N          line   223 file /cbio/jclab/home/chayas/anaconda/envs/py35/share/psi4/basis/aug-cc-pvtz-jkfit.gbs 
    atoms 13    entry O          line   285 file /cbio/jclab/home/chayas/anaconda/envs/py35/share/psi4/basis/aug-cc-pvtz-jkfit.gbs 
    atoms 14-23 entry H          line    69 file /cbio/jclab/home/chayas/anaconda/envs/py35/share/psi4/basis/aug-cc-pvtz-jkfit.gbs 

  ==> Pre-Iterations <==

   -------------------------------------------------------
    Irrep   Nso     Nmo     Nalpha   Nbeta   Ndocc  Nsocc
   -------------------------------------------------------
     A        828     828       0       0       0       0
   -------------------------------------------------------
    Total     828     828      45      45      45       0
   -------------------------------------------------------

  ==> Integral Setup <==

  ==> DFJK: Density-Fitted J/K Matrices <==

    J tasked:                  Yes
    K tasked:                  Yes
    wK tasked:                  No
    OpenMP threads:              8
    Integrals threads:           8
    Memory (MB):              3576
    Algorithm:                Disk
    Integral Cache:           NONE
    Schwarz Cutoff:          1E-12
    Fitting Condition:       1E-12

   => Auxiliary Basis Set <=

  Basis Set: (AUG-CC-PVTZ AUX)
    Blend: AUG-CC-PVTZ-JKFIT
    Number of shells: 530
    Number of basis function: 1812
    Number of Cartesian functions: 2253
    Spherical Harmonics?: true
    Max angular momentum: 4

  Minimum eigenvalue in the overlap matrix is 5.0157827429E-07.
  Using Symmetric Orthogonalization.

  SCF Guess: Superposition of Atomic Densities via on-the-fly atomic UHF.

  ==> Iterations <==

                           Total Energy        Delta E     RMS |[F,P]|

   @DF-RHF iter   0:  -554.36715293448867   -5.54367e+02   1.98044e-02 
   @DF-RHF iter   1:  -551.24420574985413    3.12295e+00   2.07112e-03 
   @DF-RHF iter   2:  -551.58796696552611   -3.43761e-01   9.25788e-04 DIIS
   @DF-RHF iter   3:  -551.65281502901405   -6.48481e-02   4.27739e-04 DIIS
   @DF-RHF iter   4:  -551.67046332089103   -1.76483e-02   1.59811e-04 DIIS
   @DF-RHF iter   5:  -551.67307906656151   -2.61575e-03   5.01876e-05 DIIS
   @DF-RHF iter   6:  -551.67351205374757   -4.32987e-04   1.73982e-05 DIIS
   @DF-RHF iter   7:  -551.67355844919439   -4.63954e-05   6.24686e-06 DIIS
   @DF-RHF iter   8:  -551.67356357489939   -5.12571e-06   2.08205e-06 DIIS
   @DF-RHF iter   9:  -551.67356463986846   -1.06497e-06   1.21412e-06 DIIS
   @DF-RHF iter  10:  -551.67356499822131   -3.58353e-07   3.61975e-07 DIIS
   @DF-RHF iter  11:  -551.67356508473063   -8.65093e-08   1.85806e-07 DIIS
   @DF-RHF iter  12:  -551.67356509635181   -1.16212e-08   6.68118e-08 DIIS
   @DF-RHF iter  13:  -551.67356509774436   -1.39255e-09   3.51592e-08 DIIS
   @DF-RHF iter  14:  -551.67356509798515   -2.40789e-10   1.20603e-08 DIIS
   @DF-RHF iter  15:  -551.67356509801300   -2.78533e-11   5.42351e-09 DIIS
   @DF-RHF iter  16:  -551.67356509803290   -1.98952e-11   3.06284e-09 DIIS
   @DF-RHF iter  17:  -551.67356509803881   -5.91172e-12   1.07920e-09 DIIS
   @DF-RHF iter  18:  -551.67356509803790    9.09495e-13   4.92193e-10 DIIS
   @DF-RHF iter  19:  -551.67356509802971    8.18545e-12   1.87189e-10 DIIS
   @DF-RHF iter  20:  -551.67356509802983   -1.13687e-13   7.01677e-11 DIIS

  ==> Post-Iterations <==

    Orbital Energies (a.u.)
    -----------------------

    Doubly Occupied:                                                      

       1A    -20.706396     2A    -15.829239     3A    -11.481812  
       4A    -11.481780     5A    -11.445184     6A    -11.438059  
       7A    -11.412138     8A    -11.411824     9A    -11.383048  
      10A    -11.381212    11A    -11.372575    12A    -11.359887  
      13A    -11.356221    14A     -1.521079    15A     -1.508255  
      16A     -1.321240    17A     -1.264741    18A     -1.234905  
      19A     -1.155747    20A     -1.154283    21A     -1.067602  
      22A     -1.053806    23A     -0.978135    24A     -0.960025  
      25A     -0.951826    26A     -0.871711    27A     -0.860046  
      28A     -0.854631    29A     -0.822791    30A     -0.797897  
      31A     -0.777716    32A     -0.772856    33A     -0.759976  
      34A     -0.736663    35A     -0.718248    36A     -0.707242  
      37A     -0.703772    38A     -0.683730    39A     -0.656030  
      40A     -0.644947    41A     -0.621583    42A     -0.569568  
      43A     -0.536266    44A     -0.472100    45A     -0.437839  

    Virtual:                                                              

      46A     -0.106015    47A     -0.083507    48A     -0.064573  
      49A     -0.062737    50A     -0.059513    51A     -0.046404  
      52A     -0.044279    53A     -0.039605    54A     -0.031902  
      55A     -0.026183    56A     -0.025286    57A     -0.022311  
      58A     -0.017964    59A     -0.008120    60A     -0.006836  
      61A     -0.001078    62A      0.005045    63A      0.006118  
      64A      0.008960    65A      0.017440    66A      0.019229  
      67A      0.021451    68A      0.024803    69A      0.025914  
      70A      0.030380    71A      0.032449    72A      0.034673  
      73A      0.036553    74A      0.040154    75A      0.048679  
      76A      0.049894    77A      0.056370    78A      0.059624  
      79A      0.063664    80A      0.065810    81A      0.070414  
      82A      0.073872    83A      0.076669    84A      0.078773  
      85A      0.084947    86A      0.086354    87A      0.087226  
      88A      0.096448    89A      0.101270    90A      0.105829  
      91A      0.108071    92A      0.114398    93A      0.120217  
      94A      0.126482    95A      0.129797    96A      0.133468  
      97A      0.135025    98A      0.137102    99A      0.142500  
     100A      0.146026   101A      0.150321   102A      0.155249  
     103A      0.159724   104A      0.163470   105A      0.165175  
     106A      0.169740   107A      0.171409   108A      0.174715  
     109A      0.179788   110A      0.183943   111A      0.188467  
     112A      0.190359   113A      0.196551   114A      0.198479  
     115A      0.206792   116A      0.209950   117A      0.211219  
     118A      0.217701   119A      0.220932   120A      0.224716  
     121A      0.226101   122A      0.228577   123A      0.230938  
     124A      0.234955   125A      0.236403   126A      0.241884  
     127A      0.244257   128A      0.250165   129A      0.253480  
     130A      0.256043   131A      0.266158   132A      0.271687  
     133A      0.274653   134A      0.280996   135A      0.283908  
     136A      0.285220   137A      0.290401   138A      0.297113  
     139A      0.303830   140A      0.304950   141A      0.306487  
     142A      0.311786   143A      0.315206   144A      0.318851  
     145A      0.325210   146A      0.328320   147A      0.330646  
     148A      0.335999   149A      0.336608   150A      0.337869  
     151A      0.341033   152A      0.345450   153A      0.349405  
     154A      0.353499   155A      0.355586   156A      0.359079  
     157A      0.365150   158A      0.367263   159A      0.369851  
     160A      0.375107   161A      0.378762   162A      0.382928  
     163A      0.386802   164A      0.389807   165A      0.391539  
     166A      0.393393   167A      0.394501   168A      0.398378  
     169A      0.405122   170A      0.408980   171A      0.411053  
     172A      0.414934   173A      0.418326   174A      0.420110  
     175A      0.430598   176A      0.432789   177A      0.437460  
     178A      0.439874   179A      0.446393   180A      0.449401  
     181A      0.452714   182A      0.457689   183A      0.462966  
     184A      0.465323   185A      0.470986   186A      0.482708  
     187A      0.493266   188A      0.496063   189A      0.503280  
     190A      0.508312   191A      0.510700   192A      0.513570  
     193A      0.525465   194A      0.534503   195A      0.538186  
     196A      0.539471   197A      0.546098   198A      0.550426  
     199A      0.562526   200A      0.565725   201A      0.569797  
     202A      0.576274   203A      0.577171   204A      0.584429  
     205A      0.587379   206A      0.589298   207A      0.594769  
     208A      0.596121   209A      0.607570   210A      0.614011  
     211A      0.619222   212A      0.626289   213A      0.632163  
     214A      0.638563   215A      0.641581   216A      0.643731  
     217A      0.647629   218A      0.656307   219A      0.660180  
     220A      0.669602   221A      0.676165   222A      0.681664  
     223A      0.687826   224A      0.700545   225A      0.703220  
     226A      0.706276   227A      0.712954   228A      0.717151  
     229A      0.722713   230A      0.723731   231A      0.733268  
     232A      0.734846   233A      0.737852   234A      0.743137  
     235A      0.746608   236A      0.750074   237A      0.759476  
     238A      0.762063   239A      0.767810   240A      0.773396  
     241A      0.776265   242A      0.778788   243A      0.784578  
     244A      0.787579   245A      0.789237   246A      0.796932  
     247A      0.801323   248A      0.804997   249A      0.807237  
     250A      0.810414   251A      0.813335   252A      0.815930  
     253A      0.819670   254A      0.832083   255A      0.837665  
     256A      0.844663   257A      0.848917   258A      0.854743  
     259A      0.856511   260A      0.857912   261A      0.865381  
     262A      0.866931   263A      0.869112   264A      0.875776  
     265A      0.877001   266A      0.880592   267A      0.885613  
     268A      0.896237   269A      0.900059   270A      0.903371  
     271A      0.906493   272A      0.910656   273A      0.917866  
     274A      0.920480   275A      0.930001   276A      0.937821  
     277A      0.938817   278A      0.944231   279A      0.947338  
     280A      0.950187   281A      0.952678   282A      0.956987  
     283A      0.961678   284A      0.972174   285A      0.977013  
     286A      0.979358   287A      0.981580   288A      0.985225  
     289A      0.993459   290A      0.999771   291A      1.003025  
     292A      1.010411   293A      1.014934   294A      1.015058  
     295A      1.020749   296A      1.023038   297A      1.025780  
     298A      1.034139   299A      1.038515   300A      1.047963  
     301A      1.052757   302A      1.056173   303A      1.058601  
     304A      1.060495   305A      1.065098   306A      1.067365  
     307A      1.068618   308A      1.075929   309A      1.081885  
     310A      1.087063   311A      1.095655   312A      1.100808  
     313A      1.106301   314A      1.110184   315A      1.112542  
     316A      1.121705   317A      1.125639   318A      1.126573  
     319A      1.131841   320A      1.138211   321A      1.147682  
     322A      1.150682   323A      1.155514   324A      1.161815  
     325A      1.164574   326A      1.172375   327A      1.173362  
     328A      1.180738   329A      1.192449   330A      1.197291  
     331A      1.207756   332A      1.218793   333A      1.222742  
     334A      1.226891   335A      1.242252   336A      1.243781  
     337A      1.244567   338A      1.251397   339A      1.261734  
     340A      1.263084   341A      1.274363   342A      1.278614  
     343A      1.286571   344A      1.289324   345A      1.296684  
     346A      1.312128   347A      1.318723   348A      1.324023  
     349A      1.334215   350A      1.336245   351A      1.340772  
     352A      1.352418   353A      1.359465   354A      1.364998  
     355A      1.371087   356A      1.373687   357A      1.374497  
     358A      1.382523   359A      1.394148   360A      1.401060  
     361A      1.405625   362A      1.411787   363A      1.420118  
     364A      1.429550   365A      1.440700   366A      1.442912  
     367A      1.455868   368A      1.465976   369A      1.476099  
     370A      1.480470   371A      1.484706   372A      1.493874  
     373A      1.504165   374A      1.511151   375A      1.520008  
     376A      1.531092   377A      1.534092   378A      1.541762  
     379A      1.547010   380A      1.554723   381A      1.562918  
     382A      1.566062   383A      1.572231   384A      1.579395  
     385A      1.588300   386A      1.603041   387A      1.619300  
     388A      1.627219   389A      1.638565   390A      1.643643  
     391A      1.651667   392A      1.656548   393A      1.665047  
     394A      1.672758   395A      1.681839   396A      1.685680  
     397A      1.690547   398A      1.693015   399A      1.705898  
     400A      1.712396   401A      1.728192   402A      1.735437  
     403A      1.737463   404A      1.739442   405A      1.743859  
     406A      1.752537   407A      1.762636   408A      1.765672  
     409A      1.775706   410A      1.791017   411A      1.797350  
     412A      1.809208   413A      1.813618   414A      1.818566  
     415A      1.833402   416A      1.837790   417A      1.847159  
     418A      1.850123   419A      1.858121   420A      1.858579  
     421A      1.868648   422A      1.875039   423A      1.887065  
     424A      1.903162   425A      1.905937   426A      1.909316  
     427A      1.912178   428A      1.916491   429A      1.922145  
     430A      1.931424   431A      1.934926   432A      1.936371  
     433A      1.941172   434A      1.950008   435A      1.959485  
     436A      1.973747   437A      1.982089   438A      1.992541  
     439A      1.997485   440A      2.002372   441A      2.005091  
     442A      2.027547   443A      2.029827   444A      2.035022  
     445A      2.038737   446A      2.045628   447A      2.060537  
     448A      2.067106   449A      2.068980   450A      2.087559  
     451A      2.092456   452A      2.102209   453A      2.106185  
     454A      2.116847   455A      2.135750   456A      2.139368  
     457A      2.161708   458A      2.165706   459A      2.177183  
     460A      2.183076   461A      2.193191   462A      2.201228  
     463A      2.215279   464A      2.219743   465A      2.232353  
     466A      2.239621   467A      2.249563   468A      2.262755  
     469A      2.272680   470A      2.282591   471A      2.288093  
     472A      2.292879   473A      2.299495   474A      2.309813  
     475A      2.315819   476A      2.336227   477A      2.356875  
     478A      2.360360   479A      2.376871   480A      2.379478  
     481A      2.387505   482A      2.409766   483A      2.415677  
     484A      2.418757   485A      2.427822   486A      2.431354  
     487A      2.444885   488A      2.453309   489A      2.460363  
     490A      2.478384   491A      2.488032   492A      2.511186  
     493A      2.517866   494A      2.533892   495A      2.558721  
     496A      2.561843   497A      2.571722   498A      2.588713  
     499A      2.607941   500A      2.615103   501A      2.634149  
     502A      2.656061   503A      2.662261   504A      2.681177  
     505A      2.715800   506A      2.727277   507A      2.732418  
     508A      2.750907   509A      2.753724   510A      2.777437  
     511A      2.783525   512A      2.799011   513A      2.833183  
     514A      2.853968   515A      2.861643   516A      2.890584  
     517A      2.910622   518A      2.951983   519A      2.965324  
     520A      2.970370   521A      2.978787   522A      2.996085  
     523A      3.019941   524A      3.036410   525A      3.053731  
     526A      3.066732   527A      3.089754   528A      3.101676  
     529A      3.105943   530A      3.129342   531A      3.146197  
     532A      3.152429   533A      3.170217   534A      3.180930  
     535A      3.181938   536A      3.198457   537A      3.201924  
     538A      3.222852   539A      3.228587   540A      3.236565  
     541A      3.245772   542A      3.251468   543A      3.258490  
     544A      3.261873   545A      3.277576   546A      3.290166  
     547A      3.298709   548A      3.310695   549A      3.328393  
     550A      3.344120   551A      3.352526   552A      3.357786  
     553A      3.365847   554A      3.385813   555A      3.389454  
     556A      3.395761   557A      3.401689   558A      3.409424  
     559A      3.417913   560A      3.421361   561A      3.425344  
     562A      3.431619   563A      3.452613   564A      3.458316  
     565A      3.473685   566A      3.477507   567A      3.488356  
     568A      3.502155   569A      3.511960   570A      3.517215  
     571A      3.525279   572A      3.541924   573A      3.544048  
     574A      3.550241   575A      3.563465   576A      3.578896  
     577A      3.582019   578A      3.594907   579A      3.607600  
     580A      3.610583   581A      3.633684   582A      3.637489  
     583A      3.643029   584A      3.650875   585A      3.655977  
     586A      3.675140   587A      3.681507   588A      3.687551  
     589A      3.704813   590A      3.715478   591A      3.718531  
     592A      3.731039   593A      3.738799   594A      3.749965  
     595A      3.761098   596A      3.771918   597A      3.777577  
     598A      3.784877   599A      3.787771   600A      3.793754  
     601A      3.796477   602A      3.802103   603A      3.818273  
     604A      3.831180   605A      3.832387   606A      3.849789  
     607A      3.858741   608A      3.859379   609A      3.867997  
     610A      3.874224   611A      3.880403   612A      3.884680  
     613A      3.902200   614A      3.907877   615A      3.910921  
     616A      3.925685   617A      3.936624   618A      3.955967  
     619A      3.962252   620A      3.976168   621A      3.980321  
     622A      3.991326   623A      4.002352   624A      4.009698  
     625A      4.024416   626A      4.029909   627A      4.046314  
     628A      4.048042   629A      4.050966   630A      4.063380  
     631A      4.077729   632A      4.082578   633A      4.084587  
     634A      4.088860   635A      4.103697   636A      4.111615  
     637A      4.114842   638A      4.117985   639A      4.127817  
     640A      4.145965   641A      4.153564   642A      4.171168  
     643A      4.178242   644A      4.185903   645A      4.187958  
     646A      4.194707   647A      4.203285   648A      4.204829  
     649A      4.212136   650A      4.227280   651A      4.237409  
     652A      4.247381   653A      4.260107   654A      4.270317  
     655A      4.277472   656A      4.283112   657A      4.285195  
     658A      4.292444   659A      4.305173   660A      4.317189  
     661A      4.321223   662A      4.331992   663A      4.345508  
     664A      4.349240   665A      4.356092   666A      4.358436  
     667A      4.368552   668A      4.382764   669A      4.396006  
     670A      4.400554   671A      4.411334   672A      4.423303  
     673A      4.426079   674A      4.436581   675A      4.453459  
     676A      4.460018   677A      4.465905   678A      4.491539  
     679A      4.502490   680A      4.514251   681A      4.533734  
     682A      4.541701   683A      4.566183   684A      4.569783  
     685A      4.581870   686A      4.592219   687A      4.599702  
     688A      4.626603   689A      4.638238   690A      4.644657  
     691A      4.654338   692A      4.659282   693A      4.673157  
     694A      4.675096   695A      4.698328   696A      4.723162  
     697A      4.727608   698A      4.756904   699A      4.759496  
     700A      4.778965   701A      4.786325   702A      4.793405  
     703A      4.808562   704A      4.813873   705A      4.815185  
     706A      4.830777   707A      4.841550   708A      4.846285  
     709A      4.888019   710A      4.897597   711A      4.904748  
     712A      4.908069   713A      4.938565   714A      4.945764  
     715A      4.960623   716A      4.961529   717A      4.972921  
     718A      4.985603   719A      4.990804   720A      5.002709  
     721A      5.012333   722A      5.017834   723A      5.021698  
     724A      5.035130   725A      5.049889   726A      5.061747  
     727A      5.082382   728A      5.090168   729A      5.099732  
     730A      5.122451   731A      5.147962   732A      5.170437  
     733A      5.181883   734A      5.196335   735A      5.204844  
     736A      5.206593   737A      5.215937   738A      5.247718  
     739A      5.267997   740A      5.278117   741A      5.291394  
     742A      5.314027   743A      5.327369   744A      5.337084  
     745A      5.350190   746A      5.387187   747A      5.389971  
     748A      5.396923   749A      5.420400   750A      5.426875  
     751A      5.456582   752A      5.484392   753A      5.505677  
     754A      5.558138   755A      5.590875   756A      5.598225  
     757A      5.606542   758A      5.612110   759A      5.619781  
     760A      5.630478   761A      5.659486   762A      5.691307  
     763A      5.699208   764A      5.705990   765A      5.739112  
     766A      5.763742   767A      5.791052   768A      5.843726  
     769A      5.846553   770A      5.861492   771A      5.952392  
     772A      5.971246   773A      5.994397   774A      5.998285  
     775A      6.048892   776A      6.084074   777A      6.103024  
     778A      6.143555   779A      6.197238   780A      6.230192  
     781A      6.283541   782A      6.323118   783A      6.332236  
     784A      6.362837   785A      6.371900   786A      6.424022  
     787A      6.452883   788A      6.498685   789A      6.507660  
     790A      6.561776   791A      6.600463   792A      6.637758  
     793A      6.702329   794A      6.758833   795A      6.791668  
     796A      6.805899   797A      6.806866   798A      6.817768  
     799A      6.847696   800A      6.898881   801A      6.955260  
     802A      6.988073   803A      6.997695   804A      7.120177  
     805A      7.157333   806A      7.318844   807A      7.331850  
     808A      7.479127   809A      7.554140   810A      7.578197  
     811A      7.614949   812A      7.653136   813A      7.912351  
     814A      8.290033   815A      8.539014   816A     15.982899  
     817A     16.292420   818A     16.634656   819A     17.132792  
     820A     17.174714   821A     18.783820   822A     19.428864  
     823A     19.553322   824A     19.821931   825A     20.283081  
     826A     20.345329   827A     20.735835   828A     21.511624  

    Final Occupation by Irrep:
              A 
    DOCC [    45 ]

  Energy converged.

  @DF-RHF Final Energy:  -551.67356509802983

   => Energetics <=

    Nuclear Repulsion Energy =            713.6500099045731531
    One-Electron Energy =               -2150.1738827534545635
    Two-Electron Energy =                 884.8503077508515844
    DFT Exchange-Correlation Energy =       0.0000000000000000
    Empirical Dispersion Energy =           0.0000000000000000
    PCM Polarization Energy =               0.0000000000000000
    EFP Energy =                            0.0000000000000000
    Total Energy =                       -551.6735650980298260



Properties will be evaluated at   0.000000,   0.000000,   0.000000 Bohr

Properties computed using the SCF density matrix

  Nuclear Dipole Moment: (a.u.)
     X:     2.9514      Y:    -1.5986      Z:    -0.9342

  Electronic Dipole Moment: (a.u.)
     X:     0.1892      Y:    -0.0900      Z:    -0.4244

  Dipole Moment: (a.u.)
     X:     3.1406      Y:    -1.6887      Z:    -1.3587     Total:     3.8159

  Dipole Moment: (Debye)
     X:     7.9826      Y:    -4.2921      Z:    -3.4534     Total:     9.6990


*** tstop() called on gpu-2-12.local at Sun Nov 12 07:16:01 2017
Module time:
	user time   =    1081.92 seconds =      18.03 minutes
	system time =      49.42 seconds =       0.82 minutes
	total time  =        457 seconds =       7.62 minutes
Total time:
	user time   =    1081.92 seconds =      18.03 minutes
	system time =      49.42 seconds =       0.82 minutes
	total time  =        457 seconds =       7.62 minutes

  //>>>>>>>>>>>>>>>>>>>>>>>>>>>>>>>>>>>//
  //               DFMP2               //
  //<<<<<<<<<<<<<<<<<<<<<<<<<<<<<<<<<<<//

   => Loading Basis Set <=

    Name: (AUG-CC-PVTZ AUX)
    Role: RIFIT
    Keyword: DF_BASIS_MP2
    atoms 1-11  entry C          line   147 file /cbio/jclab/home/chayas/anaconda/envs/py35/share/psi4/basis/aug-cc-pvtz-ri.gbs 
    atoms 12    entry N          line   205 file /cbio/jclab/home/chayas/anaconda/envs/py35/share/psi4/basis/aug-cc-pvtz-ri.gbs 
    atoms 13    entry O          line   263 file /cbio/jclab/home/chayas/anaconda/envs/py35/share/psi4/basis/aug-cc-pvtz-ri.gbs 
    atoms 14-23 entry H          line    29 file /cbio/jclab/home/chayas/anaconda/envs/py35/share/psi4/basis/aug-cc-pvtz-ri.gbs 

	 --------------------------------------------------------
	                          DF-MP2                         
	      2nd-Order Density-Fitted Moller-Plesset Theory     
	              RMP2 Wavefunction,   8 Threads             
	                                                         
	        Rob Parrish, Justin Turney, Andy Simmonett,      
	           Ed Hohenstein, and C. David Sherrill          
	 --------------------------------------------------------

   => Auxiliary Basis Set <=

  Basis Set: (AUG-CC-PVTZ AUX)
    Blend: AUG-CC-PVTZ-RI
    Number of shells: 504
    Number of basis function: 1838
    Number of Cartesian functions: 2318
    Spherical Harmonics?: true
    Max angular momentum: 4

	 --------------------------------------------------------
	                 NBF =   828, NAUX =  1838
	 --------------------------------------------------------
	   CLASS    FOCC     OCC    AOCC    AVIR     VIR    FVIR
	   PAIRS       0      45      45     783     783       0
	 --------------------------------------------------------


         ------------------------------------------------------------
                                     CPHF                           
                                  Rob Parrish                       
         ------------------------------------------------------------

  ==> Geometry <==

    Molecular point group: c1
    Full point group: C1

    Geometry (in Angstrom), charge = 1, multiplicity = 1:

       Center              X                  Y                   Z               Mass       
    ------------   -----------------  -----------------  -----------------  -----------------
           C         -1.271584677165     0.720242246914    -0.579136021648    12.000000000000
           C         -0.278584677165     0.104242246914     1.534863978352    12.000000000000
           C         -2.349584677165     1.293242246914     0.093863978352    12.000000000000
           C         -1.356584677165     0.677242246914     2.208863978352    12.000000000000
           C          1.094415322835    -0.185757753086    -1.903136021648    12.000000000000
           C          1.749415322835    -1.325757753086     0.115863978352    12.000000000000
           C          2.175415322835    -0.770757753086    -2.547136021648    12.000000000000
           C          2.813415322835    -1.881757753086    -0.580136021648    12.000000000000
           C         -0.235584677165     0.125242246914     0.140863978352    12.000000000000
           C          0.883415322835    -0.468757753086    -0.557136021648    12.000000000000
           C         -2.392584677165     1.272242246914     1.487863978352    12.000000000000
           N          2.993415322835    -1.591757753086    -1.876136021648    14.003074004780
           O         -3.444584677165     1.832242246914     2.144863978352    15.994914619560
           H         -1.252584677165     0.744242246914    -1.666136021648     1.007825032070
           H          0.521415322835    -0.355757753086     2.110863978352     1.007825032070
           H         -3.153584677165     1.755242246914    -0.473136021648     1.007825032070
           H         -1.384584677165     0.658242246914     3.294863978352     1.007825032070
           H          0.434415322835     0.479242246914    -2.453136021648     1.007825032070
           H          1.608415322835    -1.564757753086     1.165863978352     1.007825032070
           H          2.416415322835    -0.607757753086    -3.589136021648     1.007825032070
           H          3.535415322835    -2.554757753086    -0.139136021648     1.007825032070
           H          3.781415322835    -2.011757753086    -2.368136021648     1.007825032070
           H         -3.331584677165     1.738242246914     3.103863978352     1.007825032070

  Nuclear repulsion =  713.650009904573153
  Reference energy  = -551.673565098029826

  ==> Basis Set <==

  Basis Set: AUG-CC-PVTZ
    Blend: AUG-CC-PVTZ
    Number of shells: 272
    Number of basis function: 828
    Number of Cartesian functions: 965
    Spherical Harmonics?: true
    Max angular momentum: 3

  ==> CGRSolver (by Rob Parrish) <==

   Number of roots    =         1
   Preconditioning    =    JACOBI
   Convergence cutoff =     1E-06
   Maximum iterations =       100

  ==> CPHFRHamiltonian (by Rob Parrish) <== 

  ==> DFJK: Density-Fitted J/K Matrices <==

    J tasked:                  Yes
    K tasked:                  Yes
    wK tasked:                  No
    OpenMP threads:              8
    Integrals threads:           8
    Memory (MB):              3576
    Algorithm:                Disk
    Integral Cache:           NONE
    Schwarz Cutoff:          1E-12
    Fitting Condition:       1E-12

   => Auxiliary Basis Set <=

  Basis Set: (AUG-CC-PVTZ AUX)
    Blend: AUG-CC-PVTZ-JKFIT
    Number of shells: 530
    Number of basis function: 1812
    Number of Cartesian functions: 2253
    Spherical Harmonics?: true
    Max angular momentum: 4

  ==> CPHF Iterations <==

  => Iterations <=

             Iter  Converged  Remaining    Residual
  CGR           1          0          1   1.153E-01
  CGR           2          0          1   5.293E-02
  CGR           3          0          1   3.080E-02
  CGR           4          0          1   1.001E-02
  CGR           5          0          1   4.845E-03
  CGR           6          0          1   2.409E-03
  CGR           7          0          1   7.309E-04
  CGR           8          0          1   2.932E-04
  CGR           9          0          1   1.388E-04
  CGR          10          0          1   4.602E-05
  CGR          11          0          1   1.451E-05
  CGR          12          0          1   5.430E-06
  CGR          13          0          1   1.687E-06
  CGR          14          1          0   5.273E-07

    CGRSolver converged.

  ==> DFCorrGrad: Density-Fitted Correlated Gradients <==

    OpenMP threads:              8
    Integrals threads:           8
    Memory (MB):              3576
    Schwarz Cutoff:          0E+00
    Fitting Condition:       1E-12

   => Auxiliary Basis Set <=

  Basis Set: (AUG-CC-PVTZ AUX)
    Blend: AUG-CC-PVTZ-JKFIT
    Number of shells: 530
    Number of basis function: 1812
    Number of Cartesian functions: 2253
    Spherical Harmonics?: true
    Max angular momentum: 4

	-----------------------------------------------------------
	 ==================> DF-MP2 Energies <==================== 
	-----------------------------------------------------------
	 Reference Energy          =    -551.6735650980298260 [Eh]
	 Singles Energy            =      -0.0000000000000002 [Eh]
	 Same-Spin Energy          =      -0.5969452370647704 [Eh]
	 Opposite-Spin Energy      =      -1.8265089369691550 [Eh]
	 Correlation Energy        =      -2.4234541740339255 [Eh]
	 Total Energy              =    -554.0970192720637897 [Eh]
	-----------------------------------------------------------
	 ================> DF-SCS-MP2 Energies <================== 
	-----------------------------------------------------------
	 SCS Same-Spin Scale       =       0.3333333333333333 [-]
	 SCS Opposite-Spin Scale   =       1.2000000000000000 [-]
	 SCS Same-Spin Energy      =      -0.1989817456882568 [Eh]
	 SCS Opposite-Spin Energy  =      -2.1918107243629859 [Eh]
	 SCS Correlation Energy    =      -2.3907924700512426 [Eh]
	 SCS Total Energy          =    -554.0643575680810500 [Eh]
	-----------------------------------------------------------


  -Total Gradient:
     Atom            X                  Y                   Z
    ------   -----------------  -----------------  -----------------
       1        0.011367699747    -0.008527088480    -0.007779692461
       2        0.011546575420    -0.003251992893    -0.010045589658
       3       -0.000808298290     0.000131794261     0.008976860836
       4       -0.013189141973     0.006881815151     0.005914459157
       5       -0.017247744556     0.009858142652     0.013372381671
       6       -0.019749353954     0.009510071871     0.010176084303
       7        0.011521250144    -0.009674600228     0.005721361324
       8        0.004595798557     0.000641686235    -0.014760968342
       9       -0.004402333762     0.002211157766     0.002291645776
      10        0.015599727707    -0.007975275485    -0.010021037659
      11        0.004244626885    -0.001829392915    -0.015580121265
      12       -0.002996973016     0.001857563912     0.001032796727
      13       -0.006222346202     0.003152257188     0.009809626664
      14        0.003829260394     0.000080184146    -0.007986462451
      15        0.006307551339    -0.005591416178     0.001935710052
      16       -0.002878053940     0.002146119399    -0.005118128095
      17        0.000256192287    -0.000561230719     0.004393412517
      18       -0.008024195463     0.004619750534    -0.002301753130
      19       -0.002753824593     0.001168382752     0.008824391745
      20        0.001745346255    -0.000607353418    -0.002709191169
      21        0.002432592441    -0.001338288913    -0.000180174540
      22        0.005249875770    -0.002862563288    -0.003198902103
      23       -0.000424231200    -0.000039723346     0.007233290109


*** tstop() called on gpu-2-12.local at Sun Nov 12 07:51:09 2017
Module time:
	user time   =    5593.31 seconds =      93.22 minutes
	system time =     110.24 seconds =       1.84 minutes
	total time  =       2565 seconds =      42.75 minutes
Total time:
	user time   =    5593.31 seconds =      93.22 minutes
	system time =     110.24 seconds =       1.84 minutes
	total time  =       2565 seconds =      42.75 minutes

			-----------------------------------------
			 OPTKING 2.0: for geometry optimizations 
			  - R.A. King,  Bethel University        
			-----------------------------------------

	Internal coordinates to be generated automatically.
	Detected frag 1 with atoms:  1 2 3 4 5 6 7 8 9 10 11 12 13 14 15 16 17 18 19 20
	 21 22 23
	---Fragment 1 Bond Connectivity---
	 1 : 3 9 14
	 2 : 4 9 15
	 3 : 1 11 16
	 4 : 2 11 17
	 5 : 7 10 18
	 6 : 8 10 19
	 7 : 5 12 20
	 8 : 6 12 21
	 9 : 1 2 10
	 10 : 5 6 9
	 11 : 3 4 13
	 12 : 7 8 22
	 13 : 11 23
	 14 : 1
	 15 : 2
	 16 : 3
	 17 : 4
	 18 : 5
	 19 : 6
	 20 : 7
	 21 : 8
	 22 : 12
	 23 : 13

	Assuming in current code that numbering for constraints corresponds to unified fragment.
	Fixed dihedral atom list: 
	     1     9    10     5
	---Fragment 1 Geometry and Gradient---
	 C          -2.4029467946        1.3610605960       -1.0944084746
	 C          -0.5264487447        0.1969892981        2.9004725703
	 C          -4.4400715659        2.4438736701        0.1773772128
	 C          -2.5635735159        1.2798023723        4.1741479839
	 C           2.0681452358       -0.3510312804       -3.5964058745
	 C           3.3059158528       -2.5053190719        0.2189511878
	 C           4.1109391854       -1.4565210681       -4.8133895041
	 C           5.3165844582       -3.5560068018       -1.0962982007
	 C          -0.4451905209        0.2366735469        0.2661943411
	 C           1.6694130218       -0.8858237760       -1.0528344997
	 C          -4.5213297896        2.4041894214        2.8116554421
	 N           5.6567351621       -3.0079862232       -3.5453832690
	 O          -6.5093216814        3.4624360558        4.0532055114
	 H          -2.3670419981        1.4064140232       -3.1485407810
	 H           0.9853321616       -0.6722847230        3.9889548229
	 H          -5.9594113767        3.3169271435       -0.8940975045
	 H          -2.6164858476        1.2438975758        6.2263905642
	 H           0.8209259881        0.9056365980       -4.6357552476
	 H           3.0394644681       -2.9569636176        2.2031636273
	 H           4.5663631835       -1.1484957085       -6.7824841346
	 H           6.6809667262       -4.8277924892       -0.2629289761
	 H           7.1458393549       -3.8016711990       -4.4751285263
	 H          -6.2957826284        3.2848017993        5.8654528728
	             0.0113676997       -0.0085270885       -0.0077796925
	             0.0115465754       -0.0032519929       -0.0100455897
	            -0.0008082983        0.0001317943        0.0089768608
	            -0.0131891420        0.0068818152        0.0059144592
	            -0.0172477446        0.0098581427        0.0133723817
	            -0.0197493540        0.0095100719        0.0101760843
	             0.0115212501       -0.0096746002        0.0057213613
	             0.0045957986        0.0006416862       -0.0147609683
	            -0.0044023338        0.0022111578        0.0022916458
	             0.0155997277       -0.0079752755       -0.0100210377
	             0.0042446269       -0.0018293929       -0.0155801213
	            -0.0029969730        0.0018575639        0.0010327967
	            -0.0062223462        0.0031522572        0.0098096267
	             0.0038292604        0.0000801841       -0.0079864625
	             0.0063075513       -0.0055914162        0.0019357101
	            -0.0028780539        0.0021461194       -0.0051181281
	             0.0002561923       -0.0005612307        0.0043934125
	            -0.0080241955        0.0046197505       -0.0023017531
	            -0.0027538246        0.0011683828        0.0088243917
	             0.0017453463       -0.0006073534       -0.0027091912
	             0.0024325924       -0.0013382889       -0.0001801745
	             0.0052498758       -0.0028625633       -0.0031989021
	            -0.0004242312       -0.0000397233        0.0072332901

	Previous optimization step data not found.  Starting new optimization.

	---Fragment 1 Intrafragment Coordinates---
	 - Coordinate -           - BOHR/RAD -       - ANG/DEG -
	 R(1,3)           =         2.634350	       1.394038
	 R(1,9)           =         2.635962	       1.394891
	 R(1,14)          =         2.054947	       1.087431
	 R(2,4)           =         2.635263	       1.394521
	 R(2,9)           =         2.635830	       1.394821
	 R(2,15)          =         2.055702	       1.087831
	 R(3,11)          =         2.635830	       1.394821
	 R(3,16)          =         2.053941	       1.086899
	 R(4,11)          =         2.636938	       1.395407
	 R(4,17)          =         2.053239	       1.086527
	 R(5,7)           =         2.622244	       1.387632
	 R(5,10)          =         2.629590	       1.391519
	 R(5,18)          =         2.053051	       1.086428
	 R(6,8)           =         2.622330	       1.387677
	 R(6,10)          =         2.630275	       1.391881
	 R(6,19)          =         2.052335	       1.086049
	 R(7,12)          =         2.530686	       1.339181
	 R(7,20)          =         2.044413	       1.081857
	 R(8,12)          =         2.532597	       1.340193
	 R(8,21)          =         2.042910	       1.081062
	 R(9,10)          =         2.733384	       1.446444
	 R(11,13)         =         2.571662	       1.360865
	 R(12,22)         =         1.926602	       1.019514
	 R(13,23)         =         1.833410	       0.970199
	 B(1,3,11)        =         2.094553	     120.009056
	 B(1,3,16)        =         2.088505	     119.662516
	 B(1,9,2)         =         2.093692	     119.959722
	 B(1,9,10)        =         2.095161	     120.043881
	 B(2,4,11)        =         2.093699	     119.960108
	 B(2,4,17)        =         2.089577	     119.723926
	 B(2,9,10)        =         2.094332	     119.996376
	 B(3,1,9)         =         2.094940	     120.031219
	 B(3,1,14)        =         2.079469	     119.144799
	 B(3,11,4)        =         2.094306	     119.994870
	 B(3,11,13)       =         2.094549	     120.008801
	 B(4,2,9)         =         2.095181	     120.045019
	 B(4,2,15)        =         2.078675	     119.099297
	 B(4,11,13)       =         2.094331	     119.996326
	 B(5,7,12)        =         2.096431	     120.116626
	 B(5,7,20)        =         2.161594	     123.850195
	 B(5,10,6)        =         2.092755	     119.906041
	 B(5,10,9)        =         2.095048	     120.037395
	 B(6,8,12)        =         2.095897	     120.086081
	 B(6,8,21)        =         2.161460	     123.842530
	 B(6,10,9)        =         2.095381	     120.056489
	 B(7,5,10)        =         2.072939	     118.770677
	 B(7,5,18)        =         2.090191	     119.759110
	 B(7,12,8)        =         2.135482	     122.354082
	 B(7,12,22)       =         2.074728	     118.873165
	 B(8,6,10)        =         2.072866	     118.766471
	 B(8,6,19)        =         2.090108	     119.754356
	 B(8,12,22)       =         2.072976	     118.772752
	 B(9,1,14)        =         2.108776	     120.823969
	 B(9,2,15)        =         2.109330	     120.855683
	 B(10,5,18)       =         2.120055	     121.470201
	 B(10,6,19)       =         2.120212	     121.479172
	 B(11,3,16)       =         2.100127	     120.328425
	 B(11,4,17)       =         2.099910	     120.315955
	 B(11,13,23)      =         1.925489	     110.322421
	 B(12,7,20)       =         2.025161	     116.033179
	 B(12,8,21)       =         2.025827	     116.071322
	 D(1,3,11,4)      =        -0.000325	      -0.018609
	 D(1,3,11,13)     =         3.140978	     179.964785
	 D(1,9,2,4)       =         0.000325	       0.018608
	 D(1,9,2,15)      =        -3.141497	    -179.994534
	 D(1,9,10,5)      =         0.260871	      14.946811
	 D(1,9,10,6)      =        -2.878984	    -164.953611
	 D(2,4,11,3)      =         0.000301	       0.017261
	 D(2,4,11,13)     =        -3.141002	    -179.966135
	 D(2,9,1,3)       =        -0.000348	      -0.019945
	 D(2,9,1,14)      =        -3.141221	    -179.978731
	 D(2,9,10,5)      =        -2.879805	    -165.000685
	 D(2,9,10,6)      =         0.263525	      15.098892
	 D(3,1,9,10)      =        -3.141025	    -179.967461
	 D(3,11,4,17)     =         3.141223	     179.978848
	 D(3,11,13,23)    =         3.140828	     179.956172
	 D(4,2,9,10)      =         3.141002	     179.966149
	 D(4,11,3,16)     =         3.141593	     180.000000
	 D(4,11,13,23)    =        -0.001055	      -0.060434
	 D(5,7,12,8)      =        -0.000593	      -0.033950
	 D(5,7,12,22)     =         3.140783	     179.953619
	 D(5,10,6,8)      =         0.000598	       0.034279
	 D(5,10,6,19)     =        -3.140874	    -179.958831
	 D(6,8,12,7)      =         0.000288	       0.016505
	 D(6,8,12,22)     =        -3.141088	    -179.971076
	 D(6,10,5,7)      =        -0.000891	      -0.051048
	 D(6,10,5,18)     =         3.141407	     179.989342
	 D(7,5,10,9)      =        -3.140748	    -179.951621
	 D(7,12,8,21)     =        -3.139718	    -179.892609
	 D(8,6,10,9)      =         3.140455	     179.934833
	 D(8,12,7,20)     =         3.141016	     179.966969
	 D(9,1,3,11)      =         0.000348	       0.019955
	 D(9,1,3,16)      =        -3.141571	    -179.998735
	 D(9,2,4,11)      =        -0.000301	      -0.017270
	 D(9,2,4,17)      =        -3.141228	    -179.979086
	 D(9,10,5,18)     =         0.001549	       0.088769
	 D(9,10,6,19)     =        -0.001017	      -0.058278
	 D(10,5,7,12)     =         0.000884	       0.050639
	 D(10,5,7,20)     =        -3.140726	    -179.950355
	 D(10,6,8,12)     =        -0.000287	      -0.016432
	 D(10,6,8,21)     =         3.139590	     179.885277
	 D(10,9,1,14)     =         0.001287	       0.073752
	 D(10,9,2,15)     =        -0.000820	      -0.046992
	 D(11,3,1,14)     =         3.141234	     179.979432
	 D(11,4,2,15)     =         3.141517	     179.995641
	 D(12,7,5,18)     =        -3.141401	    -179.989044
	 D(12,8,6,19)     =         3.141188	     179.976800
	 D(13,11,3,16)    =        -0.000286	      -0.016400
	 D(13,11,4,17)    =        -0.000079	      -0.004548
	 D(14,1,3,16)     =        -0.000685	      -0.039257
	 D(15,2,4,17)     =         0.000590	       0.033826
	 D(18,5,7,20)     =         0.000174	       0.009962
	 D(19,6,8,21)     =        -0.002120	      -0.121491
	 D(20,7,12,22)    =        -0.000793	      -0.045462
	 D(21,8,12,22)    =         0.002091	       0.119810

	Current energy   :      -554.0970192721

	Generating empirical Hessian (Schlegel '84) for each fragment.
	Adding user-defined constraint: Fragment 1; Coordinate 66:
		Value =     0.260871; Fixed value    =     0.261799
		Force =     0.000464; Force constant =     0.500000
	Removing off-diagonal coupling between coordinate 66 and others.
	Taking RFO optimization step.
	Going to follow RFO solution 1.
	Using RFO vector 1.

	Determining step-restricting scale parameter for RS-RFO.
	Maximum step size allowed    0.10000

	 Iter      |step|        alpha        rfo_root  
	------------------------------------------------
	    0     0.22725       1.00000           1
	    1     0.17394       4.69714           1
	    2     0.13526      15.34056           1
	    3     0.11113      31.56006           1
	    4     0.10164      42.15467           1
	    5     0.10004      44.28402           1
	    6     0.10000      44.34476           1
	------------------------------------------------
	Norm of target step-size    0.10000
	Projected energy change by RFO approximation:        -0.0056981099

	Back-transformation to cartesian coordinates...
	Could not converge backtransformation.
	Using first guess instead.

	--- Internal Coordinate Step in ANG or DEG, aJ/ANG or AJ/DEG ---
	 ---------------------------------------------------------------------------
	   Coordinate                Previous        Force       Change         New 
	   ----------                --------       ------       ------       ------
	    1 R(1,3)          =      1.394038    -0.107937    -0.009733     1.384305
	    2 R(1,9)          =      1.394891     0.043468     0.004168     1.399059
	    3 R(1,14)         =      1.087431    -0.066338    -0.006985     1.080446
	    4 R(2,4)          =      1.394521    -0.108861    -0.009754     1.384767
	    5 R(2,9)          =      1.394821     0.033768     0.003271     1.398093
	    6 R(2,15)         =      1.087831    -0.066140    -0.007012     1.080819
	    7 R(3,11)         =      1.394821    -0.063427    -0.005889     1.388932
	    8 R(3,16)         =      1.086899    -0.047052    -0.005006     1.081892
	    9 R(4,11)         =      1.395407    -0.015007    -0.001494     1.393913
	   10 R(4,17)         =      1.086527    -0.036205    -0.003864     1.082663
	   11 R(5,7)          =      1.387632    -0.121174    -0.010681     1.376951
	   12 R(5,10)         =      1.391519     0.088423     0.008124     1.399644
	   13 R(5,18)         =      1.086428    -0.073058    -0.007732     1.078696
	   14 R(6,8)          =      1.387677    -0.121790    -0.010787     1.376890
	   15 R(6,10)         =      1.391881     0.086513     0.008067     1.399949
	   16 R(6,19)         =      1.086049    -0.071115    -0.007441     1.078608
	   17 R(7,12)         =      1.339181     0.019793     0.001455     1.340636
	   18 R(7,20)         =      1.081857    -0.023948    -0.002502     1.079355
	   19 R(8,12)         =      1.340193     0.013889     0.000996     1.341188
	   20 R(8,21)         =      1.081062    -0.019643    -0.002068     1.078993
	   21 R(9,10)         =      1.446444     0.102623     0.010370     1.456814
	   22 R(11,13)        =      1.360865    -0.120671    -0.009542     1.351323
	   23 R(12,22)        =      1.019514    -0.055864    -0.005174     1.014339
	   24 R(13,23)        =      0.970199    -0.058531    -0.004629     0.965570
	   25 B(1,3,11)       =    120.009056    -0.000019    -0.080946   119.928110
	   26 B(1,3,16)       =    119.662516     0.000206     0.404814   120.067330
	   27 B(1,9,2)        =    119.959722    -0.000806    -1.174760   118.784961
	   28 B(1,9,10)       =    120.043881     0.000398     0.580217   120.624098
	   29 B(2,4,11)       =    119.960108     0.000100     0.128547   120.088655
	   30 B(2,4,17)       =    119.723926    -0.000006     0.016009   119.739935
	   31 B(2,9,10)       =    119.996376     0.000408     0.594434   120.590810
	   32 B(3,1,9)        =    120.031219     0.000463     0.747870   120.779089
	   33 B(3,1,14)       =    119.144799    -0.000488    -0.852773   118.292026
	   34 B(3,11,4)       =    119.994870    -0.000008    -0.077034   119.917837
	   35 B(3,11,13)      =    120.008801    -0.001011    -1.504937   118.503865
	   36 B(4,2,9)        =    120.045019     0.000270     0.456221   120.501240
	   37 B(4,2,15)       =    119.099297    -0.000344    -0.618068   118.481230
	   38 B(4,11,13)      =    119.996326     0.001019     1.581966   121.578292
	   39 B(5,7,12)       =    120.116626    -0.000174    -0.318040   119.798586
	   40 B(5,7,20)       =    123.850195    -0.000030    -0.057115   123.793080
	   41 B(5,10,6)       =    119.906041    -0.001172    -1.741414   118.164627
	   42 B(5,10,9)       =    120.037395     0.000572     0.849864   120.887259
	   43 B(6,8,12)       =    120.086081    -0.000163    -0.303286   119.782795
	   44 B(6,8,21)       =    123.842530    -0.000027    -0.049078   123.793452
	   45 B(6,10,9)       =    120.056489     0.000600     0.891403   120.947893
	   46 B(7,5,10)       =    118.770677     0.000684     1.099475   119.870153
	   47 B(7,5,18)       =    119.759110    -0.000587    -1.010274   118.748835
	   48 B(7,12,8)       =    122.354082     0.000135     0.161350   122.515432
	   49 B(7,12,22)      =    118.873165    -0.000074    -0.094571   118.778595
	   50 B(8,6,10)       =    118.766471     0.000691     1.101889   119.868360
	   51 B(8,6,19)       =    119.754356    -0.000590    -1.012095   118.742260
	   52 B(8,12,22)      =    118.772752    -0.000060    -0.066782   118.705969
	   53 B(9,1,14)       =    120.823969     0.000024     0.104349   120.928319
	   54 B(9,2,15)       =    120.855683     0.000074     0.161461   121.017143
	   55 B(10,5,18)      =    121.470201    -0.000096    -0.089522   121.380678
	   56 B(10,6,19)      =    121.479172    -0.000101    -0.090020   121.389152
	   57 B(11,3,16)      =    120.328425    -0.000188    -0.323865   120.004560
	   58 B(11,4,17)      =    120.315955    -0.000094    -0.144572   120.171382
	   59 B(11,13,23)     =    110.322421    -0.000199    -0.371422   109.950999
	   60 B(12,7,20)      =    116.033179     0.000205     0.375137   116.408316
	   61 B(12,8,21)      =    116.071322     0.000191     0.352427   116.423749
	   62 D(1,3,11,4)     =     -0.018609    -0.000003    -0.036057    -0.054666
	   63 D(1,3,11,13)    =    179.964785    -0.000004    -0.048406   179.916380
	   64 D(1,9,2,4)      =      0.018608    -0.000003    -0.013355     0.005253
	   65 D(1,9,2,15)     =   -179.994534     0.000017     0.229691  -179.764843
	   66 D(1,9,10,5)     =     14.946811     0.000020     0.145960    15.092772
	   67 D(1,9,10,6)     =   -164.953611     0.000023     0.220572  -164.733038
	   68 D(2,4,11,3)     =      0.017261    -0.000004    -0.050919    -0.033657
	   69 D(2,4,11,13)    =   -179.966135    -0.000003    -0.037655  -180.003790
	   70 D(2,9,1,3)      =     -0.019945    -0.000005    -0.074421    -0.094366
	   71 D(2,9,1,14)     =   -179.978731     0.000015     0.162828  -179.815903
	   72 D(2,9,10,5)     =   -165.000685     0.000023     0.226440  -164.774246
	   73 D(2,9,10,6)     =     15.098892     0.000026     0.301052    15.399944
	   74 D(3,1,9,10)     =   -179.967461    -0.000001     0.003709  -179.963752
	   75 D(3,11,4,17)    =    179.978848    -0.000005    -0.073098   179.905750
	   76 D(3,11,13,23)   =    179.956172     0.000001     0.012063   179.968235
	   77 D(4,2,9,10)     =    179.966149    -0.000006    -0.091466   179.874684
	   78 D(4,11,3,16)    =    180.000000    -0.000005    -0.057681   179.942319
	   79 D(4,11,13,23)   =     -0.060434     0.000000    -0.000789    -0.061223
	   80 D(5,7,12,8)     =     -0.033950     0.000000     0.006882    -0.027068
	   81 D(5,7,12,22)    =    179.953619    -0.000000    -0.004672   179.948947
	   82 D(5,10,6,8)     =      0.034279     0.000001     0.027488     0.061768
	   83 D(5,10,6,19)    =   -179.958831     0.000015     0.196330  -179.762501
	   84 D(6,8,12,7)     =      0.016505    -0.000001    -0.011339     0.005166
	   85 D(6,8,12,22)    =   -179.971076    -0.000000     0.000210  -179.970866
	   86 D(6,10,5,7)     =     -0.051048    -0.000001    -0.032177    -0.083225
	   87 D(6,10,5,18)    =    179.989342     0.000013     0.140216   180.129558
	   88 D(7,5,10,9)     =   -179.951621     0.000001     0.037851  -179.913770
	   89 D(7,12,8,21)    =   -179.892609    -0.000006    -0.081164  -179.973773
	   90 D(8,6,10,9)     =    179.934833    -0.000002    -0.042628   179.892205
	   91 D(8,12,7,20)    =    179.966969    -0.000004    -0.042082   179.924887
	   92 D(9,1,3,11)     =      0.019955     0.000007     0.099494     0.119449
	   93 D(9,1,3,16)     =   -179.998735     0.000009     0.121201  -179.877534
	   94 D(9,2,4,11)     =     -0.017270     0.000007     0.075402     0.058131
	   95 D(9,2,4,17)     =   -179.979086     0.000008     0.097547  -179.881538
	   96 D(9,10,5,18)    =      0.088769     0.000015     0.210245     0.299014
	   97 D(9,10,6,19)    =     -0.058278     0.000012     0.126214     0.067936
	   98 D(10,5,7,12)    =      0.050639     0.000001     0.016053     0.066692
	   99 D(10,5,7,20)    =   -179.950355     0.000005     0.068826  -179.881529
	  100 D(10,6,8,12)    =     -0.016432     0.000000    -0.006893    -0.023325
	  101 D(10,6,8,21)    =    179.885277     0.000006     0.068703   179.953980
	  102 D(10,9,1,14)    =      0.073752     0.000018     0.240959     0.314711
	  103 D(10,9,2,15)    =     -0.046992     0.000014     0.151580     0.104587
	  104 D(11,3,1,14)    =    179.979432    -0.000011    -0.131258   179.848175
	  105 D(11,4,2,15)    =    179.995641    -0.000013    -0.161670   179.833971
	  106 D(12,7,5,18)    =   -179.989044    -0.000013    -0.151464  -180.140508
	  107 D(12,8,6,19)    =    179.976800    -0.000014    -0.171219   179.805582
	  108 D(13,11,3,16)   =     -0.016400    -0.000005    -0.070236    -0.086636
	  109 D(13,11,4,17)   =     -0.004548    -0.000005    -0.059835    -0.064383
	  110 D(14,1,3,16)    =     -0.039257    -0.000009    -0.109551    -0.148808
	  111 D(15,2,4,17)    =      0.033826    -0.000011    -0.139524    -0.105698
	  112 D(18,5,7,20)    =      0.009962    -0.000008    -0.098690    -0.088728
	  113 D(19,6,8,21)    =     -0.121491    -0.000008    -0.095622    -0.217113
	  114 D(20,7,12,22)   =     -0.045462    -0.000004    -0.053635    -0.099098
	  115 D(21,8,12,22)   =      0.119810    -0.000006    -0.069615     0.050195
	 ---------------------------------------------------------------------------
	Successfully symmetrized geometry.
	 Forces used to impose fixed constraints are not included.
	  Forces zeroed: 66 

  ==> Convergence Check <==

  Measures of convergence in internal coordinates in au.
  Criteria marked as inactive (o), active & met (*), and active & unmet ( ).
  --------------------------------------------------------------------------------------------- ~
   Step     Total Energy     Delta E     MAX Force     RMS Force      MAX Disp      RMS Disp    ~
  --------------------------------------------------------------------------------------------- ~
    Convergence Criteria    1.00e-06 *    3.00e-04 *             o    1.20e-03 *             o  ~
  --------------------------------------------------------------------------------------------- ~
      1    -554.09701927   -5.54e+02      1.54e-02      5.34e-03 o    3.04e-02      9.31e-03 o  ~
  ---------------------------------------------------------------------------------------------

	Writing optimization data to binary file.
	Structure for next step:
	Cartesian Geometry (in Angstrom)
	    C    -1.2867735142   0.7253611338  -0.5567966912
	    C    -0.2908694214   0.1125624065   1.5475838591
	    C    -2.3579678671   1.2939875912   0.1106669685
	    C    -1.3608788033   0.6825982557   2.2167016125
	    C     1.1144985950  -0.1949503135  -1.9085656636
	    C     1.7692808564  -1.3382450295   0.0995988268
	    C     2.1843048099  -0.7718616891  -2.5556215767
	    C     2.8250487040  -1.8914949933  -0.5896727882
	    C    -0.2389890662   0.1260117484   0.1505189571
	    C     0.8870729519  -0.4707014010  -0.5553318986
	    C    -2.3984895501   1.2751261172   1.4988795137
	    N     3.0022775216  -1.5963119113  -1.8859147818
	    O    -3.4568349346   1.8400196947   2.1208716148
	    H    -1.2835019720   0.7526798896  -1.6368921312
	    H     0.5006891872  -0.3373258162   2.1299974373
	    H    -3.1630112782   1.7526792955  -0.4479010382
	    H    -1.3875268858   0.6669318132   3.2989229065
	    H     0.4685767669   0.4675239328  -2.4630905055
	    H     1.6407523538  -1.5896257271   1.1406002813
	    H     2.4196109996  -0.6023021644  -3.5952789560
	    H     3.5423970537  -2.5659529114  -0.1483741066
	    H     3.7851151137  -2.0133821082  -2.3779530070
	    H    -3.3592291954   1.7572438651   3.0779226690
			--------------------------
			 OPTKING Finished Execution 
			--------------------------

    Structure for next step:
    Molecular point group: c1
    Full point group: C1

    Geometry (in Angstrom), charge = 1, multiplicity = 1:

    C           -1.287312906320     0.725747664250    -0.556680728502
    C           -0.291408813496     0.112948936966     1.547699821745
    C           -2.358507259215     1.294374121635     0.110782931140
    C           -1.361418195404     0.682984786138     2.216817575190
    C            1.113959202867    -0.194563783025    -1.908449700898
    C            1.768741464285    -1.337858499088     0.099714789459
    C            2.183765417747    -0.771475158639    -2.555505613974
    C            2.824509311901    -1.891108462831    -0.589556825517
    C           -0.239528458351     0.126398278802     0.150634919808
    C            0.886533559751    -0.470314870621    -0.555215935952
    C           -2.399028942249     1.275512647630     1.498995476394
    N            3.001738129446    -1.595925380833    -1.885798819147
    O           -3.457374326713     1.840406225145     2.120987577518
    H           -1.284041364112     0.753066420039    -1.636776168537
    H            0.500149795122    -0.336939285736     2.130113399937
    H           -3.163550670281     1.753065825968    -0.447785075529
    H           -1.388066277947     0.667318343648     3.299038869206
    H            0.468037374757     0.467910463218    -2.462974542823
    H            1.640212961688    -1.589239196678     1.140716244017
    H            2.419071607526    -0.601915633935    -3.595162993298
    H            3.541857661618    -2.565566380932    -0.148258143871
    H            3.784575721637    -2.012995577822    -2.377837044297
    H           -3.359768587552     1.757630395532     3.078038631714

gradient() will perform analytic gradient computation.

*** tstart() called on gpu-2-12.local
*** at Sun Nov 12 07:51:10 2017

    SCF Algorithm Type (re)set to DF.

*** tstart() called on gpu-2-12.local
*** at Sun Nov 12 07:51:10 2017

   => Loading Basis Set <=

    Name: AUG-CC-PVTZ
    Role: ORBITAL
    Keyword: BASIS
    atoms 1-11  entry C          line   221 file /cbio/jclab/home/chayas/anaconda/envs/py35/share/psi4/basis/aug-cc-pvtz.gbs 
    atoms 12    entry N          line   267 file /cbio/jclab/home/chayas/anaconda/envs/py35/share/psi4/basis/aug-cc-pvtz.gbs 
    atoms 13    entry O          line   313 file /cbio/jclab/home/chayas/anaconda/envs/py35/share/psi4/basis/aug-cc-pvtz.gbs 
    atoms 14-23 entry H          line    34 file /cbio/jclab/home/chayas/anaconda/envs/py35/share/psi4/basis/aug-cc-pvtz.gbs 


         ---------------------------------------------------------
                                   SCF
            by Justin Turney, Rob Parrish, and Andy Simmonett
                              RHF Reference
                        8 Threads,   4768 MiB Core
         ---------------------------------------------------------

  ==> Geometry <==

    Molecular point group: c1
    Full point group: C1

    Geometry (in Angstrom), charge = 1, multiplicity = 1:

       Center              X                  Y                   Z               Mass       
    ------------   -----------------  -----------------  -----------------  -----------------
           C         -1.287312906320     0.725747664250    -0.556680728502    12.000000000000
           C         -0.291408813496     0.112948936966     1.547699821745    12.000000000000
           C         -2.358507259215     1.294374121635     0.110782931140    12.000000000000
           C         -1.361418195404     0.682984786138     2.216817575190    12.000000000000
           C          1.113959202867    -0.194563783025    -1.908449700898    12.000000000000
           C          1.768741464285    -1.337858499088     0.099714789459    12.000000000000
           C          2.183765417747    -0.771475158639    -2.555505613974    12.000000000000
           C          2.824509311901    -1.891108462831    -0.589556825517    12.000000000000
           C         -0.239528458351     0.126398278802     0.150634919808    12.000000000000
           C          0.886533559751    -0.470314870621    -0.555215935952    12.000000000000
           C         -2.399028942249     1.275512647630     1.498995476394    12.000000000000
           N          3.001738129446    -1.595925380833    -1.885798819147    14.003074004780
           O         -3.457374326713     1.840406225145     2.120987577518    15.994914619560
           H         -1.284041364112     0.753066420039    -1.636776168537     1.007825032070
           H          0.500149795122    -0.336939285736     2.130113399937     1.007825032070
           H         -3.163550670281     1.753065825968    -0.447785075529     1.007825032070
           H         -1.388066277947     0.667318343648     3.299038869206     1.007825032070
           H          0.468037374757     0.467910463218    -2.462974542823     1.007825032070
           H          1.640212961688    -1.589239196678     1.140716244017     1.007825032070
           H          2.419071607526    -0.601915633935    -3.595162993298     1.007825032070
           H          3.541857661618    -2.565566380932    -0.148258143871     1.007825032070
           H          3.784575721637    -2.012995577822    -2.377837044297     1.007825032070
           H         -3.359768587552     1.757630395532     3.078038631714     1.007825032070

  Running in c1 symmetry.

  Rotational constants: A =      0.09650  B =      0.01334  C =      0.01177 [cm^-1]
  Rotational constants: A =   2892.97684  B =    399.87618  C =    352.83355 [MHz]
  Nuclear repulsion =  713.065175364980973

  Charge       = 1
  Multiplicity = 1
  Electrons    = 90
  Nalpha       = 45
  Nbeta        = 45

  ==> Algorithm <==

  SCF Algorithm Type is DF.
  DIIS enabled.
  MOM disabled.
  Fractional occupation disabled.
  Guess Type is READ.
  Energy threshold   = 1.00e-10
  Density threshold  = 1.00e-10
  Integral threshold = 0.00e+00

  ==> Primary Basis <==

  Basis Set: AUG-CC-PVTZ
    Blend: AUG-CC-PVTZ
    Number of shells: 272
    Number of basis function: 828
    Number of Cartesian functions: 965
    Spherical Harmonics?: true
    Max angular momentum: 3

   => Loading Basis Set <=

    Name: (AUG-CC-PVTZ AUX)
    Role: JKFIT
    Keyword: DF_BASIS_SCF
    atoms 1-11  entry C          line   161 file /cbio/jclab/home/chayas/anaconda/envs/py35/share/psi4/basis/aug-cc-pvtz-jkfit.gbs 
    atoms 12    entry N          line   223 file /cbio/jclab/home/chayas/anaconda/envs/py35/share/psi4/basis/aug-cc-pvtz-jkfit.gbs 
    atoms 13    entry O          line   285 file /cbio/jclab/home/chayas/anaconda/envs/py35/share/psi4/basis/aug-cc-pvtz-jkfit.gbs 
    atoms 14-23 entry H          line    69 file /cbio/jclab/home/chayas/anaconda/envs/py35/share/psi4/basis/aug-cc-pvtz-jkfit.gbs 

  Reading orbitals from file 180, no projection.

  ==> Pre-Iterations <==

   -------------------------------------------------------
    Irrep   Nso     Nmo     Nalpha   Nbeta   Ndocc  Nsocc
   -------------------------------------------------------
     A        828     828       0       0       0       0
   -------------------------------------------------------
    Total     828     828      45      45      45       0
   -------------------------------------------------------

  ==> Integral Setup <==

  ==> DFJK: Density-Fitted J/K Matrices <==

    J tasked:                  Yes
    K tasked:                  Yes
    wK tasked:                  No
    OpenMP threads:              8
    Integrals threads:           8
    Memory (MB):              3576
    Algorithm:                Disk
    Integral Cache:           NONE
    Schwarz Cutoff:          1E-12
    Fitting Condition:       1E-12

   => Auxiliary Basis Set <=

  Basis Set: (AUG-CC-PVTZ AUX)
    Blend: AUG-CC-PVTZ-JKFIT
    Number of shells: 530
    Number of basis function: 1812
    Number of Cartesian functions: 2253
    Spherical Harmonics?: true
    Max angular momentum: 4

  Minimum eigenvalue in the overlap matrix is 4.9677108590E-07.
  Using Symmetric Orthogonalization.

  SCF Guess: Orbitals guess was supplied from a previous computation.

  ==> Iterations <==

                           Total Energy        Delta E     RMS |[F,P]|

   @DF-RHF iter   0:  -551.82433292554572   -5.51824e+02   5.67561e-04 
   @DF-RHF iter   1:  -551.67905103240889    1.45282e-01   1.31903e-04 
   @DF-RHF iter   2:  -551.67975240033263   -7.01368e-04   1.01296e-04 DIIS
   @DF-RHF iter   3:  -551.68035183054383   -5.99430e-04   1.34742e-05 DIIS
   @DF-RHF iter   4:  -551.68036375361680   -1.19231e-05   4.74712e-06 DIIS
   @DF-RHF iter   5:  -551.68036625956893   -2.50595e-06   1.45790e-06 DIIS
   @DF-RHF iter   6:  -551.68036676807628   -5.08507e-07   8.29510e-07 DIIS
   @DF-RHF iter   7:  -551.68036697073092   -2.02655e-07   4.12234e-07 DIIS
   @DF-RHF iter   8:  -551.68036703925213   -6.85212e-08   1.43535e-07 DIIS
   @DF-RHF iter   9:  -551.68036704672431   -7.47218e-09   5.22630e-08 DIIS
   @DF-RHF iter  10:  -551.68036704729411   -5.69798e-10   2.07751e-08 DIIS
   @DF-RHF iter  11:  -551.68036704736096   -6.68479e-11   5.53549e-09 DIIS
   @DF-RHF iter  12:  -551.68036704737574   -1.47793e-11   1.61052e-09 DIIS
   @DF-RHF iter  13:  -551.68036704737892   -3.18323e-12   1.17165e-09 DIIS
   @DF-RHF iter  14:  -551.68036704737267    6.25278e-12   4.77426e-10 DIIS
   @DF-RHF iter  15:  -551.68036704737153    1.13687e-12   1.96309e-10 DIIS
   @DF-RHF iter  16:  -551.68036704738074   -9.20863e-12   7.17302e-11 DIIS

  ==> Post-Iterations <==

    Orbital Energies (a.u.)
    -----------------------

    Doubly Occupied:                                                      

       1A    -20.708488     2A    -15.826435     3A    -11.479329  
       4A    -11.479254     5A    -11.449656     6A    -11.437187  
       7A    -11.409891     8A    -11.409519     9A    -11.382175  
      10A    -11.379641    11A    -11.374734    12A    -11.357805  
      13A    -11.352052    14A     -1.528292    15A     -1.506685  
      16A     -1.317880    17A     -1.266509    18A     -1.236256  
      19A     -1.157205    20A     -1.155779    21A     -1.064384  
      22A     -1.055936    23A     -0.979517    24A     -0.960664  
      25A     -0.953799    26A     -0.873193    27A     -0.860857  
      28A     -0.854756    29A     -0.821926    30A     -0.799206  
      31A     -0.779673    32A     -0.772249    33A     -0.760470  
      34A     -0.735497    35A     -0.719996    36A     -0.711267  
      37A     -0.703722    38A     -0.686154    39A     -0.659506  
      40A     -0.643394    41A     -0.621289    42A     -0.569339  
      43A     -0.537914    44A     -0.474073    45A     -0.437495  

    Virtual:                                                              

      46A     -0.107082    47A     -0.082790    48A     -0.062398  
      49A     -0.061031    50A     -0.059080    51A     -0.046242  
      52A     -0.044214    53A     -0.039562    54A     -0.031526  
      55A     -0.025931    56A     -0.025018    57A     -0.021783  
      58A     -0.017904    59A     -0.007674    60A     -0.005443  
      61A     -0.001194    62A      0.005323    63A      0.006326  
      64A      0.009215    65A      0.017503    66A      0.019462  
      67A      0.021373    68A      0.024976    69A      0.026088  
      70A      0.030429    71A      0.032517    72A      0.034675  
      73A      0.036713    74A      0.040184    75A      0.048820  
      76A      0.049832    77A      0.056659    78A      0.059925  
      79A      0.063359    80A      0.065675    81A      0.070570  
      82A      0.073828    83A      0.076857    84A      0.079284  
      85A      0.085069    86A      0.086311    87A      0.087936  
      88A      0.096673    89A      0.101372    90A      0.105859  
      91A      0.108242    92A      0.114319    93A      0.120353  
      94A      0.126433    95A      0.130280    96A      0.133971  
      97A      0.135226    98A      0.137598    99A      0.142905  
     100A      0.146469   101A      0.150711   102A      0.155564  
     103A      0.159583   104A      0.165023   105A      0.165796  
     106A      0.170282   107A      0.171457   108A      0.174119  
     109A      0.178929   110A      0.184733   111A      0.188612  
     112A      0.190059   113A      0.196608   114A      0.198335  
     115A      0.207411   116A      0.210180   117A      0.211665  
     118A      0.217847   119A      0.221090   120A      0.224713  
     121A      0.226044   122A      0.228569   123A      0.230900  
     124A      0.234689   125A      0.236709   126A      0.243265  
     127A      0.245473   128A      0.249844   129A      0.253954  
     130A      0.255789   131A      0.265691   132A      0.271569  
     133A      0.274955   134A      0.282022   135A      0.283734  
     136A      0.286089   137A      0.290598   138A      0.296957  
     139A      0.304255   140A      0.304599   141A      0.306398  
     142A      0.310657   143A      0.314741   144A      0.319642  
     145A      0.325663   146A      0.328247   147A      0.330777  
     148A      0.335690   149A      0.336901   150A      0.338059  
     151A      0.340481   152A      0.345174   153A      0.350211  
     154A      0.353856   155A      0.355117   156A      0.359175  
     157A      0.365293   158A      0.366999   159A      0.369678  
     160A      0.374814   161A      0.379285   162A      0.383068  
     163A      0.387198   164A      0.389727   165A      0.391992  
     166A      0.393282   167A      0.394810   168A      0.399424  
     169A      0.405012   170A      0.408530   171A      0.411684  
     172A      0.416401   173A      0.419435   174A      0.421725  
     175A      0.431528   176A      0.432117   177A      0.436862  
     178A      0.439233   179A      0.446368   180A      0.448462  
     181A      0.451231   182A      0.458033   183A      0.462647  
     184A      0.465777   185A      0.471091   186A      0.481839  
     187A      0.493966   188A      0.496770   189A      0.502768  
     190A      0.507687   191A      0.510256   192A      0.514085  
     193A      0.525046   194A      0.533755   195A      0.538247  
     196A      0.538942   197A      0.545191   198A      0.550768  
     199A      0.561282   200A      0.566003   201A      0.570146  
     202A      0.576517   203A      0.576789   204A      0.584735  
     205A      0.587590   206A      0.589926   207A      0.594349  
     208A      0.596372   209A      0.607003   210A      0.616254  
     211A      0.620072   212A      0.626871   213A      0.632176  
     214A      0.637267   215A      0.642286   216A      0.644051  
     217A      0.647402   218A      0.655178   219A      0.659819  
     220A      0.669583   221A      0.677030   222A      0.681104  
     223A      0.686535   224A      0.700071   225A      0.703502  
     226A      0.707568   227A      0.713274   228A      0.718429  
     229A      0.723089   230A      0.723847   231A      0.734540  
     232A      0.735716   233A      0.737384   234A      0.743198  
     235A      0.746024   236A      0.749513   237A      0.759453  
     238A      0.762019   239A      0.767071   240A      0.773378  
     241A      0.776235   242A      0.779409   243A      0.783219  
     244A      0.786829   245A      0.789317   246A      0.796937  
     247A      0.800069   248A      0.805272   249A      0.805558  
     250A      0.808406   251A      0.813012   252A      0.815252  
[...]
	 B(4,2,9)         =         2.113055	     121.069156
	 B(4,2,15)        =         2.059763	     118.015752
	 B(4,11,13)       =         2.156333	     123.548806
	 B(5,7,12)        =         2.087810	     119.622709
	 B(5,7,20)        =         2.154399	     123.437981
	 B(5,10,6)        =         2.028086	     116.200744
	 B(5,10,9)        =         2.127640	     121.904810
	 B(6,8,12)        =         2.087630	     119.612389
	 B(6,8,21)        =         2.154579	     123.448281
	 B(6,10,9)        =         2.127366	     121.889103
	 B(7,5,10)        =         2.115745	     121.223286
	 B(7,5,18)        =         2.052159	     117.580037
	 B(7,12,8)        =         2.131121	     122.104256
	 B(7,12,22)       =         2.076000	     118.946046
	 B(8,6,10)        =         2.115957	     121.235431
	 B(8,6,19)        =         2.052163	     117.580288
	 B(8,12,22)       =         2.076062	     118.949611
	 B(9,1,14)        =         2.109590	     120.870580
	 B(9,2,15)        =         2.109664	     120.874817
	 B(10,5,18)       =         2.114915	     121.175700
	 B(10,6,19)       =         2.114765	     121.167122
	 B(11,3,16)       =         2.074217	     118.843859
	 B(11,4,17)       =         2.095011	     120.035289
	 B(11,13,23)      =         1.930785	     110.625859
	 B(12,7,20)       =         2.040957	     116.938238
	 B(12,8,21)       =         2.040936	     116.937043
	 D(1,3,11,4)      =        -0.001820	      -0.104300
	 D(1,3,11,13)     =         3.137746	     179.779581
	 D(1,9,2,4)       =         0.002283	       0.130820
	 D(1,9,2,15)      =        -3.098223	    -177.515078
	 D(1,9,10,5)      =         0.264026	      15.127594
	 D(1,9,10,6)      =        -2.862330	    -163.999436
	 D(2,4,11,3)      =        -0.006510	      -0.372976
	 D(2,4,11,13)     =         3.137252	     179.751318
	 D(2,9,1,3)       =        -0.010733	      -0.614936
	 D(2,9,1,14)      =        -3.110407	    -178.213206
	 D(2,9,10,5)      =        -2.858742	    -163.793832
	 D(2,9,10,6)      =         0.298087	      17.079138
	 D(3,1,9,10)      =        -3.134017	    -179.565937
	 D(3,11,4,17)     =         3.126554	     179.138325
	 D(3,11,13,23)    =         3.137897	     179.788244
	 D(4,2,9,10)      =         3.125597	     179.083511
	 D(4,11,3,16)     =         3.132084	     179.455193
	 D(4,11,13,23)    =        -0.005810	      -0.332915
	 D(5,7,12,8)      =         0.001276	       0.073096
	 D(5,7,12,22)     =         3.140978	     179.964784
	 D(5,10,6,8)      =         0.006804	       0.389868
	 D(5,10,6,19)     =        -3.107851	    -178.066761
	 D(6,8,12,7)      =        -0.001001	      -0.057348
	 D(6,8,12,22)     =        -3.140703	    -179.949033
	 D(6,10,5,7)      =        -0.006528	      -0.374030
	 D(6,10,5,18)     =        -3.118337	    -178.667540
	 D(7,5,10,9)      =        -3.133703	    -179.547939
	 D(7,12,8,21)     =         3.131322	     179.411543
	 D(8,6,10,9)      =         3.133982	     179.563919
	 D(8,12,7,20)     =         3.136519	     179.709310
	 D(9,1,3,11)      =         0.010575	       0.605879
	 D(9,1,3,16)      =        -3.123153	    -178.943512
	 D(9,2,4,11)      =         0.006232	       0.357088
	 D(9,2,4,17)      =        -3.126843	    -179.154896
	 D(9,10,5,18)     =         0.037674	       2.158550
	 D(9,10,6,19)     =         0.019326	       1.107289
	 D(10,5,7,12)     =         0.002695	       0.154405
	 D(10,5,7,20)     =        -3.132115	    -179.456955
	 D(10,6,8,12)     =        -0.003249	      -0.186149
	 D(10,6,8,21)     =        -3.134937	    -179.618679
	 D(10,9,1,14)     =         0.049494	       2.835792
	 D(10,9,2,15)     =         0.025091	       1.437613
	 D(11,3,1,14)     =         3.111441	     178.272415
	 D(11,4,2,15)     =         3.107880	     178.068428
	 D(12,7,5,18)     =         3.115538	     178.507193
	 D(12,8,6,19)     =         3.112340	     178.323951
	 D(13,11,3,16)    =        -0.011535	      -0.660925
	 D(13,11,4,17)    =        -0.012870	      -0.737381
	 D(14,1,3,16)     =        -0.022287	      -1.276977
	 D(15,2,4,17)     =        -0.025195	      -1.443556
	 D(18,5,7,20)     =        -0.019271	      -1.104166
	 D(19,6,8,21)     =        -0.019348	      -1.108579
	 D(20,7,12,22)    =        -0.006964	      -0.399002
	 D(21,8,12,22)    =        -0.008380	      -0.480142

	Current energy   :      -554.1020080080

	Energy change for the previous step:
		Projected    :        -0.0000244514
		Actual       :        -0.0000041282

	Performing BFGS update.
	Previous computed or guess Hessian on step 1.
	Steps to be used in Hessian update: 4 3
	Adding user-defined constraint: Fragment 1; Coordinate 66:
		Value =     0.264026; Fixed value    =     0.261800
		Force =    -0.001336; Force constant =     0.600000
	Removing off-diagonal coupling between coordinate 66 and others.
	Taking RFO optimization step.
	Going to follow RFO solution 1.
	Using RFO vector 1.
	Norm of target step-size    0.00342
	Projected energy change by RFO approximation:         0.0000000891

	Back-transformation to cartesian coordinates...
	Successfully converged to displaced geometry.

	--- Internal Coordinate Step in ANG or DEG, aJ/ANG or AJ/DEG ---
	 ---------------------------------------------------------------------------
	   Coordinate                Previous        Force       Change         New 
	   ----------                --------       ------       ------       ------
	    1 R(1,3)          =      1.376537    -0.000446    -0.000102     1.376435
	    2 R(1,9)          =      1.401139     0.000362     0.000067     1.401205
	    3 R(1,14)         =      1.078338     0.000068     0.000006     1.078344
	    4 R(2,4)          =      1.379025     0.000348     0.000037     1.379063
	    5 R(2,9)          =      1.399241     0.000234     0.000007     1.399249
	    6 R(2,15)         =      1.078502    -0.000349    -0.000058     1.078444
	    7 R(3,11)         =      1.393276     0.000483     0.000070     1.393346
	    8 R(3,16)         =      1.078556     0.000082     0.000012     1.078567
	    9 R(4,11)         =      1.393148    -0.000224    -0.000032     1.393116
	   10 R(4,17)         =      1.080315     0.000003    -0.000010     1.080305
	   11 R(5,7)          =      1.370757     0.000313     0.000019     1.370775
	   12 R(5,10)         =      1.403569    -0.000170    -0.000019     1.403549
	   13 R(5,18)         =      1.076452     0.000036     0.000003     1.076455
	   14 R(6,8)          =      1.370700     0.000294     0.000019     1.370719
	   15 R(6,10)         =      1.403521     0.000293     0.000037     1.403557
	   16 R(6,19)         =      1.076563    -0.000322    -0.000056     1.076507
	   17 R(7,12)         =      1.343355    -0.000471    -0.000052     1.343303
	   18 R(7,20)         =      1.077292     0.000040     0.000004     1.077296
	   19 R(8,12)         =      1.343438    -0.000284    -0.000031     1.343408
	   20 R(8,21)         =      1.077277     0.000036     0.000002     1.077279
	   21 R(9,10)         =      1.444663     0.000643     0.000029     1.444692
	   22 R(11,13)        =      1.341673     0.000500     0.000026     1.341699
	   23 R(12,22)        =      1.011417     0.000010    -0.000003     1.011414
	   24 R(13,23)        =      0.963950     0.000251     0.000021     0.963971
	   25 B(1,3,11)       =    120.058302     0.000002     0.007296   120.065598
	   26 B(1,3,16)       =    121.096340     0.000003     0.018550   121.114890
	   27 B(1,9,2)        =    118.067672     0.000001     0.006094   118.073766
	   28 B(1,9,10)       =    121.038909    -0.000010    -0.025099   121.013810
	   29 B(2,4,11)       =    120.066692    -0.000002    -0.007755   120.058937
	   30 B(2,4,17)       =    119.896218    -0.000000    -0.004386   119.891832
	   31 B(2,9,10)       =    120.884959     0.000009     0.018519   120.903478
	   32 B(3,1,9)        =    121.145782    -0.000002    -0.010938   121.134844
	   33 B(3,1,14)       =    117.941778     0.000008     0.037895   117.979672
	   34 B(3,11,4)       =    119.588597     0.000001     0.003056   119.591653
	   35 B(3,11,13)      =    116.862487     0.000001    -0.001492   116.860995
	   36 B(4,2,9)        =    121.069156     0.000001     0.001569   121.070725
	   37 B(4,2,15)       =    118.015752     0.000002     0.013271   118.029023
	   38 B(4,11,13)      =    123.548806    -0.000001    -0.001559   123.547247
	   39 B(5,7,12)       =    119.622709     0.000002     0.004226   119.626935
	   40 B(5,7,20)       =    123.437981    -0.000001    -0.006462   123.431519
	   41 B(5,10,6)       =    116.200744    -0.000000     0.002626   116.203370
	   42 B(5,10,9)       =    121.904810    -0.000010    -0.027989   121.876821
	   43 B(6,8,12)       =    119.612389     0.000002     0.004589   119.616979
	   44 B(6,8,21)       =    123.448281    -0.000001    -0.006735   123.441546
	   45 B(6,10,9)       =    121.889103     0.000010     0.024904   121.914008
	   46 B(7,5,10)       =    121.223286    -0.000001    -0.003335   121.219951
	   47 B(7,5,18)       =    117.580037     0.000003     0.011494   117.591531
	   48 B(7,12,8)       =    122.104256    -0.000001    -0.002573   122.101683
	   49 B(7,12,22)      =    118.946046     0.000000     0.000685   118.946731
	   50 B(8,6,10)       =    121.235431    -0.000002    -0.005645   121.229786
	   51 B(8,6,19)       =    117.580288     0.000001     0.002478   117.582766
	   52 B(8,12,22)      =    118.949611     0.000000     0.001879   118.951490
	   53 B(9,1,14)       =    120.870580    -0.000006    -0.028065   120.842516
	   54 B(9,2,15)       =    120.874817    -0.000003    -0.015775   120.859042
	   55 B(10,5,18)      =    121.175700    -0.000002    -0.007807   121.167893
	   56 B(10,6,19)      =    121.167122     0.000001     0.002912   121.170034
	   57 B(11,3,16)      =    118.843859    -0.000005    -0.025522   118.818337
	   58 B(11,4,17)      =    120.035289     0.000002     0.012387   120.047675
	   59 B(11,13,23)     =    110.625859     0.000004     0.013419   110.639278
	   60 B(12,7,20)      =    116.938238    -0.000001     0.002287   116.940525
	   61 B(12,8,21)      =    116.937043    -0.000001     0.001980   116.939023
	   62 D(1,3,11,4)     =     -0.104300    -0.000000    -0.034091    -0.138392
	   63 D(1,3,11,13)    =    179.779581    -0.000000    -0.031587   179.747994
	   64 D(1,9,2,4)      =      0.130820    -0.000000    -0.022274     0.108546
	   65 D(1,9,2,15)     =   -177.515078     0.000000     0.004585  -177.510493
	   66 D(1,9,10,5)     =     15.127594     0.000000    -0.003726    15.123868
	   67 D(1,9,10,6)     =   -163.999436     0.000000     0.032951  -163.966485
	   68 D(2,4,11,3)     =     -0.372976    -0.000000    -0.022513    -0.395489
	   69 D(2,4,11,13)    =    179.751318    -0.000000    -0.025194   179.726124
	   70 D(2,9,1,3)      =     -0.614936    -0.000000    -0.035042    -0.649978
	   71 D(2,9,1,14)     =   -178.213206    -0.000000    -0.004396  -178.217602
	   72 D(2,9,10,5)     =   -163.793832     0.000000     0.026736  -163.767097
	   73 D(2,9,10,6)     =     17.079138     0.000000     0.063413    17.142551
	   74 D(3,1,9,10)     =   -179.565937    -0.000000    -0.005563  -179.571500
	   75 D(3,11,4,17)    =    179.138325     0.000000     0.012032   179.150357
	   76 D(3,11,13,23)   =    179.788244     0.000000     0.016820   179.805064
	   77 D(4,2,9,10)     =    179.083511    -0.000000    -0.052198   179.031314
	   78 D(4,11,3,16)    =    179.455193     0.000000     0.016535   179.471729
	   79 D(4,11,13,23)   =     -0.332915     0.000000     0.019438    -0.313476
	   80 D(5,7,12,8)     =      0.073096     0.000000     0.003504     0.076599
	   81 D(5,7,12,22)    =    179.964784    -0.000000    -0.001755   179.963029
	   82 D(5,10,6,8)     =      0.389868     0.000000     0.021856     0.411725
	   83 D(5,10,6,19)    =   -178.066761     0.000000     0.033268  -178.033493
	   84 D(6,8,12,7)     =     -0.057348     0.000000     0.005235    -0.052113
	   85 D(6,8,12,22)    =   -179.949033     0.000000     0.010496  -179.938537
	   86 D(6,10,5,7)     =     -0.374030    -0.000000    -0.013102    -0.387132
	   87 D(6,10,5,18)    =   -178.667540    -0.000000    -0.027704  -178.695244
	   88 D(7,5,10,9)     =   -179.547939     0.000000     0.021391  -179.526548
	   89 D(7,12,8,21)    =    179.411543    -0.000000    -0.013737   179.397806
	   90 D(8,6,10,9)     =    179.563919    -0.000000    -0.013126   179.550793
	   91 D(8,12,7,20)    =    179.709310     0.000000     0.012158   179.721467
	   92 D(9,1,3,11)     =      0.605879     0.000000     0.063262     0.669141
	   93 D(9,1,3,16)     =   -178.943512     0.000000     0.011650  -178.931862
	   94 D(9,2,4,11)     =      0.357088     0.000000     0.050856     0.407945
	   95 D(9,2,4,17)     =   -179.154896     0.000000     0.016283  -179.138613
	   96 D(9,10,5,18)    =      2.158550     0.000000     0.006789     2.165340
	   97 D(9,10,6,19)    =      1.107289     0.000000    -0.001715     1.105575
	   98 D(10,5,7,12)    =      0.154405     0.000000     0.000853     0.155258
	   99 D(10,5,7,20)    =   -179.456955    -0.000000    -0.008428  -179.465382
	  100 D(10,6,8,12)    =     -0.186149    -0.000000    -0.018441    -0.204590
	  101 D(10,6,8,21)    =   -179.618679     0.000000     0.001774  -179.616905
	  102 D(10,9,1,14)    =      2.835792     0.000000     0.025083     2.860875
	  103 D(10,9,2,15)    =      1.437613    -0.000000    -0.025339     1.412274
	  104 D(11,3,1,14)    =    178.272415     0.000000     0.031965   178.304380
	  105 D(11,4,2,15)    =    178.068428     0.000000     0.024078   178.092506
	  106 D(12,7,5,18)    =    178.507193     0.000000     0.014642   178.521835
	  107 D(12,8,6,19)    =    178.323951    -0.000000    -0.029444   178.294507
	  108 D(13,11,3,16)   =     -0.660925     0.000000     0.019040    -0.641885
	  109 D(13,11,4,17)   =     -0.737381     0.000000     0.009351    -0.728031
	  110 D(14,1,3,16)    =     -1.276977    -0.000000    -0.019647    -1.296624
	  111 D(15,2,4,17)    =     -1.443556    -0.000000    -0.010495    -1.454051
	  112 D(18,5,7,20)    =     -1.104166     0.000000     0.005361    -1.098805
	  113 D(19,6,8,21)    =     -1.108579    -0.000000    -0.009229    -1.117808
	  114 D(20,7,12,22)   =     -0.399002    -0.000000     0.006899    -0.392103
	  115 D(21,8,12,22)   =     -0.480142    -0.000000    -0.008477    -0.488619
	 ---------------------------------------------------------------------------
	Successfully symmetrized geometry.
	 Forces used to impose fixed constraints are not included.
	  Forces zeroed: 66 

  ==> Convergence Check <==

  Measures of convergence in internal coordinates in au.
  Criteria marked as inactive (o), active & met (*), and active & unmet ( ).
  ---------------------------------------------------------------------------------------------
   Step     Total Energy     Delta E     MAX Force     RMS Force      MAX Disp      RMS Disp   
  ---------------------------------------------------------------------------------------------
    Convergence Criteria    1.00e-06 *    3.00e-04 *             o    1.20e-03 *             o
  ---------------------------------------------------------------------------------------------
      5    -554.10200801   -4.13e-06      1.38e-04 *    3.51e-05 o    1.11e-03 *    3.19e-04 o  ~
  ---------------------------------------------------------------------------------------------


  **** Optimization is complete! (in 5 steps) ****

  ==> Optimization Summary <==

  Measures of convergence in internal coordinates in au.
  --------------------------------------------------------------------------------------------------------------- ~
   Step         Total Energy             Delta E       MAX Force       RMS Force        MAX Disp        RMS Disp  ~
  --------------------------------------------------------------------------------------------------------------- ~
      1    -554.097019272064   -554.097019272064      0.01539987      0.00534554      0.03039340      0.00931215  ~
      2    -554.100849852205     -0.003830580142      0.00726374      0.00211200      0.03023540      0.00931197  ~
      3    -554.101924506371     -0.001074654166      0.00169163      0.00042713      0.02219326      0.00612606  ~
      4    -554.102003879861     -0.000079373490      0.00074447      0.00011973      0.00365060      0.00116936  ~
      5    -554.102008008023     -0.000004128162      0.00013751      0.00003509      0.00110676      0.00031919  ~
  --------------------------------------------------------------------------------------------------------------- ~

	Writing optimization data to binary file.
	Final energy is   -554.1020080080228
	Final (previous) structure:
	Cartesian Geometry (in Angstrom)
	    C    -1.2973440199   0.7203830935  -0.5454160798
	    C    -0.2947509368   0.1179003815   1.5516776015
	    C    -2.3624670610   1.2838548984   0.1200654926
	    C    -1.3541487092   0.6894134127   2.2245523854
	    C     1.1295310093  -0.1924345268  -1.9011675621
	    C     1.7689771244  -1.3470264717   0.0831269785
	    C     2.1924761360  -0.7600420220  -2.5545768661
	    C     2.8234692170  -1.8988382628  -0.5968504576
	    C    -0.2423904519   0.1188058964   0.1534166993
	    C     0.8788293597  -0.4636419383  -0.5470627813
	    C    -2.3993655067   1.2740666638   1.5128186100
	    N     3.0105681775  -1.5944195376  -1.8918984385
	    O    -3.4648993194   1.8447814260   2.0950639589
	    H    -1.3173084397   0.7216038289  -1.6235682696
	    H     0.5116004905  -0.2970505110   2.1354405938
	    H    -3.1822488283   1.7317665699  -0.4190221613
	    H    -1.3685896693   0.6901175662   3.3047709343
	    H     0.5097280830   0.4900978864  -2.4568137555
	    H     1.6337180569  -1.6348014912   1.1116588723
	    H     2.4229068951  -0.5704841411  -3.5897225610
	    H     3.5241667044  -2.5846921881  -0.1505845871
	    H     3.7913960229  -2.0079000284  -2.3841437316
	    H    -3.4000591052   1.7848212256   3.0549593734
	Saving final (previous) structure.
			--------------------------
			 OPTKING Finished Execution 
			--------------------------

    Final optimized geometry and variables:
    Molecular point group: c1
    Full point group: C1

    Geometry (in Angstrom), charge = 1, multiplicity = 1:

    C           -1.297344019858     0.720383093453    -0.545416079771
    C           -0.294750936769     0.117900381455     1.551677601509
    C           -2.362467061014     1.283854898387     0.120065492638
    C           -1.354148709154     0.689413412693     2.224552385416
    C            1.129531009260    -0.192434526810    -1.901167562091
    C            1.768977124403    -1.347026471707     0.083126978517
    C            2.192476135997    -0.760042022012    -2.554576866122
    C            2.823469216965    -1.898838262772    -0.596850457604
    C           -0.242390451937     0.118805896391     0.153416699273
    C            0.878829359720    -0.463641938349    -0.547062781273
    C           -2.399365506728     1.274066663793     1.512818609992
    N            3.010568177503    -1.594419537635    -1.891898438470
    O           -3.464899319428     1.844781426048     2.095063958917
    H           -1.317308439732     0.721603828871    -1.623568269562
    H            0.511600490476    -0.297050510983     2.135440593784
    H           -3.182248828265     1.731766569948    -0.419022161294
    H           -1.368589669316     0.690117566218     3.304770934345
    H            0.509728082992     0.490097886368    -2.456813755548
    H            1.633718056901    -1.634801491177     1.111658872324
    H            2.422906895119    -0.570484141054    -3.589722560989
    H            3.524166704442    -2.584692188058    -0.150584587130
    H            3.791396022939    -2.007900028439    -2.384143731576
    H           -3.400059105196     1.784821225627     3.054959373396

	Cleaning optimization helper files.

*** Psi4 exiting successfully. Buy a developer a beer!
