
    -----------------------------------------------------------------------
          Psi4: An Open-Source Ab Initio Electronic Structure Package
                               Psi4 1.1 release

                         Git: Rev {HEAD} add49b9 


    R. M. Parrish, L. A. Burns, D. G. A. Smith, A. C. Simmonett,
    A. E. DePrince III, E. G. Hohenstein, U. Bozkaya, A. Yu. Sokolov,
    R. Di Remigio, R. M. Richard, J. F. Gonthier, A. M. James,
    H. R. McAlexander, A. Kumar, M. Saitow, X. Wang, B. P. Pritchard,
    P. Verma, H. F. Schaefer III, K. Patkowski, R. A. King, E. F. Valeev,
    F. A. Evangelista, J. M. Turney, T. D. Crawford, and C. D. Sherrill,
    J. Chem. Theory Comput. in press (2017).
    (doi: 10.1021/acs.jctc.7b00174)

    -----------------------------------------------------------------------


    Psi4 started on: Saturday, 11 November 2017 06:14PM

    Process ID:  12088
    PSIDATADIR: /cbio/jclab/home/chayas/anaconda/envs/py35/share/psi4
    Memory:     500.0 MiB
    Threads:    8
    
  ==> Input File <==

--------------------------------------------------------------------------

memory 5 Gb

molecule phepyrFOH_anion {
  symmetry C1
  -1 1 
  C      1.885   -1.036   -0.112
  C      0.807   -0.463   0.561
  C      4.323   -3.576   0.061
  C      4.830   -1.444   -0.931
  C      1.800   -1.079   2.676
  C      5.402   -4.096   -0.635
  C      5.886   -2.060   -1.582
  C      2.921   -1.631   0.608
  C      4.038   -2.224   -0.095
  C      0.764   -0.484   1.955
  C      2.878   -1.652   2.002
  N      6.194   -3.370   -1.455
  O      -0.227   0.043   2.574
  F      3.866   -2.220   2.709
  H      1.904   -1.013   -1.200
  H      0.011   -0.007   -0.025
  H      3.727   -4.217   0.704
  H      4.638   -0.386   -1.077
  H      1.791   -1.109   3.764
  H      5.665   -5.145   -0.548
  H      6.535   -1.495   -2.244
  units Angstrom
}

dih_string = "1 8 9 3 240"
set optking fixed_dihedral = $dih_string

optimize('MP2/aug-cc-PVTZ')
--------------------------------------------------------------------------

  Memory set to   4.657 GiB by Python driver.
gradient() will perform analytic gradient computation.

*** tstart() called on gpu-2-6.local
*** at Sat Nov 11 18:14:51 2017

    SCF Algorithm Type (re)set to DF.

*** tstart() called on gpu-2-6.local
*** at Sat Nov 11 18:14:51 2017

   => Loading Basis Set <=

    Name: AUG-CC-PVTZ
    Role: ORBITAL
    Keyword: BASIS
    atoms 1-11  entry C          line   221 file /cbio/jclab/home/chayas/anaconda/envs/py35/share/psi4/basis/aug-cc-pvtz.gbs 
    atoms 12    entry N          line   267 file /cbio/jclab/home/chayas/anaconda/envs/py35/share/psi4/basis/aug-cc-pvtz.gbs 
    atoms 13    entry O          line   313 file /cbio/jclab/home/chayas/anaconda/envs/py35/share/psi4/basis/aug-cc-pvtz.gbs 
    atoms 14    entry F          line   359 file /cbio/jclab/home/chayas/anaconda/envs/py35/share/psi4/basis/aug-cc-pvtz.gbs 
    atoms 15-21 entry H          line    34 file /cbio/jclab/home/chayas/anaconda/envs/py35/share/psi4/basis/aug-cc-pvtz.gbs 


         ---------------------------------------------------------
                                   SCF
            by Justin Turney, Rob Parrish, and Andy Simmonett
                              RHF Reference
                        8 Threads,   4768 MiB Core
         ---------------------------------------------------------

  ==> Geometry <==

    Molecular point group: c1
    Full point group: C1

    Geometry (in Angstrom), charge = -1, multiplicity = 1:

       Center              X                  Y                   Z               Mass       
    ------------   -----------------  -----------------  -----------------  -----------------
           C         -1.345083346141     0.767209598919    -0.780585126987    12.000000000000
           C         -2.423083346141     1.340209598919    -0.107585126987    12.000000000000
           C          1.092916653859    -1.772790401081    -0.607585126987    12.000000000000
           C          1.599916653859     0.359209598919    -1.599585126987    12.000000000000
           C         -1.430083346141     0.724209598919     2.007414873013    12.000000000000
           C          2.171916653859    -2.292790401081    -1.303585126987    12.000000000000
           C          2.655916653859    -0.256790401081    -2.250585126987    12.000000000000
           C         -0.309083346141     0.172209598919    -0.060585126987    12.000000000000
           C          0.807916653859    -0.420790401081    -0.763585126987    12.000000000000
           C         -2.466083346141     1.319209598919     1.286414873013    12.000000000000
           C         -0.352083346141     0.151209598919     1.333414873013    12.000000000000
           N          2.963916653859    -1.566790401081    -2.123585126987    14.003074004780
           O         -3.457083346141     1.846209598919     1.905414873013    15.994914619560
           F          0.635916653859    -0.416790401081     2.040414873013    18.998403224000
           H         -1.326083346141     0.790209598919    -1.868585126987     1.007825032070
           H         -3.219083346141     1.796209598919    -0.693585126987     1.007825032070
           H          0.496916653859    -2.413790401081     0.035414873013     1.007825032070
           H          1.407916653859     1.417209598919    -1.745585126987     1.007825032070
           H         -1.439083346141     0.694209598919     3.095414873013     1.007825032070
           H          2.434916653859    -3.341790401081    -1.216585126987     1.007825032070
           H          3.304916653859     0.308209598919    -2.912585126987     1.007825032070

  Running in c1 symmetry.

  Rotational constants: A =      0.06332  B =      0.01343  C =      0.01193 [cm^-1]
  Rotational constants: A =   1898.40269  B =    402.74582  C =    357.78600 [MHz]
  Nuclear repulsion =  801.687012656211095

  Charge       = -1
  Multiplicity = 1
  Electrons    = 98
  Nalpha       = 49
  Nbeta        = 49

  ==> Algorithm <==

  SCF Algorithm Type is DF.
  DIIS enabled.
  MOM disabled.
  Fractional occupation disabled.
  Guess Type is SAD.
  Energy threshold   = 1.00e-10
  Density threshold  = 1.00e-10
  Integral threshold = 0.00e+00

  ==> Primary Basis <==

  Basis Set: AUG-CC-PVTZ
    Blend: AUG-CC-PVTZ
    Number of shells: 259
    Number of basis function: 805
    Number of Cartesian functions: 945
    Spherical Harmonics?: true
    Max angular momentum: 3

   => Loading Basis Set <=

    Name: (AUG-CC-PVTZ AUX)
    Role: JKFIT
    Keyword: DF_BASIS_SCF
    atoms 1-11  entry C          line   161 file /cbio/jclab/home/chayas/anaconda/envs/py35/share/psi4/basis/aug-cc-pvtz-jkfit.gbs 
    atoms 12    entry N          line   223 file /cbio/jclab/home/chayas/anaconda/envs/py35/share/psi4/basis/aug-cc-pvtz-jkfit.gbs 
    atoms 13    entry O          line   285 file /cbio/jclab/home/chayas/anaconda/envs/py35/share/psi4/basis/aug-cc-pvtz-jkfit.gbs 
    atoms 14    entry F          line   347 file /cbio/jclab/home/chayas/anaconda/envs/py35/share/psi4/basis/aug-cc-pvtz-jkfit.gbs 
    atoms 15-21 entry H          line    69 file /cbio/jclab/home/chayas/anaconda/envs/py35/share/psi4/basis/aug-cc-pvtz-jkfit.gbs 

  ==> Pre-Iterations <==

   -------------------------------------------------------
    Irrep   Nso     Nmo     Nalpha   Nbeta   Ndocc  Nsocc
   -------------------------------------------------------
     A        805     805       0       0       0       0
   -------------------------------------------------------
    Total     805     805      49      49      49       0
   -------------------------------------------------------

  ==> Integral Setup <==

  ==> DFJK: Density-Fitted J/K Matrices <==

    J tasked:                  Yes
    K tasked:                  Yes
    wK tasked:                  No
    OpenMP threads:              8
    Integrals threads:           8
    Memory (MB):              3576
    Algorithm:                Disk
    Integral Cache:           NONE
    Schwarz Cutoff:          1E-12
    Fitting Condition:       1E-12

   => Auxiliary Basis Set <=

  Basis Set: (AUG-CC-PVTZ AUX)
    Blend: AUG-CC-PVTZ-JKFIT
    Number of shells: 518
    Number of basis function: 1778
    Number of Cartesian functions: 2219
    Spherical Harmonics?: true
    Max angular momentum: 4

  Minimum eigenvalue in the overlap matrix is 8.3413136652E-07.
  Using Symmetric Orthogonalization.

  SCF Guess: Superposition of Atomic Densities via on-the-fly atomic UHF.

  ==> Iterations <==

                           Total Energy        Delta E     RMS |[F,P]|

   @DF-RHF iter   0:  -658.65978937662976   -6.58660e+02   1.35262e-02 
   @DF-RHF iter   1:  -649.16345870639339    9.49633e+00   2.44342e-03 
   @DF-RHF iter   2:  -649.47951162484060   -3.16053e-01   1.64674e-03 DIIS
   @DF-RHF iter   3:  -649.59029407960907   -1.10782e-01   5.90392e-04 DIIS
   @DF-RHF iter   4:  -649.60696131626423   -1.66672e-02   1.37841e-04 DIIS
   @DF-RHF iter   5:  -649.60809607501892   -1.13476e-03   4.86490e-05 DIIS
   @DF-RHF iter   6:  -649.60831229653547   -2.16222e-04   1.81723e-05 DIIS
   @DF-RHF iter   7:  -649.60836299278947   -5.06963e-05   6.42158e-06 DIIS
   @DF-RHF iter   8:  -649.60837663635289   -1.36436e-05   3.06698e-06 DIIS
   @DF-RHF iter   9:  -649.60837915121283   -2.51486e-06   1.70333e-06 DIIS
   @DF-RHF iter  10:  -649.60837992421295   -7.73000e-07   7.80930e-07 DIIS
   @DF-RHF iter  11:  -649.60838007523421   -1.51021e-07   2.14432e-07 DIIS
   @DF-RHF iter  12:  -649.60838009003521   -1.48010e-08   1.03905e-07 DIIS
   @DF-RHF iter  13:  -649.60838009207350   -2.03829e-09   3.06727e-08 DIIS
   @DF-RHF iter  14:  -649.60838009231259   -2.39083e-10   1.23257e-08 DIIS
   @DF-RHF iter  15:  -649.60838009233225   -1.96678e-11   4.04182e-09 DIIS
   @DF-RHF iter  16:  -649.60838009236375   -3.14913e-11   2.07127e-09 DIIS
   @DF-RHF iter  17:  -649.60838009235363    1.01181e-11   7.11261e-10 DIIS
   @DF-RHF iter  18:  -649.60838009233771    1.59162e-11   2.34684e-10 DIIS
   @DF-RHF iter  19:  -649.60838009235385   -1.61435e-11   1.31453e-10 DIIS
   @DF-RHF iter  20:  -649.60838009233589    1.79625e-11   6.10943e-11 DIIS

  ==> Post-Iterations <==

    Orbital Energies (a.u.)
    -----------------------

    Doubly Occupied:                                                      

       1A    -26.185886     2A    -20.297657     3A    -15.460552  
       4A    -11.188921     5A    -11.172710     6A    -11.171726  
       7A    -11.148920     8A    -11.127643     9A    -11.126444  
      10A    -11.120060    11A    -11.107452    12A    -11.081886  
      13A    -11.062545    14A    -11.061760    15A     -1.505302  
      16A     -1.146191    17A     -1.130065    18A     -1.024757  
      19A     -0.964872    20A     -0.929335    21A     -0.871556  
      22A     -0.847671    23A     -0.751144    24A     -0.740373  
      25A     -0.702037    26A     -0.675047    27A     -0.608850  
      28A     -0.580251    29A     -0.574239    30A     -0.561894  
      31A     -0.551098    32A     -0.542770    33A     -0.501415  
      34A     -0.494147    35A     -0.470106    36A     -0.460183  
      37A     -0.434578    38A     -0.416637    39A     -0.413261  
      40A     -0.381684    41A     -0.375298    42A     -0.355022  
      43A     -0.315111    44A     -0.298153    45A     -0.256945  
      46A     -0.246404    47A     -0.217276    48A     -0.198353  
      49A     -0.115327  

    Virtual:                                                              

      50A      0.097627    51A      0.099856    52A      0.114667  
      53A      0.120089    54A      0.123494    55A      0.127773  
      56A      0.130956    57A      0.152968    58A      0.166420  
      59A      0.173468    60A      0.180563    61A      0.183831  
      62A      0.185621    63A      0.186591    64A      0.187711  
      65A      0.195074    66A      0.196434    67A      0.202978  
      68A      0.204821    69A      0.212073    70A      0.213912  
      71A      0.217979    72A      0.221076    73A      0.226603  
      74A      0.227476    75A      0.230200    76A      0.231738  
      77A      0.234526    78A      0.240516    79A      0.247291  
      80A      0.250726    81A      0.255892    82A      0.258969  
      83A      0.263608    84A      0.266662    85A      0.273485  
      86A      0.281961    87A      0.288799    88A      0.291244  
      89A      0.297975    90A      0.307225    91A      0.309183  
      92A      0.318838    93A      0.320964    94A      0.322039  
      95A      0.329171    96A      0.330442    97A      0.335063  
      98A      0.335491    99A      0.340141   100A      0.343948  
     101A      0.351682   102A      0.355529   103A      0.359528  
     104A      0.360815   105A      0.368508   106A      0.370881  
     107A      0.375715   108A      0.383765   109A      0.387587  
     110A      0.393782   111A      0.395683   112A      0.404314  
     113A      0.405268   114A      0.411209   115A      0.412766  
     116A      0.416232   117A      0.417957   118A      0.426120  
     119A      0.427477   120A      0.436016   121A      0.439774  
     122A      0.448857   123A      0.451418   124A      0.457058  
     125A      0.460544   126A      0.464857   127A      0.469389  
     128A      0.475926   129A      0.482575   130A      0.492295  
     131A      0.494866   132A      0.498904   133A      0.505334  
     134A      0.508263   135A      0.511689   136A      0.520353  
     137A      0.521464   138A      0.528698   139A      0.536668  
     140A      0.541460   141A      0.547158   142A      0.551354  
     143A      0.554327   144A      0.562207   145A      0.566159  
     146A      0.567144   147A      0.569776   148A      0.570679  
     149A      0.579444   150A      0.580900   151A      0.584966  
     152A      0.587666   153A      0.593246   154A      0.596655  
     155A      0.597253   156A      0.601628   157A      0.605352  
     158A      0.608660   159A      0.615781   160A      0.616780  
     161A      0.621964   162A      0.626459   163A      0.629710  
     164A      0.633071   165A      0.634699   166A      0.637231  
     167A      0.640055   168A      0.647169   169A      0.652577  
     170A      0.658866   171A      0.662918   172A      0.666954  
     173A      0.682251   174A      0.684901   175A      0.688110  
     176A      0.692598   177A      0.698347   178A      0.700378  
     179A      0.708398   180A      0.713345   181A      0.716424  
     182A      0.720890   183A      0.722600   184A      0.735996  
     185A      0.743580   186A      0.751224   187A      0.753028  
     188A      0.757224   189A      0.763592   190A      0.772224  
     191A      0.777064   192A      0.783606   193A      0.787353  
     194A      0.796914   195A      0.803210   196A      0.810318  
     197A      0.811858   198A      0.818400   199A      0.824063  
     200A      0.831141   201A      0.838144   202A      0.844102  
     203A      0.846281   204A      0.852948   205A      0.857513  
     206A      0.858091   207A      0.860670   208A      0.869665  
     209A      0.874671   210A      0.878950   211A      0.884283  
     212A      0.890479   213A      0.901647   214A      0.907779  
     215A      0.913334   216A      0.923296   217A      0.928042  
     218A      0.942101   219A      0.948304   220A      0.954920  
     221A      0.961713   222A      0.969481   223A      0.973687  
     224A      0.979121   225A      0.982543   226A      0.988647  
     227A      0.992202   228A      0.997539   229A      1.003058  
     230A      1.009934   231A      1.014972   232A      1.017797  
     233A      1.021142   234A      1.026277   235A      1.034647  
     236A      1.037815   237A      1.044479   238A      1.045668  
     239A      1.049169   240A      1.052076   241A      1.059381  
     242A      1.060627   243A      1.067592   244A      1.073598  
     245A      1.076075   246A      1.078387   247A      1.083416  
     248A      1.092779   249A      1.094430   250A      1.098337  
     251A      1.103814   252A      1.105185   253A      1.114165  
     254A      1.122508   255A      1.126932   256A      1.133243  
     257A      1.135379   258A      1.145826   259A      1.146985  
     260A      1.148086   261A      1.150574   262A      1.157182  
     263A      1.162437   264A      1.164643   265A      1.168083  
     266A      1.171630   267A      1.176481   268A      1.182601  
     269A      1.193816   270A      1.197470   271A      1.200932  
     272A      1.202265   273A      1.204880   274A      1.215802  
     275A      1.220604   276A      1.233574   277A      1.237039  
     278A      1.240888   279A      1.243712   280A      1.249690  
     281A      1.250261   282A      1.254762   283A      1.260423  
     284A      1.270362   285A      1.273786   286A      1.279985  
     287A      1.283325   288A      1.287448   289A      1.292649  
     290A      1.301548   291A      1.306106   292A      1.309472  
     293A      1.317866   294A      1.320681   295A      1.323997  
     296A      1.327660   297A      1.333820   298A      1.337350  
     299A      1.340291   300A      1.343531   301A      1.348588  
     302A      1.363930   303A      1.375331   304A      1.379343  
     305A      1.386295   306A      1.394497   307A      1.397944  
     308A      1.399493   309A      1.402932   310A      1.411345  
     311A      1.414124   312A      1.416771   313A      1.422142  
     314A      1.430526   315A      1.443421   316A      1.449374  
     317A      1.456834   318A      1.472175   319A      1.482169  
     320A      1.484753   321A      1.487849   322A      1.496233  
     323A      1.506108   324A      1.506498   325A      1.514901  
     326A      1.523351   327A      1.528632   328A      1.535732  
     329A      1.543197   330A      1.550517   331A      1.561680  
     332A      1.572100   333A      1.578481   334A      1.580489  
     335A      1.590870   336A      1.594533   337A      1.607039  
     338A      1.612089   339A      1.619159   340A      1.632889  
     341A      1.640510   342A      1.656850   343A      1.661143  
     344A      1.666398   345A      1.680506   346A      1.684168  
     347A      1.691506   348A      1.693828   349A      1.709192  
     350A      1.714020   351A      1.715533   352A      1.734017  
     353A      1.742357   354A      1.748758   355A      1.751205  
     356A      1.756443   357A      1.762176   358A      1.768932  
     359A      1.783031   360A      1.792990   361A      1.808624  
     362A      1.811124   363A      1.813335   364A      1.815694  
     365A      1.823412   366A      1.833475   367A      1.837595  
     368A      1.838952   369A      1.849469   370A      1.859958  
     371A      1.870197   372A      1.879407   373A      1.887883  
     374A      1.902059   375A      1.908243   376A      1.913107  
     377A      1.920300   378A      1.923160   379A      1.929597  
     380A      1.938600   381A      1.948301   382A      1.953054  
     383A      1.975277   384A      1.986690   385A      1.995903  
     386A      2.005576   387A      2.010020   388A      2.016249  
     389A      2.021345   390A      2.023633   391A      2.029455  
     392A      2.040117   393A      2.054412   394A      2.060431  
     395A      2.068117   396A      2.078185   397A      2.080441  
     398A      2.089210   399A      2.095841   400A      2.097868  
     401A      2.106582   402A      2.118490   403A      2.122948  
     404A      2.137915   405A      2.142614   406A      2.148563  
     407A      2.152237   408A      2.159887   409A      2.167353  
     410A      2.174366   411A      2.175297   412A      2.191979  
     413A      2.201489   414A      2.209215   415A      2.214165  
     416A      2.215567   417A      2.232395   418A      2.241591  
     419A      2.245439   420A      2.250217   421A      2.264618  
     422A      2.274432   423A      2.282208   424A      2.290912  
     425A      2.302876   426A      2.303317   427A      2.316644  
     428A      2.328755   429A      2.333802   430A      2.336543  
     431A      2.341622   432A      2.351129   433A      2.366501  
     434A      2.373912   435A      2.389219   436A      2.392054  
     437A      2.406119   438A      2.410084   439A      2.414600  
     440A      2.423705   441A      2.442871   442A      2.451527  
     443A      2.457011   444A      2.474277   445A      2.490375  
     446A      2.493519   447A      2.497960   448A      2.518661  
     449A      2.532373   450A      2.543928   451A      2.549318  
     452A      2.562577   453A      2.577329   454A      2.582989  
     455A      2.589734   456A      2.592481   457A      2.602843  
     458A      2.632666   459A      2.634962   460A      2.654338  
     461A      2.657196   462A      2.672329   463A      2.677164  
     464A      2.691275   465A      2.694857   466A      2.710445  
     467A      2.715967   468A      2.739246   469A      2.742784  
     470A      2.751884   471A      2.771450   472A      2.797823  
     473A      2.810151   474A      2.814823   475A      2.836990  
     476A      2.866367   477A      2.874244   478A      2.880141  
     479A      2.888802   480A      2.896398   481A      2.912273  
     482A      2.932260   483A      2.942245   484A      2.949088  
     485A      2.986126   486A      3.006997   487A      3.020668  
     488A      3.030893   489A      3.064249   490A      3.084561  
     491A      3.100778   492A      3.127141   493A      3.141199  
     494A      3.172124   495A      3.174761   496A      3.195073  
     497A      3.209982   498A      3.220973   499A      3.240580  
     500A      3.243947   501A      3.271711   502A      3.278206  
     503A      3.300492   504A      3.314078   505A      3.321323  
     506A      3.332034   507A      3.336424   508A      3.341414  
     509A      3.370817   510A      3.383985   511A      3.391161  
     512A      3.407546   513A      3.428492   514A      3.430282  
     515A      3.450086   516A      3.455107   517A      3.461219  
     518A      3.478586   519A      3.494949   520A      3.502684  
     521A      3.519394   522A      3.523530   523A      3.533751  
     524A      3.544293   525A      3.551222   526A      3.562961  
     527A      3.569987   528A      3.573044   529A      3.578686  
     530A      3.598448   531A      3.606631   532A      3.612375  
     533A      3.626622   534A      3.642719   535A      3.652358  
     536A      3.655202   537A      3.660554   538A      3.668822  
     539A      3.682250   540A      3.684403   541A      3.693740  
     542A      3.696017   543A      3.703582   544A      3.715772  
     545A      3.718857   546A      3.726308   547A      3.743456  
     548A      3.747312   549A      3.765417   550A      3.772130  
     551A      3.776318   552A      3.783301   553A      3.794135  
     554A      3.803361   555A      3.819790   556A      3.825584  
     557A      3.827213   558A      3.832685   559A      3.845994  
     560A      3.848056   561A      3.859054   562A      3.871900  
     563A      3.883940   564A      3.891091   565A      3.895033  
     566A      3.918646   567A      3.924132   568A      3.933911  
     569A      3.937360   570A      3.950067   571A      3.958457  
     572A      3.969949   573A      3.975920   574A      3.985843  
     575A      3.992030   576A      4.003259   577A      4.009174  
     578A      4.024851   579A      4.029706   580A      4.038733  
     581A      4.047573   582A      4.056901   583A      4.058939  
     584A      4.071356   585A      4.073933   586A      4.086357  
     587A      4.090089   588A      4.106199   589A      4.115694  
     590A      4.117543   591A      4.126574   592A      4.136039  
     593A      4.144827   594A      4.155340   595A      4.167853  
     596A      4.168616   597A      4.177208   598A      4.181877  
     599A      4.203789   600A      4.207572   601A      4.218860  
     602A      4.224736   603A      4.232130   604A      4.236461  
     605A      4.248844   606A      4.253646   607A      4.273896  
     608A      4.282974   609A      4.299127   610A      4.308495  
     611A      4.312331   612A      4.324704   613A      4.339602  
     614A      4.351022   615A      4.353360   616A      4.369000  
     617A      4.373907   618A      4.381229   619A      4.402741  
     620A      4.409103   621A      4.413713   622A      4.422452  
     623A      4.432241   624A      4.437145   625A      4.449554  
     626A      4.455205   627A      4.468691   628A      4.478576  
     629A      4.491116   630A      4.497679   631A      4.502030  
     632A      4.513252   633A      4.517825   634A      4.526640  
     635A      4.545890   636A      4.548961   637A      4.551290  
     638A      4.561603   639A      4.576350   640A      4.582510  
     641A      4.596693   642A      4.608319   643A      4.619712  
     644A      4.641356   645A      4.652723   646A      4.669662  
     647A      4.679809   648A      4.684550   649A      4.696572  
     650A      4.706560   651A      4.730992   652A      4.735290  
     653A      4.751029   654A      4.764366   655A      4.775861  
     656A      4.780852   657A      4.798260   658A      4.811835  
     659A      4.831047   660A      4.840750   661A      4.867994  
     662A      4.878472   663A      4.891091   664A      4.901998  
     665A      4.921171   666A      4.936090   667A      4.944872  
     668A      4.967779   669A      4.986842   670A      4.998691  
     671A      5.006325   672A      5.025735   673A      5.041757  
     674A      5.066876   675A      5.076305   676A      5.081288  
     677A      5.089839   678A      5.093000   679A      5.113324  
     680A      5.127128   681A      5.129011   682A      5.148734  
     683A      5.167251   684A      5.172728   685A      5.181646  
     686A      5.188052   687A      5.196274   688A      5.222106  
     689A      5.241110   690A      5.261149   691A      5.263519  
     692A      5.269346   693A      5.278693   694A      5.290560  
     695A      5.295309   696A      5.306815   697A      5.314751  
     698A      5.317763   699A      5.335314   700A      5.352229  
     701A      5.360583   702A      5.379681   703A      5.406791  
     704A      5.438036   705A      5.460645   706A      5.476207  
     707A      5.477163   708A      5.485602   709A      5.498642  
     710A      5.505004   711A      5.524055   712A      5.552560  
     713A      5.561720   714A      5.575873   715A      5.587817  
     716A      5.634007   717A      5.639445   718A      5.658401  
     719A      5.666275   720A      5.715171   721A      5.735356  
     722A      5.755784   723A      5.778042   724A      5.820926  
     725A      5.842214   726A      5.861851   727A      5.878994  
     728A      5.893022   729A      5.910452   730A      5.920970  
     731A      5.945085   732A      5.981771   733A      5.989374  
     734A      6.012602   735A      6.032126   736A      6.093274  
     737A      6.143110   738A      6.180245   739A      6.187894  
     740A      6.248662   741A      6.290097   742A      6.325604  
     743A      6.343109   744A      6.396086   745A      6.427851  
     746A      6.436978   747A      6.448587   748A      6.500709  
     749A      6.545627   750A      6.606659   751A      6.625963  
     752A      6.649457   753A      6.688812   754A      6.795577  
     755A      6.806534   756A      6.824914   757A      6.840927  
     758A      6.899173   759A      6.900994   760A      6.973676  
     761A      6.985790   762A      7.001965   763A      7.032337  
     764A      7.113679   765A      7.167206   766A      7.180562  
     767A      7.192111   768A      7.300998   769A      7.330089  
     770A      7.357473   771A      7.525126   772A      7.593722  
     773A      7.613180   774A      7.645341   775A      7.917339  
     776A      7.943829   777A      8.022916   778A      8.147401  
     779A      8.217049   780A      9.139229   781A      9.180243  
     782A      9.405250   783A      9.425760   784A      9.539946  
     785A      9.653551   786A      9.674993   787A      9.721643  
     788A      9.775152   789A      9.854218   790A     10.167634  
     791A     10.212250   792A     15.641965   793A     16.050214  
     794A     16.328214   795A     16.682957   796A     16.811545  
     797A     16.962648   798A     18.555320   799A     18.792306  
     800A     19.335841   801A     19.963251   802A     20.275527  
     803A     20.353217   804A     20.540864   805A     21.856707  

    Final Occupation by Irrep:
              A 
    DOCC [    49 ]

  Energy converged.

  @DF-RHF Final Energy:  -649.60838009233589

   => Energetics <=

    Nuclear Repulsion Energy =            801.6870126562110954
    One-Electron Energy =               -2492.6477599288346028
    Two-Electron Energy =                1041.3523671802875015
    DFT Exchange-Correlation Energy =       0.0000000000000000
    Empirical Dispersion Energy =           0.0000000000000000
    PCM Polarization Energy =               0.0000000000000000
    EFP Energy =                            0.0000000000000000
    Total Energy =                       -649.6083800923358922



Properties will be evaluated at   0.000000,   0.000000,   0.000000 Bohr

Properties computed using the SCF density matrix

  Nuclear Dipole Moment: (a.u.)
     X:     0.9315      Y:    -0.2961      Z:    -6.8838

  Electronic Dipole Moment: (a.u.)
     X:     1.8535      Y:    -1.1954      Z:     5.0180

  Dipole Moment: (a.u.)
     X:     2.7850      Y:    -1.4915      Z:    -1.8658     Total:     3.6691

  Dipole Moment: (Debye)
     X:     7.0788      Y:    -3.7910      Z:    -4.7425     Total:     9.3259


*** tstop() called on gpu-2-6.local at Sat Nov 11 18:22:36 2017
Module time:
	user time   =    1154.51 seconds =      19.24 minutes
	system time =      49.90 seconds =       0.83 minutes
	total time  =        465 seconds =       7.75 minutes
Total time:
	user time   =    1154.51 seconds =      19.24 minutes
	system time =      49.90 seconds =       0.83 minutes
	total time  =        465 seconds =       7.75 minutes

  //>>>>>>>>>>>>>>>>>>>>>>>>>>>>>>>>>>>//
  //               DFMP2               //
  //<<<<<<<<<<<<<<<<<<<<<<<<<<<<<<<<<<<//

   => Loading Basis Set <=

    Name: (AUG-CC-PVTZ AUX)
    Role: RIFIT
    Keyword: DF_BASIS_MP2
    atoms 1-11  entry C          line   147 file /cbio/jclab/home/chayas/anaconda/envs/py35/share/psi4/basis/aug-cc-pvtz-ri.gbs 
    atoms 12    entry N          line   205 file /cbio/jclab/home/chayas/anaconda/envs/py35/share/psi4/basis/aug-cc-pvtz-ri.gbs 
    atoms 13    entry O          line   263 file /cbio/jclab/home/chayas/anaconda/envs/py35/share/psi4/basis/aug-cc-pvtz-ri.gbs 
    atoms 14    entry F          line   321 file /cbio/jclab/home/chayas/anaconda/envs/py35/share/psi4/basis/aug-cc-pvtz-ri.gbs 
    atoms 15-21 entry H          line    29 file /cbio/jclab/home/chayas/anaconda/envs/py35/share/psi4/basis/aug-cc-pvtz-ri.gbs 

	 --------------------------------------------------------
	                          DF-MP2                         
	      2nd-Order Density-Fitted Moller-Plesset Theory     
	              RMP2 Wavefunction,   8 Threads             
	                                                         
	        Rob Parrish, Justin Turney, Andy Simmonett,      
	           Ed Hohenstein, and C. David Sherrill          
	 --------------------------------------------------------

   => Auxiliary Basis Set <=

  Basis Set: (AUG-CC-PVTZ AUX)
    Blend: AUG-CC-PVTZ-RI
    Number of shells: 490
    Number of basis function: 1806
    Number of Cartesian functions: 2289
    Spherical Harmonics?: true
    Max angular momentum: 4

	 --------------------------------------------------------
	                 NBF =   805, NAUX =  1806
	 --------------------------------------------------------
	   CLASS    FOCC     OCC    AOCC    AVIR     VIR    FVIR
	   PAIRS       0      49      49     756     756       0
	 --------------------------------------------------------


         ------------------------------------------------------------
                                     CPHF                           
                                  Rob Parrish                       
         ------------------------------------------------------------

  ==> Geometry <==

    Molecular point group: c1
    Full point group: C1

    Geometry (in Angstrom), charge = -1, multiplicity = 1:

       Center              X                  Y                   Z               Mass       
    ------------   -----------------  -----------------  -----------------  -----------------
           C         -1.345083346141     0.767209598919    -0.780585126987    12.000000000000
           C         -2.423083346141     1.340209598919    -0.107585126987    12.000000000000
           C          1.092916653859    -1.772790401081    -0.607585126987    12.000000000000
           C          1.599916653859     0.359209598919    -1.599585126987    12.000000000000
           C         -1.430083346141     0.724209598919     2.007414873013    12.000000000000
           C          2.171916653859    -2.292790401081    -1.303585126987    12.000000000000
           C          2.655916653859    -0.256790401081    -2.250585126987    12.000000000000
           C         -0.309083346141     0.172209598919    -0.060585126987    12.000000000000
           C          0.807916653859    -0.420790401081    -0.763585126987    12.000000000000
           C         -2.466083346141     1.319209598919     1.286414873013    12.000000000000
           C         -0.352083346141     0.151209598919     1.333414873013    12.000000000000
           N          2.963916653859    -1.566790401081    -2.123585126987    14.003074004780
           O         -3.457083346141     1.846209598919     1.905414873013    15.994914619560
           F          0.635916653859    -0.416790401081     2.040414873013    18.998403224000
           H         -1.326083346141     0.790209598919    -1.868585126987     1.007825032070
           H         -3.219083346141     1.796209598919    -0.693585126987     1.007825032070
           H          0.496916653859    -2.413790401081     0.035414873013     1.007825032070
           H          1.407916653859     1.417209598919    -1.745585126987     1.007825032070
           H         -1.439083346141     0.694209598919     3.095414873013     1.007825032070
           H          2.434916653859    -3.341790401081    -1.216585126987     1.007825032070
           H          3.304916653859     0.308209598919    -2.912585126987     1.007825032070

  Nuclear repulsion =  801.687012656211095
  Reference energy  = -649.608380092335892

  ==> Basis Set <==

  Basis Set: AUG-CC-PVTZ
    Blend: AUG-CC-PVTZ
    Number of shells: 259
    Number of basis function: 805
    Number of Cartesian functions: 945
    Spherical Harmonics?: true
    Max angular momentum: 3

  ==> CGRSolver (by Rob Parrish) <==

   Number of roots    =         1
   Preconditioning    =    JACOBI
   Convergence cutoff =     1E-06
   Maximum iterations =       100

  ==> CPHFRHamiltonian (by Rob Parrish) <== 

  ==> DFJK: Density-Fitted J/K Matrices <==

    J tasked:                  Yes
    K tasked:                  Yes
    wK tasked:                  No
    OpenMP threads:              8
    Integrals threads:           8
    Memory (MB):              3576
    Algorithm:                Disk
    Integral Cache:           NONE
    Schwarz Cutoff:          1E-12
    Fitting Condition:       1E-12

   => Auxiliary Basis Set <=

  Basis Set: (AUG-CC-PVTZ AUX)
    Blend: AUG-CC-PVTZ-JKFIT
    Number of shells: 518
    Number of basis function: 1778
    Number of Cartesian functions: 2219
    Spherical Harmonics?: true
    Max angular momentum: 4

  ==> CPHF Iterations <==

  => Iterations <=

             Iter  Converged  Remaining    Residual
  CGR           1          0          1   1.288E-01
  CGR           2          0          1   4.662E-02
  CGR           3          0          1   2.772E-02
  CGR           4          0          1   1.043E-02
  CGR           5          0          1   4.633E-03
  CGR           6          0          1   2.331E-03
  CGR           7          0          1   9.206E-04
  CGR           8          0          1   3.527E-04
  CGR           9          0          1   1.150E-04
  CGR          10          0          1   3.498E-05
  CGR          11          0          1   1.437E-05
  CGR          12          0          1   5.334E-06
  CGR          13          0          1   2.381E-06
  CGR          14          0          1   1.050E-06
  CGR          15          1          0   3.202E-07

    CGRSolver converged.

  ==> DFCorrGrad: Density-Fitted Correlated Gradients <==

    OpenMP threads:              8
    Integrals threads:           8
    Memory (MB):              3576
    Schwarz Cutoff:          0E+00
    Fitting Condition:       1E-12

   => Auxiliary Basis Set <=

  Basis Set: (AUG-CC-PVTZ AUX)
    Blend: AUG-CC-PVTZ-JKFIT
    Number of shells: 518
    Number of basis function: 1778
    Number of Cartesian functions: 2219
    Spherical Harmonics?: true
    Max angular momentum: 4

	-----------------------------------------------------------
	 ==================> DF-MP2 Energies <==================== 
	-----------------------------------------------------------
	 Reference Energy          =    -649.6083800923358922 [Eh]
	 Singles Energy            =      -0.0000000000000001 [Eh]
	 Same-Spin Energy          =      -0.6857857723217378 [Eh]
	 Opposite-Spin Energy      =      -2.0256429616715965 [Eh]
	 Correlation Energy        =      -2.7114287339933343 [Eh]
	 Total Energy              =    -652.3198088263292220 [Eh]
	-----------------------------------------------------------
	 ================> DF-SCS-MP2 Energies <================== 
	-----------------------------------------------------------
	 SCS Same-Spin Scale       =       0.3333333333333333 [-]
	 SCS Opposite-Spin Scale   =       1.2000000000000000 [-]
	 SCS Same-Spin Energy      =      -0.2285952574405792 [Eh]
	 SCS Opposite-Spin Energy  =      -2.4307715540059158 [Eh]
	 SCS Correlation Energy    =      -2.6593668114464952 [Eh]
	 SCS Total Energy          =    -652.2677469037823812 [Eh]
	-----------------------------------------------------------


  -Total Gradient:
     Atom            X                  Y                   Z
    ------   -----------------  -----------------  -----------------
       1        0.014965481008    -0.013446329906    -0.010931964484
       2       -0.021496699362     0.010753988467     0.038954007203
       3       -0.012486745603     0.002574909355     0.005183052489
       4       -0.006513746927     0.009225166602     0.006885005769
       5       -0.043035987662     0.023558759372    -0.001444602224
       6       -0.008289570305    -0.003531396218     0.006232563586
       7       -0.004868473390     0.010644931464     0.002786938669
       8       -0.014141787446     0.007583107756     0.002264290100
       9        0.010139968758    -0.005540391735    -0.008120532101
      10        0.047062408756    -0.025168390823    -0.028424453589
      11        0.043276611380    -0.018088606381     0.004497893996
      12        0.008791026684    -0.005257875712    -0.005474764009
      13       -0.001077425176     0.000672720657    -0.000494519478
      14       -0.012665585851     0.006553090918    -0.003812068976
      15       -0.003582398874     0.002390749838    -0.004441193868
      16       -0.001721024963     0.001878142316    -0.008782314948
      17       -0.001087847096    -0.005741473079     0.002600481360
      18        0.001189392688     0.004531268847    -0.003132157347
      19        0.003435728077    -0.002777648269     0.007046464418
      20        0.000828390122    -0.001598800681     0.000147080006
      21        0.001278285197     0.000784077215    -0.001539206559


*** tstop() called on gpu-2-6.local at Sat Nov 11 18:56:38 2017
Module time:
	user time   =    5488.74 seconds =      91.48 minutes
	system time =     110.07 seconds =       1.83 minutes
	total time  =       2507 seconds =      41.78 minutes
Total time:
	user time   =    5488.74 seconds =      91.48 minutes
	system time =     110.07 seconds =       1.83 minutes
	total time  =       2507 seconds =      41.78 minutes

			-----------------------------------------
			 OPTKING 2.0: for geometry optimizations 
			  - R.A. King,  Bethel University        
			-----------------------------------------

	Internal coordinates to be generated automatically.
	Detected frag 1 with atoms:  1 2 3 4 5 6 7 8 9 10 11 12 13 14 15 16 17 18 19 20
	 21
	---Fragment 1 Bond Connectivity---
	 1 : 2 8 15
	 2 : 1 10 16
	 3 : 6 9 17
	 4 : 7 9 18
	 5 : 10 11 19
	 6 : 3 12 20
	 7 : 4 12 21
	 8 : 1 9 11
	 9 : 3 4 8
	 10 : 2 5 13
	 11 : 5 8 14
	 12 : 6 7
	 13 : 10
	 14 : 11
	 15 : 1
	 16 : 2
	 17 : 3
	 18 : 4
	 19 : 5
	 20 : 6
	 21 : 7

	Assuming in current code that numbering for constraints corresponds to unified fragment.
	Fixed dihedral atom list: 
	     1     8     9     3
	---Fragment 1 Geometry and Gradient---
	 C          -2.5418391501        1.4498160285       -1.4750921134
	 C          -4.5789639214        2.5326291026       -0.2033064260
	 C           2.0653131619       -3.3500883491       -1.1481694924
	 C           3.0234043112        0.6788077663       -3.0227778162
	 C          -2.7024658714        1.3685578048        3.7934643451
	 C           4.1043276592       -4.3327459382       -2.4634188809
	 C           5.0189551076       -0.4852635316       -4.2529895288
	 C          -0.5840828764        0.3254289794       -0.1144892977
	 C           1.5267412140       -0.7951786174       -1.4429667692
	 C          -4.6602221451        2.4929448538        2.4309718033
	 C          -0.6653411002        0.2857447306        2.5197889315
	 N           5.6009907565       -2.9608047657       -4.0129943099
	 O          -6.5329407428        3.4888305259        3.6007122795
	 F           1.2017083191       -0.7876197129        3.8558253075
	 H          -2.5059343536        1.4932797295       -3.5311141460
	 H          -6.0831859231        3.3943442192       -1.3106859398
	 H           0.9390363867       -4.5614028002        0.0669244110
	 H           2.6605768937        2.6781380149       -3.2986778316
	 H          -2.7194734066        1.3118660208        5.8494863777
	 H           4.6013256322       -6.3150686515       -2.2990127073
	 H           6.2453873678        0.5824317335       -5.5039882287
	             0.0149654810       -0.0134463299       -0.0109319645
	            -0.0214966994        0.0107539885        0.0389540072
	            -0.0124867456        0.0025749094        0.0051830525
	            -0.0065137469        0.0092251666        0.0068850058
	            -0.0430359877        0.0235587594       -0.0014446022
	            -0.0082895703       -0.0035313962        0.0062325636
	            -0.0048684734        0.0106449315        0.0027869387
	            -0.0141417874        0.0075831078        0.0022642901
	             0.0101399688       -0.0055403917       -0.0081205321
	             0.0470624088       -0.0251683908       -0.0284244536
	             0.0432766114       -0.0180886064        0.0044978940
	             0.0087910267       -0.0052578757       -0.0054747640
	            -0.0010774252        0.0006727207       -0.0004945195
	            -0.0126655859        0.0065530909       -0.0038120690
	            -0.0035823989        0.0023907498       -0.0044411939
	            -0.0017210250        0.0018781423       -0.0087823149
	            -0.0010878471       -0.0057414731        0.0026004814
	             0.0011893927        0.0045312688       -0.0031321573
	             0.0034357281       -0.0027776483        0.0070464644
	             0.0008283901       -0.0015988007        0.0001470800
	             0.0012782852        0.0007840772       -0.0015392066

	Previous optimization step data not found.  Starting new optimization.

	---Fragment 1 Intrafragment Coordinates---
	 - Coordinate -           - BOHR/RAD -       - ANG/DEG -
	 R(1,2)           =         2.634350	       1.394038
	 R(1,8)           =         2.635962	       1.394891
	 R(1,15)          =         2.056795	       1.088409
	 R(2,10)          =         2.635830	       1.394821
	 R(2,16)          =         2.057067	       1.088553
	 R(3,6)           =         2.617838	       1.385300
	 R(3,9)           =         2.627647	       1.390491
	 R(3,17)          =         2.052373	       1.086069
	 R(4,7)           =         2.617385	       1.385061
	 R(4,9)           =         2.628391	       1.390885
	 R(4,18)          =         2.050631	       1.085147
	 R(5,10)          =         2.636938	       1.395407
	 R(5,11)          =         2.635263	       1.394521
	 R(5,19)          =         2.056874	       1.088451
	 R(6,12)          =         2.554096	       1.351569
	 R(6,20)          =         2.050278	       1.084960
	 R(7,12)          =         2.554343	       1.351700
	 R(7,21)          =         2.051611	       1.085666
	 R(8,9)           =         2.734263	       1.446909
	 R(8,11)          =         2.635830	       1.394821
	 R(10,13)         =         2.422221	       1.281784
	 R(11,14)         =         2.534359	       1.341125
	 B(1,2,10)        =         2.094553	     120.009056
	 B(1,2,16)        =         2.068903	     118.539404
	 B(1,8,9)         =         2.091392	     119.827938
	 B(1,8,11)        =         2.093692	     119.959722
	 B(2,1,8)         =         2.094940	     120.031219
	 B(2,1,15)        =         2.079908	     119.169966
	 B(2,10,5)        =         2.094306	     119.994870
	 B(2,10,13)       =         2.094719	     120.018581
	 B(3,6,12)        =         2.164707	     124.028596
	 B(3,6,20)        =         2.107666	     120.760361
	 B(3,9,4)         =         2.089774	     119.735230
	 B(3,9,8)         =         2.096954	     120.146631
	 B(4,7,12)        =         2.165896	     124.096682
	 B(4,7,21)        =         2.107043	     120.724644
	 B(4,9,8)         =         2.096456	     120.118088
	 B(5,10,13)       =         2.094160	     119.986548
	 B(5,11,8)        =         2.095181	     120.045019
	 B(5,11,14)       =         2.081414	     119.256220
	 B(6,3,9)         =         2.058114	     117.921218
	 B(6,3,17)        =         2.098257	     120.221262
	 B(6,12,7)        =         2.030923	     116.363335
	 B(7,4,9)         =         2.056956	     117.854919
	 B(7,4,18)        =         2.100503	     120.349985
	 B(8,1,15)        =         2.108336	     120.798746
	 B(8,11,14)       =         2.106591	     120.698759
	 B(9,3,17)        =         2.126815	     121.857498
	 B(9,4,18)        =         2.125725	     121.795092
	 B(9,8,11)        =         2.098101	     120.212327
	 B(10,2,16)       =         2.119728	     121.451467
	 B(10,5,11)       =         2.093699	     119.960108
	 B(10,5,19)       =         2.120101	     121.472852
	 B(11,5,19)       =         2.069385	     118.567038
	 B(12,6,20)       =         2.010812	     115.211036
	 B(12,7,21)       =         2.010245	     115.178569
	 D(1,2,10,5)      =        -0.000325	      -0.018609
	 D(1,2,10,13)     =         3.141392	     179.988520
	 D(1,8,9,3)       =        -2.094387	    -119.999513
	 D(1,8,9,4)       =         1.045771	      59.918239
	 D(1,8,11,5)      =         0.000325	       0.018608
	 D(1,8,11,14)     =        -3.141528	    -179.996269
	 D(2,1,8,9)       =        -3.141211	    -179.978157
	 D(2,1,8,11)      =        -0.000348	      -0.019945
	 D(2,10,5,11)     =         0.000301	       0.017261
	 D(2,10,5,19)     =        -3.141543	    -179.997173
	 D(3,6,12,7)      =        -0.000960	      -0.055004
	 D(3,9,4,7)       =        -0.000194	      -0.011124
	 D(3,9,4,18)      =        -3.141362	    -179.986788
	 D(3,9,8,11)      =         1.047937	      60.042381
	 D(4,7,12,6)      =         0.000821	       0.047032
	 D(4,9,3,6)       =         0.000069	       0.003960
	 D(4,9,3,17)      =        -3.140567	    -179.941219
	 D(4,9,8,11)      =        -2.095091	    -120.039867
	 D(5,10,2,16)     =         3.139529	     179.881752
	 D(5,11,8,9)      =         3.141185	     179.976658
	 D(6,3,9,8)       =         3.140232	     179.922028
	 D(6,12,7,21)     =         3.140364	     179.929593
	 D(7,4,9,8)       =        -3.140357	    -179.929216
	 D(7,12,6,20)     =         3.140059	     179.912123
	 D(8,1,2,10)      =         0.000348	       0.019955
	 D(8,1,2,16)      =        -3.139556	    -179.883288
	 D(8,9,3,17)      =        -0.000404	      -0.023151
	 D(8,9,4,18)      =         0.001660	       0.095120
	 D(8,11,5,10)     =        -0.000301	      -0.017270
	 D(8,11,5,19)     =         3.141536	     179.996748
	 D(9,3,6,12)      =         0.000539	       0.030857
	 D(9,3,6,20)      =        -3.140450	    -179.934532
	 D(9,4,7,12)      =        -0.000269	      -0.015402
	 D(9,4,7,21)      =        -3.139704	    -179.891767
	 D(9,8,1,15)      =         0.002066	       0.118384
	 D(9,8,11,14)     =        -0.000667	      -0.038219
	 D(10,2,1,15)     =         3.140283	     179.924984
	 D(10,5,11,14)    =         3.141547	     179.997392
	 D(11,5,10,13)    =        -3.141416	    -179.989865
	 D(11,8,1,15)     =        -3.140256	    -179.923403
	 D(12,6,3,17)     =         3.141191	     179.976969
	 D(12,7,4,18)     =         3.140905	     179.960628
	 D(13,10,2,16)    =        -0.001939	      -0.111119
	 D(13,10,5,19)    =        -0.000075	      -0.004300
	 D(14,11,5,19)    =         0.000199	       0.011410
	 D(15,1,2,16)     =         0.000379	       0.021741
	 D(17,3,6,20)     =         0.000202	       0.011581
	 D(18,4,7,21)     =         0.001471	       0.084264
	 R(3,14)          =         5.687884	       3.009899

	Current energy   :      -652.3198088263

	Generating empirical Hessian (Schlegel '84) for each fragment.
	Adding user-defined constraint: Fragment 1; Coordinate 59:
		Value =    -2.094387; Fixed value    =    -2.094395
		Force =    -0.000004; Force constant =     0.500000
	Removing off-diagonal coupling between coordinate 59 and others.
	Taking RFO optimization step.
	Going to follow RFO solution 1.
	Using RFO vector 1.

	Determining step-restricting scale parameter for RS-RFO.
	Maximum step size allowed    0.10000

	 Iter      |step|        alpha        rfo_root  
	------------------------------------------------
	    0     0.28231       1.00000           1
	    1     0.21016       4.31672           1
	    2     0.15496      14.91592           1
	    3     0.12033      33.45356           1
	    4     0.10439      50.08936           1
	    5     0.10028      55.88678           1
	    6     0.10000      56.31604           1
	------------------------------------------------
	Norm of target step-size    0.10000
	Projected energy change by RFO approximation:        -0.0070414987

	Back-transformation to cartesian coordinates...
	Could not converge backtransformation.
	Using first guess instead.

	--- Internal Coordinate Step in ANG or DEG, aJ/ANG or AJ/DEG ---
	 ---------------------------------------------------------------------------
	   Coordinate                Previous        Force       Change         New 
	   ----------                --------       ------       ------       ------
	    1 R(1,2)          =      1.394038    -0.052492    -0.003837     1.390201
	    2 R(1,8)          =      1.394891     0.027016     0.001782     1.396673
	    3 R(1,15)         =      1.088409    -0.036477    -0.003126     1.085283
	    4 R(2,10)         =      1.394821     0.216348     0.016679     1.411501
	    5 R(2,16)         =      1.088553    -0.055801    -0.004798     1.083755
	    6 R(3,6)          =      1.385300     0.009775     0.000709     1.386009
	    7 R(3,9)          =      1.390491     0.008381     0.000898     1.391389
	    8 R(3,17)         =      1.086069    -0.045519    -0.003899     1.082170
	    9 R(4,7)          =      1.385061     0.015166     0.001102     1.386163
	   10 R(4,9)          =      1.390885     0.006736     0.000812     1.391696
	   11 R(4,18)         =      1.085147    -0.038137    -0.003258     1.081889
	   12 R(5,10)         =      1.395407     0.202355     0.015709     1.411117
	   13 R(5,11)         =      1.394521    -0.112188    -0.008343     1.386178
	   14 R(5,19)         =      1.088451    -0.058427    -0.004992     1.083459
	   15 R(6,12)         =      1.351569    -0.100358    -0.006981     1.344588
	   16 R(6,20)         =      1.084960    -0.014486    -0.001231     1.083730
	   17 R(7,12)         =      1.351700    -0.106934    -0.007432     1.344268
	   18 R(7,21)         =      1.085666    -0.017391    -0.001488     1.084178
	   19 R(8,9)          =      1.446909     0.107455     0.008847     1.455756
	   20 R(8,11)         =      1.394821    -0.029100    -0.002410     1.392411
	   21 R(10,13)        =      1.281784    -0.007174    -0.000398     1.281386
	   22 R(11,14)        =      1.341125     0.115083     0.007717     1.348843
	   23 B(1,2,10)       =    120.009056     0.000569     0.735781   120.744838
	   24 B(1,2,16)       =    118.539404     0.000194     0.274925   118.814329
	   25 B(1,8,9)        =    119.827938     0.000628     0.782029   120.609967
	   26 B(1,8,11)       =    119.959722    -0.000992    -1.275318   118.684404
	   27 B(2,1,8)        =    120.031219     0.000665     0.757992   120.789211
	   28 B(2,1,15)       =    119.169966     0.000005     0.077639   119.247605
	   29 B(2,10,5)       =    119.994870    -0.001859    -2.054753   117.940117
	   30 B(2,10,13)      =    120.018581     0.001026     1.141128   121.159709
	   31 B(3,6,12)       =    124.028596     0.000099     0.086710   124.115305
	   32 B(3,6,20)       =    120.760361    -0.000074    -0.076636   120.683724
	   33 B(3,9,4)        =    119.735230    -0.001260    -1.423339   118.311891
	   34 B(3,9,8)        =    120.146631     0.000640     0.727270   120.873901
	   35 B(4,7,12)       =    124.096682     0.000067     0.047871   124.144553
	   36 B(4,7,21)       =    120.724644    -0.000058    -0.057384   120.667260
	   37 B(4,9,8)        =    120.118088     0.000620     0.695750   120.813838
	   38 B(5,10,13)      =    119.986548     0.000833     0.913619   120.900167
	   39 B(5,11,8)       =    120.045019     0.001170     1.284429   121.329448
	   40 B(5,11,14)      =    119.256220    -0.000090    -0.076204   119.180016
	   41 B(6,3,9)        =    117.921218     0.000579     0.726193   118.647410
	   42 B(6,3,17)       =    120.221262    -0.000038    -0.023075   120.198187
	   43 B(6,12,7)       =    116.363335    -0.000090    -0.195213   116.168122
	   44 B(7,4,9)        =    117.854919     0.000605     0.757739   118.612658
	   45 B(7,4,18)       =    120.349985    -0.000058    -0.048947   120.301038
	   46 B(8,1,15)       =    120.798746    -0.000670    -0.835743   119.963003
	   47 B(8,11,14)      =    120.698759    -0.001080    -1.208260   119.490500
	   48 B(9,3,17)       =    121.857498    -0.000541    -0.703119   121.154379
	   49 B(9,4,18)       =    121.795092    -0.000547    -0.708794   121.086297
	   50 B(9,8,11)       =    120.212327     0.000363     0.493248   120.705575
	   51 B(10,2,16)      =    121.451467    -0.000763    -1.010709   120.440758
	   52 B(10,5,11)      =    119.960108     0.000447     0.551779   120.511887
	   53 B(10,5,19)      =    121.472852    -0.000561    -0.725002   120.747851
	   54 B(11,5,19)      =    118.567038     0.000114     0.173224   118.740262
	   55 B(12,6,20)      =    115.211036    -0.000025    -0.010144   115.200891
	   56 B(12,7,21)      =    115.178569    -0.000009     0.009372   115.187940
	   57 D(1,2,10,5)     =     -0.018609    -0.000006    -0.053669    -0.072278
	   58 D(1,2,10,13)    =    179.988520    -0.000004    -0.030456   179.958064
	   59 D(1,8,9,3)      =   -119.999513    -0.000040    -0.217442  -120.216955
	   60 D(1,8,9,4)      =     59.918239    -0.000053    -0.360152    59.558087
	   61 D(1,8,11,5)     =      0.018608    -0.000011    -0.105076    -0.086468
	   62 D(1,8,11,14)    =   -179.996269    -0.000001    -0.019998  -180.016267
	   63 D(2,1,8,9)      =   -179.978157    -0.000010    -0.099177  -180.077335
	   64 D(2,1,8,11)     =     -0.019945     0.000001     0.026734     0.006790
	   65 D(2,10,5,11)    =      0.017261    -0.000003    -0.023488    -0.006227
	   66 D(2,10,5,19)    =   -179.997173    -0.000002    -0.010206  -180.007379
	   67 D(3,6,12,7)     =     -0.055004     0.000003     0.017936    -0.037067
	   68 D(3,9,4,7)      =     -0.011124     0.000002    -0.004857    -0.015981
	   69 D(3,9,4,18)     =   -179.986788     0.000002     0.002025  -179.984762
	   70 D(3,9,8,11)     =     60.042381    -0.000051    -0.345170    59.697211
	   71 D(4,7,12,6)     =      0.047032     0.000004     0.036339     0.083370
	   72 D(4,9,3,6)      =      0.003960     0.000004     0.053726     0.057686
	   73 D(4,9,3,17)     =   -179.941219     0.000005     0.055209  -179.886010
	   74 D(4,9,8,11)     =   -120.039867    -0.000064    -0.487880  -120.527747
	   75 D(5,10,2,16)    =    179.881752    -0.000006    -0.055130   179.826623
	   76 D(5,11,8,9)     =    179.976658     0.000000     0.021081   179.997739
	   77 D(6,3,9,8)      =    179.922028    -0.000008    -0.083795   179.838233
	   78 D(6,12,7,21)    =    179.929593    -0.000004    -0.026420   179.903173
	   79 D(7,4,9,8)      =   -179.929216     0.000014     0.132551  -179.796665
	   80 D(7,12,6,20)    =    179.912123    -0.000005    -0.051182   179.860940
	   81 D(8,1,2,10)     =      0.019955     0.000007     0.052830     0.072785
	   82 D(8,1,2,16)     =   -179.883288     0.000008     0.055553  -179.827735
	   83 D(8,9,3,17)     =     -0.023151    -0.000007    -0.082312    -0.105463
	   84 D(8,9,4,18)     =      0.095120     0.000014     0.139433     0.234553
	   85 D(8,11,5,10)    =     -0.017270     0.000012     0.103746     0.086476
	   86 D(8,11,5,19)    =    179.996748     0.000011     0.090858   180.087606
	   87 D(9,3,6,12)     =      0.030857    -0.000007    -0.063090    -0.032233
	   88 D(9,3,6,20)     =   -179.934532     0.000002     0.009607  -179.924925
	   89 D(9,4,7,12)     =     -0.015402    -0.000006    -0.042753    -0.058155
	   90 D(9,4,7,21)     =   -179.891767     0.000002     0.023189  -179.868578
	   91 D(9,8,1,15)     =      0.118384    -0.000002    -0.039997     0.078388
	   92 D(9,8,11,14)    =     -0.038219     0.000010     0.106159     0.067940
	   93 D(10,2,1,15)    =    179.924984    -0.000001    -0.006820   179.918163
	   94 D(10,5,11,14)   =    179.997392     0.000002     0.019096   180.016488
	   95 D(11,5,10,13)   =   -179.989865    -0.000006    -0.046621  -180.036486
	   96 D(11,8,1,15)    =   -179.923403     0.000009     0.085915  -179.837488
	   97 D(12,6,3,17)    =    179.976969    -0.000007    -0.064952   179.912017
	   98 D(12,7,4,18)    =    179.960628    -0.000007    -0.049749   179.910879
	   99 D(13,10,2,16)   =     -0.111119    -0.000004    -0.031917    -0.143036
	  100 D(13,10,5,19)   =     -0.004300    -0.000004    -0.033339    -0.037638
	  101 D(14,11,5,19)   =      0.011410     0.000001     0.006208     0.017618
	  102 D(15,1,2,16)    =      0.021741    -0.000000    -0.004097     0.017644
	  103 D(17,3,6,20)    =      0.011581     0.000001     0.007744     0.019325
	  104 D(18,4,7,21)    =      0.084264     0.000002     0.016193     0.100456
	  105 R(3,14)         =      3.009899     0.007521     0.001241     3.011139
	 ---------------------------------------------------------------------------
	Successfully symmetrized geometry.
	 Forces used to impose fixed constraints are not included.
	  Forces zeroed: 59 

  ==> Convergence Check <==

  Measures of convergence in internal coordinates in au.
  Criteria marked as inactive (o), active & met (*), and active & unmet ( ).
  --------------------------------------------------------------------------------------------- ~
   Step     Total Energy     Delta E     MAX Force     RMS Force      MAX Disp      RMS Disp    ~
  --------------------------------------------------------------------------------------------- ~
    Convergence Criteria    1.00e-06 *    3.00e-04 *             o    1.20e-03 *             o  ~
  --------------------------------------------------------------------------------------------- ~
      1    -652.31980883   -6.52e+02      2.63e-02      6.96e-03 o    3.59e-02      9.75e-03 o  ~
  ---------------------------------------------------------------------------------------------

	Writing optimization data to binary file.
	Structure for next step:
	Cartesian Geometry (in Angstrom)
	    C    -1.3566538710   0.7781305665  -0.7703653212
	    C    -2.4341374530   1.3488574905  -0.1025638387
	    C     1.1111477467  -1.7717456065  -0.6160050033
	    C     1.6131179270   0.3431398538  -1.6083834483
	    C    -1.4390678731   0.7246908472   2.0117538106
	    C     2.1913613522  -2.2936922650  -1.3100745864
	    C     2.6704006916  -0.2738415773  -2.2587180769
	    C    -0.3138317990   0.1767571472  -0.0621510540
	    C     0.8117826172  -0.4211904024  -0.7654836607
	    C    -2.4985321121   1.3351598957   1.3074005173
	    C    -0.3735172104   0.1592182613   1.3288693616
	    N     2.9797671565  -1.5755801129  -2.1290057350
	    O    -3.4874797209   1.8595326428   1.9310725764
	    F     0.6246525833  -0.4175968335   2.0290965881
	    H    -1.3326138047   0.8011837300  -1.8551371985
	    H    -3.2271373118   1.8044536676  -0.6840346677
	    H     0.5174599905  -2.4090425630   0.0262400435
	    H     1.4210841230   1.3973860214  -1.7572821316
	    H    -1.4419908587   0.6885779017   3.0946070787
	    H     2.4533242971  -3.3413237715  -1.2188953840
	    H     3.3171132606   0.2903266838  -2.9212275366
			--------------------------
			 OPTKING Finished Execution 
			--------------------------

    Structure for next step:
    Molecular point group: c1
    Full point group: C1

    Geometry (in Angstrom), charge = -1, multiplicity = 1:

    C           -1.353020819325     0.776866085861    -0.770994565499
    C           -2.430504401282     1.347593009894    -0.103193082989
    C            1.114780798460    -1.773010087081    -0.616634247649
    C            1.616750978709     0.341875373208    -1.609012692634
    C           -1.435434821430     0.723426366595     2.011124566255
    C            2.194994403955    -2.294956745548    -1.310703830740
    C            2.674033743344    -0.275106057912    -2.259347321219
    C           -0.310198747269     0.175492666560    -0.062780298311
    C            0.815415668895    -0.422454882971    -0.766112904965
    C           -2.494899060395     1.333895415133     1.306771272979
    C           -0.369884158650     0.157953780685     1.328240117284
    N            2.983400208248    -1.576844593469    -2.129634979281
    O           -3.483846669156     1.858268162219     1.930443332060
    F            0.628285635034    -0.418861314121     2.028467343745
    H           -1.328980753004     0.799919249385    -1.855766442855
    H           -3.223504260101     1.803189186995    -0.684663912019
    H            0.521093042242    -2.410307043594     0.025610799209
    H            1.424717174707     1.396121540777    -1.757911375876
    H           -1.438357807029     0.687313421086     3.093977834367
    H            2.456957348778    -3.342588252089    -1.219524628323
    H            3.320746312288     0.289062203210    -2.921856780870

gradient() will perform analytic gradient computation.

*** tstart() called on gpu-2-6.local
*** at Sat Nov 11 18:56:39 2017

    SCF Algorithm Type (re)set to DF.

*** tstart() called on gpu-2-6.local
*** at Sat Nov 11 18:56:39 2017

   => Loading Basis Set <=

    Name: AUG-CC-PVTZ
    Role: ORBITAL
    Keyword: BASIS
    atoms 1-11  entry C          line   221 file /cbio/jclab/home/chayas/anaconda/envs/py35/share/psi4/basis/aug-cc-pvtz.gbs 
    atoms 12    entry N          line   267 file /cbio/jclab/home/chayas/anaconda/envs/py35/share/psi4/basis/aug-cc-pvtz.gbs 
    atoms 13    entry O          line   313 file /cbio/jclab/home/chayas/anaconda/envs/py35/share/psi4/basis/aug-cc-pvtz.gbs 
    atoms 14    entry F          line   359 file /cbio/jclab/home/chayas/anaconda/envs/py35/share/psi4/basis/aug-cc-pvtz.gbs 
    atoms 15-21 entry H          line    34 file /cbio/jclab/home/chayas/anaconda/envs/py35/share/psi4/basis/aug-cc-pvtz.gbs 


         ---------------------------------------------------------
                                   SCF
            by Justin Turney, Rob Parrish, and Andy Simmonett
                              RHF Reference
                        8 Threads,   4768 MiB Core
         ---------------------------------------------------------

  ==> Geometry <==

    Molecular point group: c1
    Full point group: C1

    Geometry (in Angstrom), charge = -1, multiplicity = 1:

       Center              X                  Y                   Z               Mass       
    ------------   -----------------  -----------------  -----------------  -----------------
           C         -1.353020819325     0.776866085861    -0.770994565499    12.000000000000
           C         -2.430504401282     1.347593009894    -0.103193082989    12.000000000000
           C          1.114780798460    -1.773010087081    -0.616634247649    12.000000000000
           C          1.616750978709     0.341875373208    -1.609012692634    12.000000000000
           C         -1.435434821430     0.723426366595     2.011124566255    12.000000000000
           C          2.194994403955    -2.294956745548    -1.310703830740    12.000000000000
           C          2.674033743344    -0.275106057912    -2.259347321219    12.000000000000
           C         -0.310198747269     0.175492666560    -0.062780298311    12.000000000000
           C          0.815415668895    -0.422454882971    -0.766112904965    12.000000000000
           C         -2.494899060395     1.333895415133     1.306771272979    12.000000000000
           C         -0.369884158650     0.157953780685     1.328240117284    12.000000000000
           N          2.983400208248    -1.576844593469    -2.129634979281    14.003074004780
           O         -3.483846669156     1.858268162219     1.930443332060    15.994914619560
           F          0.628285635034    -0.418861314121     2.028467343745    18.998403224000
           H         -1.328980753004     0.799919249385    -1.855766442855     1.007825032070
           H         -3.223504260101     1.803189186995    -0.684663912019     1.007825032070
           H          0.521093042242    -2.410307043594     0.025610799209     1.007825032070
           H          1.424717174707     1.396121540777    -1.757911375876     1.007825032070
           H         -1.438357807029     0.687313421086     3.093977834367     1.007825032070
           H          2.456957348778    -3.342588252089    -1.219524628323     1.007825032070
           H          3.320746312288     0.289062203210    -2.921856780870     1.007825032070

  Running in c1 symmetry.

  Rotational constants: A =      0.06396  B =      0.01325  C =      0.01179 [cm^-1]
  Rotational constants: A =   1917.36702  B =    397.16854  C =    353.47918 [MHz]
  Nuclear repulsion =  799.707938359377749

  Charge       = -1
  Multiplicity = 1
  Electrons    = 98
  Nalpha       = 49
  Nbeta        = 49

  ==> Algorithm <==

  SCF Algorithm Type is DF.
  DIIS enabled.
  MOM disabled.
  Fractional occupation disabled.
  Guess Type is READ.
  Energy threshold   = 1.00e-10
  Density threshold  = 1.00e-10
  Integral threshold = 0.00e+00

  ==> Primary Basis <==

  Basis Set: AUG-CC-PVTZ
    Blend: AUG-CC-PVTZ
    Number of shells: 259
    Number of basis function: 805
    Number of Cartesian functions: 945
    Spherical Harmonics?: true
    Max angular momentum: 3

   => Loading Basis Set <=

    Name: (AUG-CC-PVTZ AUX)
    Role: JKFIT
    Keyword: DF_BASIS_SCF
    atoms 1-11  entry C          line   161 file /cbio/jclab/home/chayas/anaconda/envs/py35/share/psi4/basis/aug-cc-pvtz-jkfit.gbs 
    atoms 12    entry N          line   223 file /cbio/jclab/home/chayas/anaconda/envs/py35/share/psi4/basis/aug-cc-pvtz-jkfit.gbs 
    atoms 13    entry O          line   285 file /cbio/jclab/home/chayas/anaconda/envs/py35/share/psi4/basis/aug-cc-pvtz-jkfit.gbs 
    atoms 14    entry F          line   347 file /cbio/jclab/home/chayas/anaconda/envs/py35/share/psi4/basis/aug-cc-pvtz-jkfit.gbs 
    atoms 15-21 entry H          line    69 file /cbio/jclab/home/chayas/anaconda/envs/py35/share/psi4/basis/aug-cc-pvtz-jkfit.gbs 

  Reading orbitals from file 180, no projection.

  ==> Pre-Iterations <==

   -------------------------------------------------------
    Irrep   Nso     Nmo     Nalpha   Nbeta   Ndocc  Nsocc
   -------------------------------------------------------
     A        805     805       0       0       0       0
   -------------------------------------------------------
    Total     805     805      49      49      49       0
   -------------------------------------------------------

  ==> Integral Setup <==

  ==> DFJK: Density-Fitted J/K Matrices <==

    J tasked:                  Yes
    K tasked:                  Yes
    wK tasked:                  No
    OpenMP threads:              8
    Integrals threads:           8
    Memory (MB):              3576
    Algorithm:                Disk
    Integral Cache:           NONE
    Schwarz Cutoff:          1E-12
    Fitting Condition:       1E-12

   => Auxiliary Basis Set <=

  Basis Set: (AUG-CC-PVTZ AUX)
    Blend: AUG-CC-PVTZ-JKFIT
    Number of shells: 518
    Number of basis function: 1778
    Number of Cartesian functions: 2219
    Spherical Harmonics?: true
    Max angular momentum: 4

  Minimum eigenvalue in the overlap matrix is 8.3982015391E-07.
  Using Symmetric Orthogonalization.

  SCF Guess: Orbitals guess was supplied from a previous computation.

  ==> Iterations <==

                           Total Energy        Delta E     RMS |[F,P]|

   @DF-RHF iter   0:  -649.67277584163776   -6.49673e+02   4.43840e-04 
   @DF-RHF iter   1:  -649.61499319897393    5.77826e-02   5.88029e-05 
   @DF-RHF iter   2:  -649.61530170353592   -3.08505e-04   6.16544e-05 DIIS
   @DF-RHF iter   3:  -649.61543384456627   -1.32141e-04   8.59867e-06 DIIS
   @DF-RHF iter   4:  -649.61543839165620   -4.54709e-06   4.14736e-06 DIIS
   @DF-RHF iter   5:  -649.61543982190267   -1.43025e-06   1.33200e-06 DIIS
   @DF-RHF iter   6:  -649.61544014939557   -3.27493e-07   4.80648e-07 DIIS
   @DF-RHF iter   7:  -649.61544025096327   -1.01568e-07   3.48043e-07 DIIS
   @DF-RHF iter   8:  -649.61544027704258   -2.60793e-08   1.41676e-07 DIIS
   @DF-RHF iter   9:  -649.61544028087621   -3.83363e-09   4.36176e-08 DIIS
   @DF-RHF iter  10:  -649.61544028154094   -6.64727e-10   1.88446e-08 DIIS
   @DF-RHF iter  11:  -649.61544028159551   -5.45697e-11   5.45105e-09 DIIS
   @DF-RHF iter  12:  -649.61544028158369    1.18234e-11   2.13350e-09 DIIS
   @DF-RHF iter  13:  -649.61544028160233   -1.86446e-11   8.85016e-10 DIIS
   @DF-RHF iter  14:  -649.61544028160802   -5.68434e-12   3.35325e-10 DIIS
   @DF-RHF iter  15:  -649.61544028159699    1.10276e-11   2.00330e-10 DIIS
   @DF-RHF iter  16:  -649.61544028160006   -3.06954e-12   6.20424e-11 DIIS

  ==> Post-Iterations <==

    Orbital Energies (a.u.)
    -----------------------

    Doubly Occupied:                                                      

       1A    -26.182586     2A    -20.304340     3A    -15.460008  
       4A    -11.188182     5A    -11.171654     6A    -11.170585  
       7A    -11.150405     8A    -11.127426     9A    -11.127307  
      10A    -11.126067    11A    -11.107721    12A    -11.082796  
      13A    -11.063232    14A    -11.063039    15A     -1.499967  
      16A     -1.150318    17A     -1.132739    18A     -1.023781  
      19A     -0.966191    20A     -0.928698    21A     -0.871802  
      22A     -0.847543    23A     -0.752275    24A     -0.740637  
      25A     -0.699808    26A     -0.674174    27A     -0.609347  
      28A     -0.577288    29A     -0.571581    30A     -0.560657  
      31A     -0.551067    32A     -0.542132    33A     -0.504104  
      34A     -0.492626    35A     -0.470909    36A     -0.458315  
      37A     -0.436265    38A     -0.417435    39A     -0.415302  
      40A     -0.380888    41A     -0.374821    42A     -0.360829  
      43A     -0.315969    44A     -0.300362    45A     -0.259115  
      46A     -0.245483    47A     -0.221054    48A     -0.200022  
      49A     -0.116664  

    Virtual:                                                              

      50A      0.097637    51A      0.099917    52A      0.114668  
      53A      0.120204    54A      0.123594    55A      0.127760  
      56A      0.130966    57A      0.153023    58A      0.166362  
      59A      0.173620    60A      0.180613    61A      0.183478  
      62A      0.185557    63A      0.186606    64A      0.187700  
      65A      0.195302    66A      0.196648    67A      0.203095  
      68A      0.204810    69A      0.212154    70A      0.214021  
      71A      0.218106    72A      0.221125    73A      0.226642  
      74A      0.227074    75A      0.229867    76A      0.231650  
      77A      0.234452    78A      0.240263    79A      0.247110  
      80A      0.250229    81A      0.255529    82A      0.258970  
      83A      0.263306    84A      0.266451    85A      0.273284  
      86A      0.281897    87A      0.289145    88A      0.291877  
      89A      0.297849    90A      0.307544    91A      0.309559  
      92A      0.317027    93A      0.320276    94A      0.322174  
      95A      0.326981    96A      0.329653    97A      0.334795  
      98A      0.335191    99A      0.339359   100A      0.343530  
     101A      0.349273   102A      0.355268   103A      0.359763  
     104A      0.361194   105A      0.368625   106A      0.371266  
     107A      0.376444   108A      0.383955   109A      0.388786  
     110A      0.392926   111A      0.395641   112A      0.404509  
     113A      0.405644   114A      0.411079   115A      0.413372  
     116A      0.416759   117A      0.417601   118A      0.425987  
     119A      0.427237   120A      0.436012   121A      0.439972  
     122A      0.448689   123A      0.451654   124A      0.456933  
     125A      0.460441   126A      0.464829   127A      0.469624  
     128A      0.475272   129A      0.482645   130A      0.491297  
     131A      0.494580   132A      0.498737   133A      0.505008  
     134A      0.507981   135A      0.510869   136A      0.520855  
     137A      0.521362   138A      0.528770   139A      0.536514  
     140A      0.541405   141A      0.548319   142A      0.552351  
     143A      0.553718   144A      0.562259   145A      0.565061  
     146A      0.566527   147A      0.569086   148A      0.571551  
     149A      0.579341   150A      0.580691   151A      0.583984  
     152A      0.587652   153A      0.593339   154A      0.596481  
     155A      0.596952   156A      0.601323   157A      0.604919  
     158A      0.608704   159A      0.615284   160A      0.616131  
     161A      0.622053   162A      0.626728   163A      0.629087  
     164A      0.632402   165A      0.634884   166A      0.638242  
     167A      0.641465   168A      0.646148   169A      0.651432  
     170A      0.658487   171A      0.662157   172A      0.667344  
     173A      0.682669   174A      0.683876   175A      0.688303  
     176A      0.693046   177A      0.696465   178A      0.698872  
     179A      0.707201   180A      0.711760   181A      0.715356  
     182A      0.718583   183A      0.721278   184A      0.734612  
     185A      0.742292   186A      0.749709   187A      0.751674  
     188A      0.758406   189A      0.763471   190A      0.773052  
     191A      0.776185   192A      0.781130   193A      0.784647  
     194A      0.795537   195A      0.801028   196A      0.808667  
     197A      0.814349   198A      0.817801   199A      0.824711  
     200A      0.833214   201A      0.837890   202A      0.842325  
     203A      0.845742   204A      0.851442   205A      0.854405  
     206A      0.857976   207A      0.859374   208A      0.869238  
     209A      0.875247   210A      0.878287   211A      0.879897  
     212A      0.890200   213A      0.900948   214A      0.906420  
     215A      0.912549   216A      0.924680   217A      0.925577  
     218A      0.941106   219A      0.947329   220A      0.956655  
     221A      0.962419   222A      0.968158   223A      0.973315  
     224A      0.979341   225A      0.983878   226A      0.989005  
     227A      0.991551   228A      0.997938   229A      1.003812  
     230A      1.009369   231A      1.013960   232A      1.019069  
     233A      1.021488   234A      1.025881   235A      1.035119  
     236A      1.038383   237A      1.043386   238A      1.043989  
     239A      1.048499   240A      1.050204   241A      1.058272  
     242A      1.059694   243A      1.066179   244A      1.071884  
     245A      1.074366   246A      1.077629   247A      1.083646  
     248A      1.090392   249A      1.091857   250A      1.096337  
     251A      1.104379   252A      1.105430   253A      1.116056  
     254A      1.120204   255A      1.126398   256A      1.132387  
     257A      1.134878   258A      1.145075   259A      1.145857  
     260A      1.146281   261A      1.149666   262A      1.155992  
     263A      1.161128   264A      1.163835   265A      1.168713  
     266A      1.170302   267A      1.175646   268A      1.180984  
     269A      1.192018   270A      1.196048   271A      1.200051  
     272A      1.201333   273A      1.204452   274A      1.215300  
     275A      1.220052   276A      1.232659   277A      1.234094  
     278A      1.239295   279A      1.242047   280A      1.248501  
     281A      1.249636   282A      1.254537   283A      1.260132  
     284A      1.270580   285A      1.274878   286A      1.279611  
     287A      1.283249   288A      1.286134   289A      1.292575  
     290A      1.299379   291A      1.304901   292A      1.307992  
     293A      1.316609   294A      1.320228   295A      1.322307  
     296A      1.328149   297A      1.332836   298A      1.336159  
     299A      1.339356   300A      1.342655   301A      1.349338  
     302A      1.363901   303A      1.375746   304A      1.378325  
     305A      1.384834   306A      1.394458   307A      1.395855  
     308A      1.399886   309A      1.401389   310A      1.410836  
     311A      1.411807   312A      1.416539   313A      1.421714  
     314A      1.429737   315A      1.438468   316A      1.447383  
     317A      1.456098   318A      1.471837   319A      1.479516  
     320A      1.483030   321A      1.488070   322A      1.492535  
     323A      1.506243   324A      1.506821   325A      1.515176  
     326A      1.522219   327A      1.527544   328A      1.531418  
     329A      1.543391   330A      1.550256   331A      1.558633  
     332A      1.570457   333A      1.575949   334A      1.579461  
     335A      1.590418   336A      1.593782   337A      1.605184  
     338A      1.609767   339A      1.618302   340A      1.632152  
     341A      1.636242   342A      1.656546   343A      1.658215  
     344A      1.666283   345A      1.679080   346A      1.685414  
     347A      1.691266   348A      1.692436   349A      1.706360  
     350A      1.711299   351A      1.712754   352A      1.734136  
     353A      1.741850   354A      1.747029   355A      1.749471  
     356A      1.755812   357A      1.759704   358A      1.769448  
     359A      1.779993   360A      1.794094   361A      1.808830  
[...]
	 D(1,2,10,5)      =        -0.021015	      -1.204043
	 D(1,2,10,13)     =         3.127857	     179.212978
	 D(1,8,9,3)       =        -2.101291	    -120.395109
	 D(1,8,9,4)       =         0.906389	      51.932245
	 D(1,8,11,5)      =        -0.061016	      -3.495939
	 D(1,8,11,14)     =         3.111809	     178.293514
	 D(2,1,8,9)       =         3.007454	     172.314432
	 D(2,1,8,11)      =         0.042233	       2.419787
	 D(2,10,5,11)     =         0.003825	       0.219149
	 D(2,10,5,19)     =         3.140226	     179.921687
	 D(3,6,12,7)      =         0.003499	       0.200473
	 D(3,9,4,7)       =        -0.020415	      -1.169699
	 D(3,9,4,18)      =         3.130597	     179.370002
	 D(3,9,8,11)      =         0.848774	      48.631172
	 D(4,7,12,6)      =         0.009767	       0.559634
	 D(4,9,3,6)       =         0.032580	       1.866674
	 D(4,9,3,17)      =        -3.112206	    -178.316276
	 D(4,9,8,11)      =        -2.426732	    -139.041473
	 D(5,10,2,16)     =         3.104610	     177.881053
	 D(5,11,8,9)      =        -3.022856	    -173.196917
	 D(6,3,9,8)       =         3.047729	     174.622016
	 D(6,12,7,21)     =        -3.139271	    -179.866988
	 D(7,4,9,8)       =        -3.037409	    -174.030726
	 D(7,12,6,20)     =         3.125036	     179.051369
	 D(8,1,2,10)      =        -0.002828	      -0.162030
	 D(8,1,2,16)      =        -3.128001	    -179.221258
	 D(8,9,3,17)      =        -0.097057	      -5.560935
	 D(8,9,4,18)      =         0.113603	       6.508976
	 D(8,11,5,10)     =         0.039410	       2.258054
	 D(8,11,5,19)     =        -3.096949	    -177.442116
	 D(9,3,6,12)      =        -0.025724	      -1.473857
	 D(9,3,6,20)      =         3.136649	     179.716752
	 D(9,4,7,12)      =        -0.000726	      -0.041578
	 D(9,4,7,21)      =        -3.134603	    -179.599514
	 D(9,8,1,15)      =        -0.111647	      -6.396882
	 D(9,8,11,14)     =         0.149968	       8.592535
	 D(10,2,1,15)     =         3.115917	     178.528886
	 D(10,5,11,14)    =        -3.133598	    -179.541954
	 D(11,5,10,13)    =         3.138180	     179.804479
	 D(11,8,1,15)     =        -3.076868	    -176.291526
	 D(12,6,3,17)     =         3.119081	     178.710155
	 D(12,7,4,18)     =         3.131377	     179.414678
	 D(13,10,2,16)    =        -0.029704	      -1.701926
	 D(13,10,5,19)    =        -0.008604	      -0.492983
	 D(14,11,5,19)    =         0.013227	       0.757876
	 D(15,1,2,16)     =        -0.009256	      -0.530341
	 D(17,3,6,20)     =        -0.001732	      -0.099237
	 D(18,4,7,21)     =        -0.002500	      -0.143258
	 R(3,14)          =         5.641439	       2.985321

	Current energy   :      -652.3315108171

	Energy change for the previous step:
		Projected    :        -0.0000055383
		Actual       :        -0.0000260869

	Performing BFGS update.
	Previous computed or guess Hessian on step 1.
	Steps to be used in Hessian update: 27 26
	Adding user-defined constraint: Fragment 1; Coordinate 59:
		Value =    -2.101291; Fixed value    =    -2.094400
		Force =     0.008097; Force constant =     1.175000
	Removing off-diagonal coupling between coordinate 59 and others.
	Taking RFO optimization step.
	Going to follow RFO solution 1.
	Using RFO vector 1.
	Norm of target step-size    0.00211
	Projected energy change by RFO approximation:        -0.0000001572

	Back-transformation to cartesian coordinates...
	Successfully converged to displaced geometry.

	--- Internal Coordinate Step in ANG or DEG, aJ/ANG or AJ/DEG ---
	 ---------------------------------------------------------------------------
	   Coordinate                Previous        Force       Change         New 
	   ----------                --------       ------       ------       ------
	    1 R(1,2)          =      1.375785     0.000595     0.000022     1.375807
	    2 R(1,8)          =      1.404890     0.000536     0.000069     1.404959
	    3 R(1,15)         =      1.083258     0.000366     0.000033     1.083291
	    4 R(2,10)         =      1.436221     0.000975     0.000080     1.436302
	    5 R(2,16)         =      1.080892     0.000280     0.000042     1.080934
	    6 R(3,6)          =      1.383699     0.000703     0.000046     1.383745
	    7 R(3,9)          =      1.397405     0.000252     0.000030     1.397436
	    8 R(3,17)         =      1.079131     0.000281     0.000014     1.079145
	    9 R(4,7)          =      1.384734     0.000680     0.000043     1.384777
	   10 R(4,9)          =      1.396626     0.001299     0.000094     1.396719
	   11 R(4,18)         =      1.080250     0.000476     0.000069     1.080319
	   12 R(5,10)         =      1.435462     0.000501     0.000044     1.435506
	   13 R(5,11)         =      1.367426     0.000596     0.000017     1.367443
	   14 R(5,19)         =      1.079083     0.000302     0.000017     1.079100
	   15 R(6,12)         =      1.339166     0.000737     0.000021     1.339187
	   16 R(6,20)         =      1.082317     0.000188     0.000021     1.082338
	   17 R(7,12)         =      1.337343     0.000365     0.000029     1.337372
	   18 R(7,21)         =      1.082495     0.000794     0.000079     1.082574
	   19 R(8,9)          =      1.448309     0.000088    -0.000001     1.448307
	   20 R(8,11)         =      1.392869     0.001023     0.000055     1.392924
	   21 R(10,13)        =      1.262129     0.000106    -0.000024     1.262105
	   22 R(11,14)        =      1.372226     0.000454     0.000042     1.372268
	   23 B(1,2,10)       =    122.728265     0.000001     0.000578   122.728843
	   24 B(1,2,16)       =    120.095247    -0.000001    -0.000059   120.095188
	   25 B(1,8,9)        =    121.402540    -0.000001    -0.001018   121.401523
	   26 B(1,8,11)       =    114.662845     0.000000    -0.003570   114.659275
	   27 B(2,1,8)        =    122.704971    -0.000001     0.002219   122.707190
	   28 B(2,1,15)       =    119.464816     0.000000    -0.001625   119.463191
	   29 B(2,10,5)       =    113.640019    -0.000001    -0.003729   113.636290
	   30 B(2,10,13)      =    123.426949    -0.000000    -0.001043   123.425906
	   31 B(3,6,12)       =    124.194926     0.000001     0.000343   124.195269
	   32 B(3,6,20)       =    119.816405    -0.000000     0.001379   119.817783
	   33 B(3,9,4)        =    115.394023     0.000000    -0.002113   115.391911
	   34 B(3,9,8)        =    122.766514    -0.000001     0.003459   122.769973
	   35 B(4,7,12)       =    124.025841    -0.000001     0.001291   124.027132
	   36 B(4,7,21)       =    119.902288     0.000001    -0.000109   119.902179
	   37 B(4,9,8)        =    121.431353     0.000001    -0.001581   121.429772
	   38 B(5,10,13)      =    122.931650     0.000001     0.005042   122.936692
	   39 B(5,11,8)       =    124.579483    -0.000000     0.000420   124.579904
	   40 B(5,11,14)      =    118.019520    -0.000001    -0.003724   118.015795
	   41 B(6,3,9)        =    120.226621    -0.000001     0.001701   120.228322
	   42 B(6,3,17)       =    120.174812     0.000001    -0.000511   120.174301
	   43 B(6,12,7)       =    115.720193     0.000001    -0.000171   115.720022
	   44 B(7,4,9)        =    120.413508    -0.000000    -0.001176   120.412332
	   45 B(7,4,18)       =    120.165506    -0.000001    -0.001735   120.163771
	   46 B(8,1,15)       =    117.817825     0.000000    -0.000619   117.817205
	   47 B(8,11,14)      =    117.377854     0.000002     0.002701   117.380555
	   48 B(9,3,17)       =    119.598313    -0.000000    -0.001192   119.597122
	   49 B(9,4,18)       =    119.418778     0.000001     0.002767   119.421544
	   50 B(9,8,11)       =    123.107618     0.000001     0.003736   123.111354
	   51 B(10,2,16)      =    117.170170    -0.000000    -0.000609   117.169561
	   52 B(10,5,11)      =    121.600674     0.000000     0.003581   121.604255
	   53 B(10,5,19)      =    118.792809    -0.000001    -0.002746   118.790063
	   54 B(11,5,19)      =    119.605854     0.000000    -0.000803   119.605052
	   55 B(12,6,20)      =    115.978793    -0.000000    -0.000875   115.977919
	   56 B(12,7,21)      =    116.070507    -0.000000    -0.001232   116.069275
	   57 D(1,2,10,5)     =     -1.204043     0.000000     0.019674    -1.184368
	   58 D(1,2,10,13)    =    179.212978    -0.000000    -0.023173   179.189805
	   59 D(1,8,9,3)      =   -120.395109    -0.000003    -0.000259  -120.395369
	   60 D(1,8,9,4)      =     51.932245    -0.000002    -0.002620    51.929625
	   61 D(1,8,11,5)     =     -3.495939     0.000000    -0.015919    -3.511857
	   62 D(1,8,11,14)    =    178.293514     0.000000     0.007305   178.300819
	   63 D(2,1,8,9)      =    172.314432     0.000001     0.008929   172.323361
	   64 D(2,1,8,11)     =      2.419787    -0.000000     0.013704     2.433491
	   65 D(2,10,5,11)    =      0.219149    -0.000000    -0.021279     0.197870
	   66 D(2,10,5,19)    =    179.921687    -0.000000    -0.013952   179.907735
	   67 D(3,6,12,7)     =      0.200473    -0.000000    -0.034967     0.165507
	   68 D(3,9,4,7)      =     -1.169699     0.000000    -0.019243    -1.188942
	   69 D(3,9,4,18)     =    179.370002     0.000000    -0.001904   179.368099
	   70 D(3,9,8,11)     =     48.631172    -0.000002    -0.006245    48.624928
	   71 D(4,7,12,6)     =      0.559634     0.000000     0.019077     0.578711
	   72 D(4,9,3,6)      =      1.866674    -0.000000     0.004667     1.871342
	   73 D(4,9,3,17)     =   -178.316276    -0.000000     0.004064  -178.312212
	   74 D(4,9,8,11)     =   -139.041473    -0.000001    -0.008605  -139.050079
	   75 D(5,10,2,16)    =    177.881053     0.000000     0.013233   177.894287
	   76 D(5,11,8,9)     =   -173.196917    -0.000001    -0.010495  -173.207412
	   77 D(6,3,9,8)      =    174.622016     0.000001     0.002444   174.624460
	   78 D(6,12,7,21)    =   -179.866988    -0.000000     0.011270  -179.855718
	   79 D(7,4,9,8)      =   -174.030726    -0.000001    -0.017452  -174.048178
	   80 D(7,12,6,20)    =    179.051369     0.000000     0.015410   179.066779
	   81 D(8,1,2,10)     =     -0.162030    -0.000000    -0.017245    -0.179276
	   82 D(8,1,2,16)     =   -179.221258    -0.000000    -0.010617  -179.231875
	   83 D(8,9,3,17)     =     -5.560935     0.000001     0.001841    -5.559094
	   84 D(8,9,4,18)     =      6.508976    -0.000001    -0.000114     6.508862
	   85 D(8,11,5,10)    =      2.258054    -0.000000     0.021288     2.279342
	   86 D(8,11,5,19)    =   -177.442116    -0.000000     0.013909  -177.428207
	   87 D(9,3,6,12)     =     -1.473857     0.000000     0.023755    -1.450102
	   88 D(9,3,6,20)     =    179.716752    -0.000000    -0.028418   179.688334
	   89 D(9,4,7,12)     =     -0.041578    -0.000000     0.007825    -0.033753
	   90 D(9,4,7,21)     =   -179.599514    -0.000000     0.015919  -179.583595
	   91 D(9,8,1,15)     =     -6.396882     0.000001     0.010285    -6.386597
	   92 D(9,8,11,14)    =      8.592535    -0.000001     0.012729     8.605265
	   93 D(10,2,1,15)    =    178.528886    -0.000000    -0.018609   178.510278
	   94 D(10,5,11,14)   =   -179.541954     0.000000    -0.001965  -179.543919
	   95 D(11,5,10,13)   =    179.804479     0.000000     0.021301   179.825780
	   96 D(11,8,1,15)    =   -176.291526    -0.000000     0.015059  -176.276467
	   97 D(12,6,3,17)    =    178.710155     0.000000     0.024363   178.734517
	   98 D(12,7,4,18)    =    179.414678    -0.000000    -0.009618   179.405060
	   99 D(13,10,2,16)   =     -1.701926    -0.000000    -0.029614    -1.731540
	  100 D(13,10,5,19)   =     -0.492983     0.000000     0.028628    -0.464355
	  101 D(14,11,5,19)   =      0.757876     0.000000    -0.009345     0.748531
	  102 D(15,1,2,16)    =     -0.530341    -0.000000    -0.011981    -0.542321
	  103 D(17,3,6,20)    =     -0.099237    -0.000000    -0.027810    -0.127047
	  104 D(18,4,7,21)    =     -0.143258    -0.000000    -0.001524    -0.144782
	  105 R(3,14)         =      2.985321     0.000062     0.000323     2.985644
	 ---------------------------------------------------------------------------
	Successfully symmetrized geometry.
	 Forces used to impose fixed constraints are not included.
	  Forces zeroed: 59 

  ==> Convergence Check <==

  Measures of convergence in internal coordinates in au.
  Criteria marked as inactive (o), active & met (*), and active & unmet ( ).
  ---------------------------------------------------------------------------------------------
   Step     Total Energy     Delta E     MAX Force     RMS Force      MAX Disp      RMS Disp   
  ---------------------------------------------------------------------------------------------
    Convergence Criteria    1.00e-06 *    3.00e-04 *             o    1.20e-03 *             o
  ---------------------------------------------------------------------------------------------
     28    -652.33151082   -2.61e-05      1.58e-04 *    4.17e-05 o    6.11e-04 *    2.06e-04 o  ~
  ---------------------------------------------------------------------------------------------


  **** Optimization is complete! (in 28 steps) ****

  ==> Optimization Summary <==

  Measures of convergence in internal coordinates in au.
  --------------------------------------------------------------------------------------------------------------- ~
   Step         Total Energy             Delta E       MAX Force       RMS Force        MAX Disp        RMS Disp  ~
  --------------------------------------------------------------------------------------------------------------- ~
      1    -652.319808826329   -652.319808826329      0.02625991      0.00696746      0.03586221      0.00975232  ~
      2    -652.325512561416     -0.005703735087      0.01566939      0.00435249      0.03561116      0.00975496  ~
      3    -652.328870223582     -0.003357662166      0.00799030      0.00224647      0.03612629      0.00976684  ~
      4    -652.330335404140     -0.001465180558      0.00276554      0.00081872      0.05788083      0.00977348  ~
      5    -652.330863073959     -0.000527669819      0.00219460      0.00042158      0.06089298      0.00977103  ~
      6    -652.331212881046     -0.000349807087      0.00153627      0.00031897      0.06009242      0.00977076  ~
      7    -652.331476895655     -0.000264014609      0.00130958      0.00028900      0.05730915      0.00976231  ~
      8    -652.331636712923     -0.000159817268      0.00188695      0.00031499      0.03916225      0.00739389  ~
      9    -652.331685136254     -0.000048423331      0.00211483      0.00032964      0.00657494      0.00123197  ~
     10    -652.331640855132      0.000044281122      0.00137775      0.00021536      0.01648642      0.00317761  ~
     11    -652.331631044922      0.000009810210      0.00118440      0.00018203      0.00292488      0.00089414  ~
     12    -652.331610358260      0.000020686662      0.00087668      0.00013591      0.00457362      0.00115376  ~
     13    -652.331598894683      0.000011463576      0.00077543      0.00012316      0.04751717      0.00976930  ~
     14    -652.331553540323      0.000045354360      0.00180151      0.00035631      0.04765974      0.00975092  ~
     15    -652.331514925454      0.000038614869      0.00093865      0.00015772      0.00479247      0.00154919  ~
     16    -652.331536641892     -0.000021716438      0.00040800      0.00007359      0.00202163      0.00048506  ~
     17    -652.331547799824     -0.000011157932      0.00009225      0.00002416      0.01665339      0.00384107  ~
     18    -652.331526667756      0.000021132068      0.00133286      0.00031662      0.05062355      0.00979474  ~
     19    -652.331092221788      0.000434445968      0.00843921      0.00156676      0.04184352      0.00690837  ~
     20    -652.331483208051     -0.000390986263      0.00113235      0.00029691      0.01280928      0.00313501  ~
     21    -652.331498955010     -0.000015746959      0.00101592      0.00016792      0.00812236      0.00167225  ~
     22    -652.331529007780     -0.000030052770      0.00011011      0.00003886      0.00366652      0.00088474  ~
     23    -652.331545969203     -0.000016961422      0.00051891      0.00009762      0.01616719      0.00376556  ~
     24    -652.331473858705      0.000072110498      0.00116253      0.00025240      0.03632884      0.00977282  ~
     25    -652.330998330980      0.000475527725      0.00823100      0.00184572      0.02720803      0.00647300  ~
     26    -652.331486052484     -0.000487721504      0.00115226      0.00028108      0.00807225      0.00201319  ~
     27    -652.331484730196      0.000001322288      0.00111436      0.00017151      0.00209815      0.00042534  ~
     28    -652.331510817087     -0.000026086891      0.00019250      0.00004574      0.00061061      0.00020592  ~
  --------------------------------------------------------------------------------------------------------------- ~

	Writing optimization data to binary file.
	Final energy is   -652.3315108170870
	Final (previous) structure:
	Cartesian Geometry (in Angstrom)
	    C    -1.2280072672   0.9128984774  -0.7226667539
	    C    -2.3626300279   1.3940776408  -0.1112079663
	    C     1.2239953693  -1.6985079191  -0.5317885310
	    C     1.6508298591   0.3203621514  -1.6803429412
	    C    -1.5146607380   0.6461591475   2.0096970684
	    C     2.2199452959  -2.2842397976  -1.2931194679
	    C     2.6204476766  -0.3510115329  -2.4060059184
	    C    -0.1847865944   0.2976945743  -0.0106757028
	    C     0.9190706958  -0.3444430916  -0.6938715602
	    C    -2.5781369396   1.3052000537   1.3059683498
	    C    -0.4133065281   0.1657249863   1.3569675371
	    N     2.9271888795  -1.6408546412  -2.2307910010
	    O    -3.6070402260   1.7548075398   1.8823186819
	    F     0.5548846902  -0.4604041215   2.1009914684
	    H    -1.1308499312   0.9863196806  -1.7990578809
	    H    -3.1452461210   1.8489697632  -0.7018960947
	    H     0.6799700491  -2.2843145951   0.1930497338
	    H     1.4603423978   1.3670925782  -1.8674530298
	    H    -1.5905846954   0.5348416890   3.0803346007
	    H     2.4537695034  -3.3324369244  -1.1588824486
	    H     3.1872220436   0.1740274373  -3.1642254114
	Saving final (previous) structure.
			--------------------------
			 OPTKING Finished Execution 
			--------------------------

    Final optimized geometry and variables:
    Molecular point group: c1
    Full point group: C1

    Geometry (in Angstrom), charge = -1, multiplicity = 1:

    C           -1.228007267187     0.912898477384    -0.722666753859
    C           -2.362630027931     1.394077640814    -0.111207966339
    C            1.223995369278    -1.698507919090    -0.531788530977
    C            1.650829859061     0.320362151419    -1.680342941190
    C           -1.514660738002     0.646159147490     2.009697068369
    C            2.219945295871    -2.284239797645    -1.293119467934
    C            2.620447676558    -0.351011532942    -2.406005918442
    C           -0.184786594378     0.297694574297    -0.010675702819
    C            0.919070695798    -0.344443091637    -0.693871560183
    C           -2.578136939634     1.305200053703     1.305968349773
    C           -0.413306528115     0.165724986256     1.356967537105
    N            2.927188879467    -1.640854641226    -2.230791001025
    O           -3.607040225972     1.754807539791     1.882318681868
    F            0.554884690240    -0.460404121534     2.100991468425
    H           -1.130849931162     0.986319680582    -1.799057880916
    H           -3.145246120992     1.848969763174    -0.701896094659
    H            0.679970049146    -2.284314595122     0.193049733816
    H            1.460342397781     1.367092578243    -1.867453029798
    H           -1.590584695362     0.534841688956     3.080334600679
    H            2.453769503406    -3.332436924360    -1.158882448636
    H            3.187222043649     0.174027437304    -3.164225411400

	Cleaning optimization helper files.

*** Psi4 exiting successfully. Buy a developer a beer!
