
    -----------------------------------------------------------------------
          Psi4: An Open-Source Ab Initio Electronic Structure Package
                               Psi4 1.1 release

                         Git: Rev {HEAD} add49b9 


    R. M. Parrish, L. A. Burns, D. G. A. Smith, A. C. Simmonett,
    A. E. DePrince III, E. G. Hohenstein, U. Bozkaya, A. Yu. Sokolov,
    R. Di Remigio, R. M. Richard, J. F. Gonthier, A. M. James,
    H. R. McAlexander, A. Kumar, M. Saitow, X. Wang, B. P. Pritchard,
    P. Verma, H. F. Schaefer III, K. Patkowski, R. A. King, E. F. Valeev,
    F. A. Evangelista, J. M. Turney, T. D. Crawford, and C. D. Sherrill,
    J. Chem. Theory Comput. in press (2017).
    (doi: 10.1021/acs.jctc.7b00174)

    -----------------------------------------------------------------------


    Psi4 started on: Sunday, 12 November 2017 01:08PM

    Process ID:  24814
    PSIDATADIR: /cbio/jclab/home/chayas/anaconda/envs/py35/share/psi4
    Memory:     500.0 MiB
    Threads:    8
    
  ==> Input File <==

--------------------------------------------------------------------------

memory 5 Gb

molecule phepyrOH_neutral {
  symmetry C1
  0 1 
  C      1.885   -1.036   -0.112
  C      2.878   -1.652   2.002
  C      0.807   -0.463   0.561
  C      1.800   -1.079   2.676
  C      3.862   -2.773   -1.356
  C      5.298   -2.250   0.501
  C      4.965   -3.329   -1.983
  C      6.337   -2.829   -0.209
  C      2.921   -1.631   0.608
  C      4.040   -2.225   -0.090
  C      0.764   -0.484   1.955
  N      6.202   -3.372   -1.440
  O      -0.288   0.076   2.612
  H      1.904   -1.012   -1.199
  H      3.678   -2.112   2.578
  H      0.003   -0.001   -0.006
  H      1.772   -1.098   3.762
  H      2.895   -2.772   -1.850
  H      5.475   -1.833   1.487
  H      4.879   -3.768   -2.972
  H      7.337   -2.875   0.208
  H      -0.922   0.446   1.977
  units Angstrom
}

dih_string = "3 11 13 22 0.001"
set optking fixed_dihedral = $dih_string

optimize('MP2/aug-cc-PVTZ')
--------------------------------------------------------------------------

  Memory set to   4.657 GiB by Python driver.
gradient() will perform analytic gradient computation.

*** tstart() called on gpu-3-8.local
*** at Sun Nov 12 13:08:04 2017

    SCF Algorithm Type (re)set to DF.

*** tstart() called on gpu-3-8.local
*** at Sun Nov 12 13:08:04 2017

   => Loading Basis Set <=

    Name: AUG-CC-PVTZ
    Role: ORBITAL
    Keyword: BASIS
    atoms 1-11  entry C          line   221 file /cbio/jclab/home/chayas/anaconda/envs/py35/share/psi4/basis/aug-cc-pvtz.gbs 
    atoms 12    entry N          line   267 file /cbio/jclab/home/chayas/anaconda/envs/py35/share/psi4/basis/aug-cc-pvtz.gbs 
    atoms 13    entry O          line   313 file /cbio/jclab/home/chayas/anaconda/envs/py35/share/psi4/basis/aug-cc-pvtz.gbs 
    atoms 14-22 entry H          line    34 file /cbio/jclab/home/chayas/anaconda/envs/py35/share/psi4/basis/aug-cc-pvtz.gbs 


         ---------------------------------------------------------
                                   SCF
            by Justin Turney, Rob Parrish, and Andy Simmonett
                              RHF Reference
                        8 Threads,   4768 MiB Core
         ---------------------------------------------------------

  ==> Geometry <==

    Molecular point group: c1
    Full point group: C1

    Geometry (in Angstrom), charge = 0, multiplicity = 1:

       Center              X                  Y                   Z               Mass       
    ------------   -----------------  -----------------  -----------------  -----------------
           C         -1.249166953997     0.706912769926    -0.581206859035    12.000000000000
           C         -0.256166953997     0.090912769926     1.532793140965    12.000000000000
           C         -2.327166953997     1.279912769926     0.091793140965    12.000000000000
           C         -1.334166953997     0.663912769926     2.206793140965    12.000000000000
           C          0.727833046003    -1.030087230074    -1.825206859035    12.000000000000
           C          2.163833046003    -0.507087230074     0.031793140965    12.000000000000
           C          1.830833046003    -1.586087230074    -2.452206859035    12.000000000000
           C          3.202833046003    -1.086087230074    -0.678206859035    12.000000000000
           C         -0.213166953997     0.111912769926     0.138793140965    12.000000000000
           C          0.905833046003    -0.482087230074    -0.559206859035    12.000000000000
           C         -2.370166953997     1.258912769926     1.485793140965    12.000000000000
           N          3.067833046003    -1.629087230074    -1.909206859035    14.003074004780
           O         -3.422166953997     1.818912769926     2.142793140965    15.994914619560
           H         -1.230166953997     0.730912769926    -1.668206859035     1.007825032070
           H          0.543833046003    -0.369087230074     2.108793140965     1.007825032070
           H         -3.131166953997     1.741912769926    -0.475206859035     1.007825032070
           H         -1.362166953997     0.644912769926     3.292793140965     1.007825032070
           H         -0.239166953997    -1.029087230074    -2.319206859035     1.007825032070
           H          2.340833046003    -0.090087230074     1.017793140965     1.007825032070
           H          1.744833046003    -2.025087230074    -3.441206859035     1.007825032070
           H          4.202833046003    -1.132087230074    -0.261206859035     1.007825032070
           H         -4.056166953997     2.188912769926     1.507793140965     1.007825032070

  Running in c1 symmetry.

  Rotational constants: A =      0.09693  B =      0.01355  C =      0.01208 [cm^-1]
  Rotational constants: A =   2906.00066  B =    406.14325  C =    362.29755 [MHz]
  Nuclear repulsion =  698.590425455149330

  Charge       = 0
  Multiplicity = 1
  Electrons    = 90
  Nalpha       = 45
  Nbeta        = 45

  ==> Algorithm <==

  SCF Algorithm Type is DF.
  DIIS enabled.
  MOM disabled.
  Fractional occupation disabled.
  Guess Type is SAD.
  Energy threshold   = 1.00e-10
  Density threshold  = 1.00e-10
  Integral threshold = 0.00e+00

  ==> Primary Basis <==

  Basis Set: AUG-CC-PVTZ
    Blend: AUG-CC-PVTZ
    Number of shells: 263
    Number of basis function: 805
    Number of Cartesian functions: 940
    Spherical Harmonics?: true
    Max angular momentum: 3

   => Loading Basis Set <=

    Name: (AUG-CC-PVTZ AUX)
    Role: JKFIT
    Keyword: DF_BASIS_SCF
    atoms 1-11  entry C          line   161 file /cbio/jclab/home/chayas/anaconda/envs/py35/share/psi4/basis/aug-cc-pvtz-jkfit.gbs 
    atoms 12    entry N          line   223 file /cbio/jclab/home/chayas/anaconda/envs/py35/share/psi4/basis/aug-cc-pvtz-jkfit.gbs 
    atoms 13    entry O          line   285 file /cbio/jclab/home/chayas/anaconda/envs/py35/share/psi4/basis/aug-cc-pvtz-jkfit.gbs 
    atoms 14-22 entry H          line    69 file /cbio/jclab/home/chayas/anaconda/envs/py35/share/psi4/basis/aug-cc-pvtz-jkfit.gbs 

  ==> Pre-Iterations <==

   -------------------------------------------------------
    Irrep   Nso     Nmo     Nalpha   Nbeta   Ndocc  Nsocc
   -------------------------------------------------------
     A        805     805       0       0       0       0
   -------------------------------------------------------
    Total     805     805      45      45      45       0
   -------------------------------------------------------

  ==> Integral Setup <==

  ==> DFJK: Density-Fitted J/K Matrices <==

    J tasked:                  Yes
    K tasked:                  Yes
    wK tasked:                  No
    OpenMP threads:              8
    Integrals threads:           8
    Memory (MB):              3576
    Algorithm:                Disk
    Integral Cache:           NONE
    Schwarz Cutoff:          1E-12
    Fitting Condition:       1E-12

   => Auxiliary Basis Set <=

  Basis Set: (AUG-CC-PVTZ AUX)
    Blend: AUG-CC-PVTZ-JKFIT
    Number of shells: 516
    Number of basis function: 1766
    Number of Cartesian functions: 2198
    Spherical Harmonics?: true
    Max angular momentum: 4

  Minimum eigenvalue in the overlap matrix is 5.5129496317E-07.
  Using Symmetric Orthogonalization.

  SCF Guess: Superposition of Atomic Densities via on-the-fly atomic UHF.

  ==> Iterations <==

                           Total Energy        Delta E     RMS |[F,P]|

   @DF-RHF iter   0:  -559.20759574999545   -5.59208e+02   2.45283e-02 
   @DF-RHF iter   1:  -550.95994088507155    8.24765e+00   1.55284e-03 
   @DF-RHF iter   2:  -551.22769976128393   -2.67759e-01   8.79859e-04 DIIS
   @DF-RHF iter   3:  -551.26828747049444   -4.05877e-02   4.75926e-04 DIIS
   @DF-RHF iter   4:  -551.28324120872878   -1.49537e-02   1.36807e-04 DIIS
   @DF-RHF iter   5:  -551.28512021446909   -1.87901e-03   5.25236e-05 DIIS
   @DF-RHF iter   6:  -551.28540907768797   -2.88863e-04   1.84530e-05 DIIS
   @DF-RHF iter   7:  -551.28544716147996   -3.80838e-05   6.08008e-06 DIIS
   @DF-RHF iter   8:  -551.28545133750094   -4.17602e-06   2.82978e-06 DIIS
   @DF-RHF iter   9:  -551.28545260363205   -1.26613e-06   1.17717e-06 DIIS
   @DF-RHF iter  10:  -551.28545307171771   -4.68086e-07   3.11512e-07 DIIS
   @DF-RHF iter  11:  -551.28545311958635   -4.78686e-08   1.65710e-07 DIIS
   @DF-RHF iter  12:  -551.28545312524818   -5.66183e-09   4.60608e-08 DIIS
   @DF-RHF iter  13:  -551.28545312577535   -5.27166e-10   2.15456e-08 DIIS
   @DF-RHF iter  14:  -551.28545312588074   -1.05388e-10   1.24027e-08 DIIS
   @DF-RHF iter  15:  -551.28545312591814   -3.74030e-11   5.93305e-09 DIIS
   @DF-RHF iter  16:  -551.28545312594736   -2.92175e-11   2.51351e-09 DIIS
   @DF-RHF iter  17:  -551.28545312592314    2.42153e-11   9.80870e-10 DIIS
   @DF-RHF iter  18:  -551.28545312595111   -2.79670e-11   3.95411e-10 DIIS
   @DF-RHF iter  19:  -551.28545312591098    4.01315e-11   1.59059e-10 DIIS
   @DF-RHF iter  20:  -551.28545312591996   -8.98126e-12   5.34327e-11 DIIS

  ==> Post-Iterations <==

    Orbital Energies (a.u.)
    -----------------------

    Doubly Occupied:                                                      

       1A    -20.601644     2A    -15.561007     3A    -11.316617  
       4A    -11.273657     5A    -11.273575     6A    -11.262870  
       7A    -11.255318     8A    -11.254161     9A    -11.246098  
      10A    -11.244193    11A    -11.242775    12A    -11.235666  
      13A    -11.235395    14A     -1.416711    15A     -1.247969  
      16A     -1.174242    17A     -1.103940    18A     -1.039553  
      19A     -1.028526    20A     -1.009569    21A     -0.881938  
      22A     -0.873538    23A     -0.839002    24A     -0.810580  
      25A     -0.749016    26A     -0.725053    27A     -0.684554  
      28A     -0.665022    29A     -0.650264    30A     -0.632488  
      31A     -0.614074    32A     -0.608620    33A     -0.602636  
      34A     -0.592123    35A     -0.575592    36A     -0.543237  
      37A     -0.530434    38A     -0.523040    39A     -0.501909  
      40A     -0.494804    41A     -0.416955    42A     -0.395602  
      43A     -0.355989    44A     -0.348718    45A     -0.305829  

    Virtual:                                                              

      46A      0.021343    47A      0.029594    48A      0.032100  
      49A      0.039632    50A      0.042756    51A      0.045216  
      52A      0.054989    53A      0.057098    54A      0.063537  
      55A      0.077449    56A      0.078608    57A      0.084001  
      58A      0.087908    59A      0.093470    60A      0.096943  
      61A      0.102289    62A      0.103793    63A      0.108400  
      64A      0.109733    65A      0.111625    66A      0.114889  
      67A      0.119321    68A      0.121739    69A      0.127185  
      70A      0.129862    71A      0.132704    72A      0.134617  
      73A      0.137208    74A      0.143625    75A      0.146207  
      76A      0.149178    77A      0.150173    78A      0.154101  
      79A      0.160206    80A      0.164657    81A      0.168182  
      82A      0.173849    83A      0.176727    84A      0.182673  
      85A      0.184600    86A      0.187031    87A      0.201038  
      88A      0.204206    89A      0.214553    90A      0.216257  
      91A      0.222206    92A      0.222944    93A      0.226069  
      94A      0.236777    95A      0.240295    96A      0.242242  
      97A      0.246380    98A      0.250348    99A      0.252767  
     100A      0.256050   101A      0.257251   102A      0.263602  
     103A      0.266065   104A      0.272889   105A      0.274412  
     106A      0.277401   107A      0.285446   108A      0.289166  
     109A      0.291025   110A      0.298393   111A      0.300090  
     112A      0.301418   113A      0.307084   114A      0.312173  
     115A      0.316304   116A      0.318241   117A      0.325630  
     118A      0.328234   119A      0.329080   120A      0.333935  
     121A      0.339818   122A      0.344666   123A      0.356081  
     124A      0.357731   125A      0.361939   126A      0.366048  
     127A      0.371718   128A      0.373850   129A      0.386210  
     130A      0.391670   131A      0.396528   132A      0.398330  
     133A      0.403982   134A      0.408602   135A      0.414278  
     136A      0.419026   137A      0.425015   138A      0.427936  
     139A      0.432850   140A      0.434257   141A      0.438442  
     142A      0.439645   143A      0.445892   144A      0.447468  
     145A      0.449020   146A      0.451382   147A      0.457961  
     148A      0.462208   149A      0.464674   150A      0.468024  
     151A      0.471877   152A      0.475964   153A      0.484199  
     154A      0.486016   155A      0.489287   156A      0.491868  
     157A      0.500892   158A      0.501593   159A      0.504148  
     160A      0.508300   161A      0.509524   162A      0.511773  
     163A      0.515012   164A      0.517130   165A      0.521129  
     166A      0.526147   167A      0.529243   168A      0.531556  
     169A      0.534095   170A      0.541264   171A      0.545878  
     172A      0.548583   173A      0.550367   174A      0.555239  
     175A      0.557035   176A      0.564998   177A      0.568244  
     178A      0.579300   179A      0.580460   180A      0.588124  
     181A      0.593925   182A      0.599809   183A      0.605719  
     184A      0.612258   185A      0.614479   186A      0.621349  
     187A      0.627654   188A      0.637580   189A      0.641082  
     190A      0.646567   191A      0.654526   192A      0.659719  
     193A      0.666183   194A      0.679438   195A      0.688030  
     196A      0.691596   197A      0.697042   198A      0.701973  
     199A      0.707038   200A      0.708745   201A      0.716687  
     202A      0.719866   203A      0.730241   204A      0.731702  
     205A      0.733729   206A      0.739508   207A      0.739982  
     208A      0.749345   209A      0.755386   210A      0.763895  
     211A      0.767574   212A      0.772812   213A      0.777526  
     214A      0.798599   215A      0.802645   216A      0.804003  
     217A      0.807883   218A      0.812159   219A      0.816883  
     220A      0.823489   221A      0.829320   222A      0.833662  
     223A      0.837344   224A      0.840045   225A      0.847974  
     226A      0.855640   227A      0.856805   228A      0.866063  
     229A      0.870059   230A      0.876008   231A      0.879528  
     232A      0.883133   233A      0.883616   234A      0.888600  
     235A      0.892536   236A      0.896283   237A      0.907175  
     238A      0.910165   239A      0.911537   240A      0.918430  
     241A      0.927086   242A      0.930346   243A      0.934508  
     244A      0.944061   245A      0.947696   246A      0.952552  
     247A      0.957075   248A      0.963194   249A      0.965233  
     250A      0.970795   251A      0.974939   252A      0.978262  
     253A      0.981791   254A      0.987219   255A      0.990347  
     256A      0.995967   257A      0.998803   258A      1.002764  
     259A      1.013984   260A      1.016936   261A      1.018370  
     262A      1.020437   263A      1.026104   264A      1.031353  
     265A      1.039730   266A      1.041068   267A      1.041716  
     268A      1.047737   269A      1.049982   270A      1.057343  
     271A      1.059236   272A      1.060073   273A      1.070074  
     274A      1.076607   275A      1.078095   276A      1.085889  
     277A      1.089258   278A      1.092021   279A      1.099276  
     280A      1.100633   281A      1.103905   282A      1.106883  
     283A      1.115009   284A      1.116231   285A      1.122836  
     286A      1.123448   287A      1.126381   288A      1.136873  
     289A      1.149680   290A      1.153758   291A      1.159723  
     292A      1.162525   293A      1.166327   294A      1.169505  
     295A      1.173693   296A      1.177837   297A      1.185033  
     298A      1.188831   299A      1.194456   300A      1.202462  
     301A      1.207015   302A      1.208728   303A      1.214082  
     304A      1.219440   305A      1.221895   306A      1.225132  
     307A      1.231510   308A      1.234032   309A      1.245526  
     310A      1.251620   311A      1.257069   312A      1.266356  
     313A      1.274872   314A      1.277922   315A      1.285293  
     316A      1.288754   317A      1.297694   318A      1.299665  
     319A      1.304642   320A      1.312260   321A      1.317453  
     322A      1.326597   323A      1.334398   324A      1.340846  
     325A      1.347483   326A      1.353571   327A      1.358949  
     328A      1.371504   329A      1.378172   330A      1.389196  
     331A      1.393329   332A      1.398119   333A      1.411828  
     334A      1.425497   335A      1.431946   336A      1.442952  
     337A      1.450123   338A      1.452981   339A      1.455107  
     340A      1.463042   341A      1.464563   342A      1.476241  
     343A      1.495047   344A      1.498850   345A      1.504442  
     346A      1.508914   347A      1.515206   348A      1.521621  
     349A      1.528530   350A      1.533683   351A      1.539883  
     352A      1.552249   353A      1.560476   354A      1.575203  
     355A      1.586410   356A      1.591464   357A      1.598878  
     358A      1.607442   359A      1.608519   360A      1.616067  
     361A      1.623300   362A      1.647248   363A      1.654595  
     364A      1.655123   365A      1.660729   366A      1.673356  
     367A      1.677920   368A      1.692342   369A      1.695624  
     370A      1.699173   371A      1.703301   372A      1.712128  
     373A      1.722940   374A      1.727585   375A      1.734086  
     376A      1.740959   377A      1.745312   378A      1.751198  
     379A      1.755449   380A      1.771010   381A      1.776674  
     382A      1.781747   383A      1.795424   384A      1.805063  
     385A      1.815546   386A      1.819172   387A      1.827238  
     388A      1.833863   389A      1.839335   390A      1.842975  
     391A      1.852579   392A      1.863281   393A      1.865720  
     394A      1.868757   395A      1.876193   396A      1.884056  
     397A      1.906317   398A      1.910519   399A      1.919270  
     400A      1.927296   401A      1.942393   402A      1.946460  
     403A      1.953307   404A      1.960972   405A      1.966581  
     406A      1.968908   407A      1.975022   408A      1.982334  
     409A      1.991166   410A      1.998828   411A      2.010236  
     412A      2.019824   413A      2.022199   414A      2.034633  
     415A      2.040197   416A      2.047634   417A      2.054439  
     418A      2.056212   419A      2.065637   420A      2.073552  
     421A      2.079470   422A      2.090017   423A      2.096730  
     424A      2.108362   425A      2.109723   426A      2.119775  
     427A      2.125770   428A      2.131614   429A      2.134675  
     430A      2.140027   431A      2.146848   432A      2.151771  
     433A      2.175869   434A      2.181548   435A      2.187095  
     436A      2.193650   437A      2.195533   438A      2.213280  
     439A      2.222557   440A      2.234107   441A      2.237232  
     442A      2.243214   443A      2.257655   444A      2.267098  
     445A      2.274029   446A      2.294079   447A      2.306188  
     448A      2.312409   449A      2.320498   450A      2.329717  
     451A      2.340400   452A      2.354153   453A      2.362210  
     454A      2.366307   455A      2.377210   456A      2.380622  
     457A      2.400099   458A      2.402238   459A      2.407633  
     460A      2.414911   461A      2.418820   462A      2.433180  
     463A      2.452916   464A      2.457791   465A      2.477156  
     466A      2.485107   467A      2.508918   468A      2.509259  
     469A      2.525805   470A      2.533608   471A      2.549642  
     472A      2.559959   473A      2.567250   474A      2.572230  
     475A      2.582109   476A      2.585969   477A      2.604481  
     478A      2.608598   479A      2.616185   480A      2.645513  
     481A      2.648406   482A      2.657793   483A      2.685028  
     484A      2.715595   485A      2.724795   486A      2.751387  
     487A      2.762699   488A      2.776267   489A      2.806399  
     490A      2.814371   491A      2.820812   492A      2.836221  
     493A      2.856059   494A      2.865910   495A      2.867816  
     496A      2.885247   497A      2.895928   498A      2.900085  
     499A      2.940777   500A      2.953027   501A      2.994028  
     502A      3.002478   503A      3.015252   504A      3.062206  
     505A      3.068165   506A      3.085221   507A      3.104728  
     508A      3.121082   509A      3.151660   510A      3.165641  
     511A      3.194767   512A      3.212614   513A      3.229217  
     514A      3.236693   515A      3.240087   516A      3.249410  
     517A      3.278326   518A      3.292498   519A      3.300746  
     520A      3.307035   521A      3.318386   522A      3.336170  
     523A      3.345392   524A      3.358374   525A      3.369499  
     526A      3.375493   527A      3.387475   528A      3.401168  
     529A      3.409417   530A      3.418821   531A      3.426867  
     532A      3.433379   533A      3.441492   534A      3.446794  
     535A      3.461115   536A      3.474843   537A      3.479219  
     538A      3.490996   539A      3.497880   540A      3.516034  
     541A      3.520876   542A      3.528060   543A      3.537574  
     544A      3.543561   545A      3.553340   546A      3.558888  
     547A      3.563687   548A      3.577174   549A      3.581880  
     550A      3.586376   551A      3.589797   552A      3.596898  
     553A      3.605049   554A      3.630207   555A      3.640694  
     556A      3.648243   557A      3.654295   558A      3.666616  
     559A      3.674009   560A      3.690239   561A      3.696070  
     562A      3.708544   563A      3.717400   564A      3.731985  
     565A      3.744401   566A      3.757212   567A      3.767905  
     568A      3.779484   569A      3.780730   570A      3.786971  
     571A      3.792691   572A      3.816187   573A      3.819920  
     574A      3.833828   575A      3.837146   576A      3.846369  
     577A      3.856731   578A      3.859861   579A      3.874940  
     580A      3.882473   581A      3.890046   582A      3.895879  
     583A      3.899256   584A      3.913921   585A      3.922020  
     586A      3.935876   587A      3.941529   588A      3.943757  
     589A      3.948918   590A      3.963158   591A      3.969551  
     592A      3.973687   593A      3.986774   594A      3.998562  
     595A      4.005254   596A      4.013270   597A      4.025489  
     598A      4.030667   599A      4.034331   600A      4.037898  
     601A      4.040456   602A      4.058346   603A      4.084246  
     604A      4.095269   605A      4.099371   606A      4.111834  
     607A      4.122359   608A      4.127525   609A      4.141003  
     610A      4.146818   611A      4.150097   612A      4.155776  
     613A      4.170276   614A      4.175628   615A      4.186311  
     616A      4.201483   617A      4.202572   618A      4.213983  
     619A      4.224963   620A      4.233984   621A      4.253817  
     622A      4.255321   623A      4.262948   624A      4.275437  
     625A      4.283290   626A      4.294066   627A      4.305712  
     628A      4.316898   629A      4.326256   630A      4.331549  
     631A      4.339995   632A      4.345248   633A      4.355319  
     634A      4.364335   635A      4.371090   636A      4.388515  
     637A      4.390929   638A      4.401553   639A      4.408252  
     640A      4.414328   641A      4.425840   642A      4.432885  
     643A      4.439980   644A      4.444306   645A      4.452236  
     646A      4.458768   647A      4.466154   648A      4.473312  
     649A      4.495468   650A      4.499469   651A      4.506584  
     652A      4.515674   653A      4.524386   654A      4.528276  
     655A      4.535783   656A      4.557624   657A      4.574438  
     658A      4.589893   659A      4.601498   660A      4.619345  
     661A      4.636942   662A      4.644029   663A      4.669099  
     664A      4.680369   665A      4.686507   666A      4.695150  
     667A      4.704469   668A      4.723284   669A      4.734360  
     670A      4.747993   671A      4.770848   672A      4.784472  
     673A      4.800264   674A      4.808671   675A      4.824417  
     676A      4.844538   677A      4.868860   678A      4.873272  
     679A      4.885260   680A      4.897931   681A      4.914660  
     682A      4.932750   683A      4.943835   684A      4.948221  
     685A      4.953808   686A      4.964897   687A      4.984916  
     688A      4.994122   689A      5.011228   690A      5.026838  
     691A      5.033197   692A      5.046310   693A      5.050354  
     694A      5.056752   695A      5.078921   696A      5.096830  
     697A      5.098513   698A      5.112851   699A      5.122861  
     700A      5.136393   701A      5.145631   702A      5.146999  
     703A      5.162845   704A      5.166311   705A      5.172425  
     706A      5.180665   707A      5.211512   708A      5.222480  
     709A      5.233460   710A      5.244092   711A      5.267376  
     712A      5.281969   713A      5.297236   714A      5.304841  
     715A      5.312950   716A      5.325645   717A      5.345315  
     718A      5.360239   719A      5.378518   720A      5.398419  
     721A      5.414038   722A      5.422115   723A      5.429160  
     724A      5.443026   725A      5.447349   726A      5.485863  
     727A      5.489502   728A      5.528004   729A      5.545152  
     730A      5.555760   731A      5.561251   732A      5.571977  
     733A      5.624902   734A      5.632312   735A      5.671923  
     736A      5.703595   737A      5.710904   738A      5.715342  
     739A      5.757613   740A      5.764345   741A      5.801430  
     742A      5.826563   743A      5.828177   744A      5.852079  
     745A      5.875038   746A      5.880729   747A      5.916390  
     748A      5.927499   749A      5.986861   750A      6.067325  
     751A      6.087511   752A      6.122498   753A      6.158309  
     754A      6.188459   755A      6.217870   756A      6.266980  
     757A      6.282766   758A      6.333745   759A      6.374788  
     760A      6.406989   761A      6.438405   762A      6.471166  
     763A      6.483701   764A      6.507379   765A      6.527718  
     766A      6.600610   767A      6.627933   768A      6.712095  
     769A      6.715303   770A      6.740916   771A      6.746765  
     772A      6.887574   773A      6.892802   774A      6.901309  
     775A      6.912719   776A      6.944402   777A      6.976622  
     778A      7.002346   779A      7.050916   780A      7.100609  
     781A      7.107735   782A      7.225378   783A      7.258066  
     784A      7.421711   785A      7.425166   786A      7.446039  
     787A      7.685667   788A      7.711596   789A      7.757084  
     790A      8.011467   791A      8.388671   792A      8.637234  
     793A     15.640908   794A     16.396258   795A     16.674499  
     796A     16.764310   797A     16.830742   798A     18.434618  
     799A     18.826406   800A     19.208130   801A     19.584666  
     802A     20.061053   803A     20.085641   804A     20.599885  
     805A     21.826057  

    Final Occupation by Irrep:
              A 
    DOCC [    45 ]

  Energy converged.

  @DF-RHF Final Energy:  -551.28545312591996

   => Energetics <=

    Nuclear Repulsion Energy =            698.5904254551493295
    One-Electron Energy =               -2133.8627514225986488
    Two-Electron Energy =                 883.9868728415294754
    DFT Exchange-Correlation Energy =       0.0000000000000000
    Empirical Dispersion Energy =           0.0000000000000000
    PCM Polarization Energy =               0.0000000000000000
    EFP Energy =                            0.0000000000000000
    Total Energy =                       -551.2854531259199575



Properties will be evaluated at   0.000000,   0.000000,   0.000000 Bohr

Properties computed using the SCF density matrix

  Nuclear Dipole Moment: (a.u.)
     X:    -1.1377      Y:     0.6333      Z:    -0.2071

  Electronic Dipole Moment: (a.u.)
     X:     0.0440      Y:    -0.0311      Z:     0.2996

  Dipole Moment: (a.u.)
     X:    -1.0937      Y:     0.6022      Z:     0.0924     Total:     1.2520

  Dipole Moment: (Debye)
     X:    -2.7799      Y:     1.5307      Z:     0.2349     Total:     3.1822


*** tstop() called on gpu-3-8.local at Sun Nov 12 13:15:58 2017
Module time:
	user time   =    1068.20 seconds =      17.80 minutes
	system time =      50.70 seconds =       0.85 minutes
	total time  =        474 seconds =       7.90 minutes
Total time:
	user time   =    1068.20 seconds =      17.80 minutes
	system time =      50.70 seconds =       0.85 minutes
	total time  =        474 seconds =       7.90 minutes

  //>>>>>>>>>>>>>>>>>>>>>>>>>>>>>>>>>>>//
  //               DFMP2               //
  //<<<<<<<<<<<<<<<<<<<<<<<<<<<<<<<<<<<//

   => Loading Basis Set <=

    Name: (AUG-CC-PVTZ AUX)
    Role: RIFIT
    Keyword: DF_BASIS_MP2
    atoms 1-11  entry C          line   147 file /cbio/jclab/home/chayas/anaconda/envs/py35/share/psi4/basis/aug-cc-pvtz-ri.gbs 
    atoms 12    entry N          line   205 file /cbio/jclab/home/chayas/anaconda/envs/py35/share/psi4/basis/aug-cc-pvtz-ri.gbs 
    atoms 13    entry O          line   263 file /cbio/jclab/home/chayas/anaconda/envs/py35/share/psi4/basis/aug-cc-pvtz-ri.gbs 
    atoms 14-22 entry H          line    29 file /cbio/jclab/home/chayas/anaconda/envs/py35/share/psi4/basis/aug-cc-pvtz-ri.gbs 

	 --------------------------------------------------------
	                          DF-MP2                         
	      2nd-Order Density-Fitted Moller-Plesset Theory     
	              RMP2 Wavefunction,   8 Threads             
	                                                         
	        Rob Parrish, Justin Turney, Andy Simmonett,      
	           Ed Hohenstein, and C. David Sherrill          
	 --------------------------------------------------------

   => Auxiliary Basis Set <=

  Basis Set: (AUG-CC-PVTZ AUX)
    Blend: AUG-CC-PVTZ-RI
    Number of shells: 490
    Number of basis function: 1792
    Number of Cartesian functions: 2263
    Spherical Harmonics?: true
    Max angular momentum: 4

	 --------------------------------------------------------
	                 NBF =   805, NAUX =  1792
	 --------------------------------------------------------
	   CLASS    FOCC     OCC    AOCC    AVIR     VIR    FVIR
	   PAIRS       0      45      45     760     760       0
	 --------------------------------------------------------


         ------------------------------------------------------------
                                     CPHF                           
                                  Rob Parrish                       
         ------------------------------------------------------------

  ==> Geometry <==

    Molecular point group: c1
    Full point group: C1

    Geometry (in Angstrom), charge = 0, multiplicity = 1:

       Center              X                  Y                   Z               Mass       
    ------------   -----------------  -----------------  -----------------  -----------------
           C         -1.249166953997     0.706912769926    -0.581206859035    12.000000000000
           C         -0.256166953997     0.090912769926     1.532793140965    12.000000000000
           C         -2.327166953997     1.279912769926     0.091793140965    12.000000000000
           C         -1.334166953997     0.663912769926     2.206793140965    12.000000000000
           C          0.727833046003    -1.030087230074    -1.825206859035    12.000000000000
           C          2.163833046003    -0.507087230074     0.031793140965    12.000000000000
           C          1.830833046003    -1.586087230074    -2.452206859035    12.000000000000
           C          3.202833046003    -1.086087230074    -0.678206859035    12.000000000000
           C         -0.213166953997     0.111912769926     0.138793140965    12.000000000000
           C          0.905833046003    -0.482087230074    -0.559206859035    12.000000000000
           C         -2.370166953997     1.258912769926     1.485793140965    12.000000000000
           N          3.067833046003    -1.629087230074    -1.909206859035    14.003074004780
           O         -3.422166953997     1.818912769926     2.142793140965    15.994914619560
           H         -1.230166953997     0.730912769926    -1.668206859035     1.007825032070
           H          0.543833046003    -0.369087230074     2.108793140965     1.007825032070
           H         -3.131166953997     1.741912769926    -0.475206859035     1.007825032070
           H         -1.362166953997     0.644912769926     3.292793140965     1.007825032070
           H         -0.239166953997    -1.029087230074    -2.319206859035     1.007825032070
           H          2.340833046003    -0.090087230074     1.017793140965     1.007825032070
           H          1.744833046003    -2.025087230074    -3.441206859035     1.007825032070
           H          4.202833046003    -1.132087230074    -0.261206859035     1.007825032070
           H         -4.056166953997     2.188912769926     1.507793140965     1.007825032070

  Nuclear repulsion =  698.590425455149330
  Reference energy  = -551.285453125919958

  ==> Basis Set <==

  Basis Set: AUG-CC-PVTZ
    Blend: AUG-CC-PVTZ
    Number of shells: 263
    Number of basis function: 805
    Number of Cartesian functions: 940
    Spherical Harmonics?: true
    Max angular momentum: 3

  ==> CGRSolver (by Rob Parrish) <==

   Number of roots    =         1
   Preconditioning    =    JACOBI
   Convergence cutoff =     1E-06
   Maximum iterations =       100

  ==> CPHFRHamiltonian (by Rob Parrish) <== 

  ==> DFJK: Density-Fitted J/K Matrices <==

    J tasked:                  Yes
    K tasked:                  Yes
    wK tasked:                  No
    OpenMP threads:              8
    Integrals threads:           8
    Memory (MB):              3576
    Algorithm:                Disk
    Integral Cache:           NONE
    Schwarz Cutoff:          1E-12
    Fitting Condition:       1E-12

   => Auxiliary Basis Set <=

  Basis Set: (AUG-CC-PVTZ AUX)
    Blend: AUG-CC-PVTZ-JKFIT
    Number of shells: 516
    Number of basis function: 1766
    Number of Cartesian functions: 2198
    Spherical Harmonics?: true
    Max angular momentum: 4

  ==> CPHF Iterations <==

  => Iterations <=

             Iter  Converged  Remaining    Residual
  CGR           1          0          1   9.189E-02
  CGR           2          0          1   3.822E-02
  CGR           3          0          1   2.663E-02
  CGR           4          0          1   1.058E-02
  CGR           5          0          1   4.219E-03
  CGR           6          0          1   1.782E-03
  CGR           7          0          1   5.013E-04
  CGR           8          0          1   1.578E-04
  CGR           9          0          1   7.760E-05
  CGR          10          0          1   3.648E-05
  CGR          11          0          1   1.414E-05
  CGR          12          0          1   5.038E-06
  CGR          13          0          1   1.497E-06
  CGR          14          1          0   4.878E-07

    CGRSolver converged.

  ==> DFCorrGrad: Density-Fitted Correlated Gradients <==

    OpenMP threads:              8
    Integrals threads:           8
    Memory (MB):              3576
    Schwarz Cutoff:          0E+00
    Fitting Condition:       1E-12

   => Auxiliary Basis Set <=

  Basis Set: (AUG-CC-PVTZ AUX)
    Blend: AUG-CC-PVTZ-JKFIT
    Number of shells: 516
    Number of basis function: 1766
    Number of Cartesian functions: 2198
    Spherical Harmonics?: true
    Max angular momentum: 4

	-----------------------------------------------------------
	 ==================> DF-MP2 Energies <==================== 
	-----------------------------------------------------------
	 Reference Energy          =    -551.2854531259199575 [Eh]
	 Singles Energy            =      -0.0000000000000001 [Eh]
	 Same-Spin Energy          =      -0.6052629982271974 [Eh]
	 Opposite-Spin Energy      =      -1.8311341152790390 [Eh]
	 Correlation Energy        =      -2.4363971135062363 [Eh]
	 Total Energy              =    -553.7218502394262032 [Eh]
	-----------------------------------------------------------
	 ================> DF-SCS-MP2 Energies <================== 
	-----------------------------------------------------------
	 SCS Same-Spin Scale       =       0.3333333333333333 [-]
	 SCS Opposite-Spin Scale   =       1.2000000000000000 [-]
	 SCS Same-Spin Energy      =      -0.2017543327423991 [Eh]
	 SCS Opposite-Spin Energy  =      -2.1973609383348469 [Eh]
	 SCS Correlation Energy    =      -2.3991152710772461 [Eh]
	 SCS Total Energy          =    -553.6845683969971788 [Eh]
	-----------------------------------------------------------


  -Total Gradient:
     Atom            X                  Y                   Z
    ------   -----------------  -----------------  -----------------
       1        0.009576957807    -0.002519424555    -0.006390890815
       2        0.011010933185    -0.008020905060    -0.003520892611
       3       -0.008249698086     0.004669277329     0.003328818574
       4       -0.001227316980     0.000139250447    -0.002173451442
       5       -0.010058102238     0.001574629575     0.002177323951
       6       -0.005014004031     0.006255448420     0.007078596051
       7       -0.012679120189     0.002100940498    -0.000213986377
       8       -0.003021871895     0.007003146143     0.011004170819
       9        0.002526364674    -0.001509137113    -0.001368152579
      10        0.004642396147    -0.002130788017    -0.001813778945
      11        0.001801880434    -0.001251190396     0.010393457373
      12        0.012433210651    -0.006961601138    -0.008095206134
      13        0.002823865701    -0.001399053174    -0.005360145963
      14       -0.001532399887    -0.001057780887    -0.006385155044
      15        0.005697883911    -0.001267514252     0.004013920372
      16       -0.002468959331     0.001153263913    -0.003066230040
      17        0.002413129975    -0.001087948968     0.005265532891
      18       -0.004514030232     0.001232108731    -0.003949923217
      19        0.001093457992     0.000274512790     0.005513716970
      20        0.000495194176    -0.001025146766    -0.002852984364
      21        0.002294066644    -0.000745047522     0.000433715445
      22       -0.008043838415     0.004572960012    -0.004018454906


*** tstop() called on gpu-3-8.local at Sun Nov 12 13:47:55 2017
Module time:
	user time   =    5198.63 seconds =      86.64 minutes
	system time =     121.11 seconds =       2.02 minutes
	total time  =       2391 seconds =      39.85 minutes
Total time:
	user time   =    5198.63 seconds =      86.64 minutes
	system time =     121.11 seconds =       2.02 minutes
	total time  =       2391 seconds =      39.85 minutes

			-----------------------------------------
			 OPTKING 2.0: for geometry optimizations 
			  - R.A. King,  Bethel University        
			-----------------------------------------

	Internal coordinates to be generated automatically.
	Detected frag 1 with atoms:  1 2 3 4 5 6 7 8 9 10 11 12 13 14 15 16 17 18 19 20
	 21 22
	---Fragment 1 Bond Connectivity---
	 1 : 3 9 14
	 2 : 4 9 15
	 3 : 1 11 16
	 4 : 2 11 17
	 5 : 7 10 18
	 6 : 8 10 19
	 7 : 5 12 20
	 8 : 6 12 21
	 9 : 1 2 10
	 10 : 5 6 9
	 11 : 3 4 13
	 12 : 7 8
	 13 : 11 22
	 14 : 1
	 15 : 2
	 16 : 3
	 17 : 4
	 18 : 5
	 19 : 6
	 20 : 7
	 21 : 8
	 22 : 13

	Assuming in current code that numbering for constraints corresponds to unified fragment.
	Fixed dihedral atom list: 
	     3    11    13    22
	---Fragment 1 Geometry and Gradient---
	 C          -2.3605834373        1.3358715350       -1.0983217901
	 C          -0.4840853874        0.1718002371        2.8965592548
	 C          -4.3977082086        2.4186846091        0.1734638973
	 C          -2.5212101586        1.2546133113        4.1702346684
	 C           1.3754051274       -1.9465827578       -3.4491410994
	 C           4.0890518542       -0.9582559903        0.0600803293
	 C           3.4597730520       -2.9972704877       -4.6339993848
	 C           6.0524773063       -2.0524074213       -1.2816252250
	 C          -0.4028271636        0.2114844859        0.2622810255
	 C           1.7117763791       -0.9110128370       -1.0567478152
	 C          -4.4789664323        2.3790003604        2.8077421265
	 N           5.7973642784       -3.0785287114       -3.6078780946
	 O          -6.4669583241        3.4372469948        4.0492921958
	 H          -2.3246786408        1.3812249622       -3.1524540966
	 H           1.0276955190       -0.6974737840        3.9850415073
	 H          -5.9170480194        3.2917380825       -0.8980108200
	 H          -2.5741224903        1.2187085148        6.2224772487
	 H          -0.4519600431       -1.9446930317       -4.3826658091
	 H           4.4235333798       -0.1702401929        1.9233502964
	 H           3.2972566046       -3.8268602600       -6.5029385302
	 H           7.9422034392       -2.1393348234       -0.4936094276
	 H          -7.6650446923        4.1364456639        2.8493161015
	             0.0095769578       -0.0025194246       -0.0063908908
	             0.0110109332       -0.0080209051       -0.0035208926
	            -0.0082496981        0.0046692773        0.0033288186
	            -0.0012273170        0.0001392504       -0.0021734514
	            -0.0100581022        0.0015746296        0.0021773240
	            -0.0050140040        0.0062554484        0.0070785961
	            -0.0126791202        0.0021009405       -0.0002139864
	            -0.0030218719        0.0070031461        0.0110041708
	             0.0025263647       -0.0015091371       -0.0013681526
	             0.0046423961       -0.0021307880       -0.0018137789
	             0.0018018804       -0.0012511904        0.0103934574
	             0.0124332107       -0.0069616011       -0.0080952061
	             0.0028238657       -0.0013990532       -0.0053601460
	            -0.0015323999       -0.0010577809       -0.0063851550
	             0.0056978839       -0.0012675143        0.0040139204
	            -0.0024689593        0.0011532639       -0.0030662300
	             0.0024131300       -0.0010879490        0.0052655329
	            -0.0045140302        0.0012321087       -0.0039499232
	             0.0010934580        0.0002745128        0.0055137170
	             0.0004951942       -0.0010251468       -0.0028529844
	             0.0022940666       -0.0007450475        0.0004337154
	            -0.0080438384        0.0045729600       -0.0040184549

	Previous optimization step data not found.  Starting new optimization.

	---Fragment 1 Intrafragment Coordinates---
	 - Coordinate -           - BOHR/RAD -       - ANG/DEG -
	 R(1,3)           =         2.634350	       1.394038
	 R(1,9)           =         2.635962	       1.394891
	 R(1,14)          =         2.054947	       1.087431
	 R(2,4)           =         2.635263	       1.394521
	 R(2,9)           =         2.635830	       1.394821
	 R(2,15)          =         2.055702	       1.087831
	 R(3,11)          =         2.635830	       1.394821
	 R(3,16)          =         2.053941	       1.086899
	 R(4,11)          =         2.636938	       1.395407
	 R(4,17)          =         2.053239	       1.086527
	 R(5,7)           =         2.617713	       1.385234
	 R(5,10)          =         2.628516	       1.390951
	 R(5,18)          =         2.052008	       1.085876
	 R(6,8)           =         2.617705	       1.385230
	 R(6,10)          =         2.626971	       1.390133
	 R(6,19)          =         2.050517	       1.085087
	 R(7,12)          =         2.554185	       1.351616
	 R(7,20)          =         2.051235	       1.085467
	 R(8,12)          =         2.555281	       1.352196
	 R(8,21)          =         2.049290	       1.084438
	 R(9,10)          =         2.733384	       1.446444
	 R(11,13)         =         2.571662	       1.360865
	 R(13,22)         =         1.834184	       0.970609
	 B(1,3,11)        =         2.094553	     120.009056
	 B(1,3,16)        =         2.088505	     119.662516
	 B(1,9,2)         =         2.093692	     119.959722
	 B(1,9,10)        =         2.095161	     120.043881
	 B(2,4,11)        =         2.093699	     119.960108
	 B(2,4,17)        =         2.089577	     119.723926
	 B(2,9,10)        =         2.094332	     119.996376
	 B(3,1,9)         =         2.094940	     120.031219
	 B(3,1,14)        =         2.079469	     119.144799
	 B(3,11,4)        =         2.094306	     119.994870
	 B(3,11,13)       =         2.094549	     120.008801
	 B(4,2,9)         =         2.095181	     120.045019
	 B(4,2,15)        =         2.078675	     119.099297
	 B(4,11,13)       =         2.094331	     119.996326
	 B(5,7,12)        =         2.164774	     124.032419
	 B(5,7,20)        =         2.107900	     120.773750
	 B(5,10,6)        =         2.089402	     119.713913
	 B(5,10,9)        =         2.096711	     120.132663
	 B(6,8,12)        =         2.164670	     124.026428
	 B(6,8,21)        =         2.108649	     120.816676
	 B(6,10,9)        =         2.097073	     120.153413
	 B(7,5,10)        =         2.058056	     117.917911
	 B(7,5,18)        =         2.098486	     120.234396
	 B(7,12,8)        =         2.031222	     116.380442
	 B(8,6,10)        =         2.058246	     117.928826
	 B(8,6,19)        =         2.099051	     120.266760
	 B(9,1,14)        =         2.108776	     120.823969
	 B(9,2,15)        =         2.109330	     120.855683
	 B(10,5,18)       =         2.126643	     121.847689
	 B(10,6,19)       =         2.125888	     121.804412
	 B(11,3,16)       =         2.100127	     120.328425
	 B(11,4,17)       =         2.099910	     120.315955
	 B(11,13,22)      =         1.924063	     110.240679
	 B(12,7,20)       =         2.010511	     115.193804
	 B(12,8,21)       =         2.009864	     115.156734
	 D(1,3,11,4)      =        -0.000325	      -0.018609
	 D(1,3,11,13)     =         3.140978	     179.964785
	 D(1,9,2,4)       =         0.000325	       0.018608
	 D(1,9,2,15)      =        -3.141497	    -179.994534
	 D(1,9,10,5)      =        -0.524224	     -30.035797
	 D(1,9,10,6)      =         2.616694	     149.925506
	 D(2,4,11,3)      =         0.000301	       0.017261
	 D(2,4,11,13)     =        -3.141002	    -179.966135
	 D(2,9,1,3)       =        -0.000348	      -0.019945
	 D(2,9,1,14)      =        -3.141221	    -179.978731
	 D(2,9,10,5)      =         2.618285	     150.016707
	 D(2,9,10,6)      =        -0.523983	     -30.021991
	 D(3,1,9,10)      =        -3.141025	    -179.967461
	 D(3,11,4,17)     =         3.141223	     179.978848
	 D(3,11,13,22)    =         0.000564	       0.032328
	 D(4,2,9,10)      =         3.141002	     179.966149
	 D(4,11,3,16)     =         3.141593	     180.000000
	 D(4,11,13,22)    =        -3.141318	    -179.984278
	 D(5,7,12,8)      =        -0.001332	      -0.076323
	 D(5,10,6,8)      =         0.000381	       0.021838
	 D(5,10,6,19)     =        -3.140989	    -179.965395
	 D(6,8,12,7)      =         0.001671	       0.095732
	 D(6,10,5,7)      =        -0.000077	      -0.004437
	 D(6,10,5,18)     =        -3.141299	    -179.983151
	 D(7,5,10,9)      =         3.140843	     179.957036
	 D(7,12,8,21)     =         3.140716	     179.949799
	 D(8,6,10,9)      =        -3.140539	    -179.939628
	 D(8,12,7,20)     =         3.139212	     179.863574
	 D(9,1,3,11)      =         0.000348	       0.019955
	 D(9,1,3,16)      =        -3.141571	    -179.998735
	 D(9,2,4,11)      =        -0.000301	      -0.017270
	 D(9,2,4,17)      =        -3.141228	    -179.979086
	 D(9,10,5,18)     =        -0.000378	      -0.021678
	 D(9,10,6,19)     =         0.001277	       0.073140
	 D(10,5,7,12)     =         0.000580	       0.033223
	 D(10,5,7,20)     =        -3.139908	    -179.903478
	 D(10,6,8,12)     =        -0.001235	      -0.070741
	 D(10,6,8,21)     =        -3.140143	    -179.916933
	 D(10,9,1,14)     =         0.001287	       0.073752
	 D(10,9,2,15)     =        -0.000820	      -0.046992
	 D(11,3,1,14)     =         3.141234	     179.979432
	 D(11,4,2,15)     =         3.141517	     179.995641
	 D(12,7,5,18)     =        -3.141378	    -179.987706
	 D(12,8,6,19)     =         3.140139	     179.916697
	 D(13,11,3,16)    =        -0.000286	      -0.016400
	 D(13,11,4,17)    =        -0.000079	      -0.004548
	 D(14,1,3,16)     =        -0.000685	      -0.039257
	 D(15,2,4,17)     =         0.000590	       0.033826
	 D(18,5,7,20)     =         0.001319	       0.075593
	 D(19,6,8,21)     =         0.001231	       0.070505

	Current energy   :      -553.7218502394

	Generating empirical Hessian (Schlegel '84) for each fragment.
	Adding user-defined constraint: Fragment 1; Coordinate 73:
		Value =     0.000564; Fixed value    =     0.000017
		Force =    -0.000273; Force constant =     0.500000
	Removing off-diagonal coupling between coordinate 73 and others.
	Taking RFO optimization step.
	Going to follow RFO solution 1.
	Using RFO vector 1.

	Determining step-restricting scale parameter for RS-RFO.
	Maximum step size allowed    0.10000

	 Iter      |step|        alpha        rfo_root  
	------------------------------------------------
	    0     0.25697       1.00000           1
	    1     0.18440       3.71964           1
	    2     0.14312      10.33022           1
	    3     0.11652      23.04108           1
	    4     0.10343      34.99686           1
	    5     0.10019      38.89708           1
	    6     0.10000      39.14488           1
	------------------------------------------------
	Norm of target step-size    0.10000
	Projected energy change by RFO approximation:        -0.0051277188

	Back-transformation to cartesian coordinates...
	Could not converge backtransformation.
	Using first guess instead.

	--- Internal Coordinate Step in ANG or DEG, aJ/ANG or AJ/DEG ---
	 ---------------------------------------------------------------------------
	   Coordinate                Previous        Force       Change         New 
	   ----------                --------       ------       ------       ------
	    1 R(1,3)          =      1.394038    -0.059662    -0.005788     1.388250
	    2 R(1,9)          =      1.394891    -0.011963    -0.000954     1.393937
	    3 R(1,14)         =      1.087431    -0.052171    -0.006169     1.081262
	    4 R(2,4)          =      1.394521    -0.063219    -0.006252     1.388269
	    5 R(2,9)          =      1.394821     0.000875     0.000353     1.395174
	    6 R(2,15)         =      1.087831    -0.056449    -0.006667     1.081164
	    7 R(3,11)         =      1.394821    -0.036108    -0.003626     1.391195
	    8 R(3,16)         =      1.086899    -0.032263    -0.003814     1.083085
	    9 R(4,11)         =      1.395407    -0.088846    -0.008881     1.386526
	   10 R(4,17)         =      1.086527    -0.043005    -0.005056     1.081471
	   11 R(5,7)          =      1.385234     0.001606     0.000138     1.385372
	   12 R(5,10)         =      1.390951     0.004201     0.001038     1.391989
	   13 R(5,18)         =      1.085876    -0.047933    -0.005612     1.080264
	   14 R(6,8)          =      1.385230     0.001788     0.000165     1.385395
	   15 R(6,10)         =      1.390133     0.009872     0.001478     1.391611
	   16 R(6,19)         =      1.085087    -0.043616    -0.005110     1.079977
	   17 R(7,12)         =      1.351616    -0.122969    -0.011034     1.340582
	   18 R(7,20)         =      1.085467    -0.024509    -0.002876     1.082590
	   19 R(8,12)         =      1.352196    -0.126413    -0.011341     1.340856
	   20 R(8,21)         =      1.084438    -0.019063    -0.002222     1.082215
	   21 R(9,10)         =      1.446444     0.153867     0.017139     1.463584
	   22 R(11,13)        =      1.360865    -0.006702    -0.000197     1.360668
	   23 R(13,22)        =      0.970609    -0.079309    -0.007010     0.963599
	   24 B(1,3,11)       =    120.009056     0.000119     0.190522   120.199579
	   25 B(1,3,16)       =    119.662516     0.000033     0.105422   119.767938
	   26 B(1,9,2)        =    119.959722    -0.000808    -1.359510   118.600212
	   27 B(1,9,10)       =    120.043881     0.000380     0.636846   120.680728
	   28 B(2,4,11)       =    119.960108     0.000002    -0.053689   119.906420
	   29 B(2,4,17)       =    119.723926     0.000211     0.484864   120.208790
	   30 B(2,9,10)       =    119.996376     0.000428     0.722668   120.719044
	   31 B(3,1,9)        =    120.031219     0.000297     0.564756   120.595975
	   32 B(3,1,14)       =    119.144799    -0.000081    -0.138981   119.005818
	   33 B(3,11,4)       =    119.994870    -0.000120    -0.267634   119.727236
	   34 B(3,11,13)      =    120.008801     0.000942     1.644706   121.653507
	   35 B(4,2,9)        =    120.045019     0.000509     0.925522   120.970541
	   36 B(4,2,15)       =    119.099297    -0.000224    -0.399149   118.700148
	   37 B(4,11,13)      =    119.996326    -0.000822    -1.377073   118.619254
	   38 B(5,7,12)       =    124.032419     0.000044     0.002928   124.035347
	   39 B(5,7,20)       =    120.773750    -0.000074    -0.114787   120.658963
	   40 B(5,10,6)       =    119.713913    -0.001215    -1.974444   117.739469
	   41 B(5,10,9)       =    120.132663     0.000614     0.999356   121.132019
	   42 B(6,8,12)       =    124.026428     0.000043     0.005257   124.031685
	   43 B(6,8,21)       =    120.816676    -0.000078    -0.125501   120.691175
	   44 B(6,10,9)       =    120.153413     0.000602     0.975091   121.128503
	   45 B(7,5,10)       =    117.917911     0.000536     1.033568   118.951479
	   46 B(7,5,18)       =    120.234396    -0.000211    -0.398657   119.835739
	   47 B(7,12,8)       =    116.380442     0.000060    -0.094775   116.285667
	   48 B(8,6,10)       =    117.928826     0.000532     1.027483   118.956309
	   49 B(8,6,19)       =    120.266760    -0.000217    -0.409342   119.857418
	   50 B(9,1,14)       =    120.823969    -0.000216    -0.426240   120.397729
	   51 B(9,2,15)       =    120.855683    -0.000286    -0.526946   120.328736
	   52 B(10,5,18)      =    121.847689    -0.000325    -0.635317   121.212372
	   53 B(10,6,19)      =    121.804412    -0.000316    -0.618558   121.185855
	   54 B(11,3,16)      =    120.328425    -0.000153    -0.295983   120.032442
	   55 B(11,4,17)      =    120.315955    -0.000213    -0.431175   119.884780
	   56 B(11,13,22)     =    110.240679    -0.000421    -0.903494   109.337185
	   57 B(12,7,20)      =    115.193804     0.000030     0.111850   115.305654
	   58 B(12,8,21)      =    115.156734     0.000035     0.120407   115.277141
	   59 D(1,3,11,4)     =     -0.018609     0.000002     0.030677     0.012068
	   60 D(1,3,11,13)    =    179.964785     0.000003     0.028630   179.993415
	   61 D(1,9,2,4)      =      0.018608     0.000001     0.012523     0.031131
	   62 D(1,9,2,15)     =   -179.994534    -0.000016    -0.253681  -180.248215
	   63 D(1,9,10,5)     =    -30.035797    -0.000028    -0.454142   -30.489939
	   64 D(1,9,10,6)     =    149.925506    -0.000027    -0.450752   149.474754
	   65 D(2,4,11,3)     =      0.017261     0.000002     0.025974     0.043235
	   66 D(2,4,11,13)    =   -179.966135     0.000001     0.027458  -179.938677
	   67 D(2,9,1,3)      =     -0.019945     0.000003     0.044686     0.024741
	   68 D(2,9,1,14)     =   -179.978731    -0.000016    -0.250513  -180.229244
	   69 D(2,9,10,5)     =    150.016707    -0.000028    -0.459568   149.557139
	   70 D(2,9,10,6)     =    -30.021991    -0.000028    -0.456178   -30.478168
	   71 D(3,1,9,10)     =   -179.967461     0.000002     0.038299  -179.929162
	   72 D(3,11,4,17)    =    179.978848     0.000007     0.100816   180.079664
	   73 D(3,11,13,22)   =      0.032328    -0.000003    -0.014154     0.018174
	   74 D(4,2,9,10)     =    179.966149     0.000001     0.018867   179.985016
	   75 D(4,11,3,16)    =    180.000000     0.000005     0.086489   180.086489
	   76 D(4,11,13,22)   =   -179.984278    -0.000002    -0.015722  -180.000000
	   77 D(5,7,12,8)     =     -0.076323     0.000001     0.015150    -0.061173
	   78 D(5,10,6,8)     =      0.021838    -0.000000    -0.003178     0.018660
	   79 D(5,10,6,19)    =   -179.965395    -0.000016    -0.251388  -180.216784
	   80 D(6,8,12,7)     =      0.095732    -0.000001    -0.013914     0.081818
	   81 D(6,10,5,7)     =     -0.004437     0.000000     0.004437     0.000000
	   82 D(6,10,5,18)    =   -179.983151    -0.000016    -0.249957  -180.233109
	   83 D(7,5,10,9)     =    179.957036     0.000001     0.008849   179.965885
	   84 D(7,12,8,21)    =    179.949799     0.000008     0.129205   180.079004
	   85 D(8,6,10,9)     =   -179.939628    -0.000000    -0.007566  -179.947194
	   86 D(8,12,7,20)    =    179.863574     0.000009     0.144326   180.007900
	   87 D(9,1,3,11)     =      0.019955    -0.000004    -0.066374    -0.046419
	   88 D(9,1,3,16)     =   -179.998735    -0.000008    -0.121908  -180.120643
	   89 D(9,2,4,11)     =     -0.017270    -0.000003    -0.048093    -0.065363
	   90 D(9,2,4,17)     =   -179.979086    -0.000008    -0.122825  -180.101911
	   91 D(9,10,5,18)    =     -0.021678    -0.000016    -0.245578    -0.267256
	   92 D(9,10,6,19)    =      0.073140    -0.000016    -0.255777    -0.182637
	   93 D(10,5,7,12)    =      0.033223    -0.000001    -0.010883     0.022340
	   94 D(10,5,7,20)    =   -179.903478    -0.000009    -0.146773  -180.050252
	   95 D(10,6,8,12)    =     -0.070741     0.000000     0.007918    -0.062822
	   96 D(10,6,8,21)    =   -179.916933    -0.000009    -0.142930  -180.059863
	   97 D(10,9,1,14)    =      0.073752    -0.000016    -0.256900    -0.183148
	   98 D(10,9,2,15)    =     -0.046992    -0.000016    -0.247337    -0.294329
	   99 D(11,3,1,14)    =    179.979432     0.000014     0.224639   180.204071
	  100 D(11,4,2,15)    =    179.995641     0.000014     0.213881   180.209523
	  101 D(12,7,5,18)    =   -179.987706     0.000015     0.239908  -179.747798
	  102 D(12,8,6,19)    =    179.916697     0.000016     0.252728   180.169425
	  103 D(13,11,3,16)   =     -0.016400     0.000006     0.084236     0.067837
	  104 D(13,11,4,17)   =     -0.004548     0.000006     0.102300     0.097752
	  105 D(14,1,3,16)    =     -0.039257     0.000011     0.169104     0.129847
	  106 D(15,2,4,17)    =      0.033826     0.000009     0.139149     0.172975
	  107 D(18,5,7,20)    =      0.075593     0.000007     0.104017     0.179611
	  108 D(19,6,8,21)    =      0.070505     0.000006     0.101879     0.172384
	 ---------------------------------------------------------------------------
	Successfully symmetrized geometry.
	 Forces used to impose fixed constraints are not included.
	  Forces zeroed: 73 

  ==> Convergence Check <==

  Measures of convergence in internal coordinates in au.
  Criteria marked as inactive (o), active & met (*), and active & unmet ( ).
  --------------------------------------------------------------------------------------------- ~
   Step     Total Energy     Delta E     MAX Force     RMS Force      MAX Disp      RMS Disp    ~
  --------------------------------------------------------------------------------------------- ~
    Convergence Criteria    1.00e-06 *    3.00e-04 *             o    1.20e-03 *             o  ~
  --------------------------------------------------------------------------------------------- ~
      1    -553.72185024   -5.54e+02      1.87e-02      4.81e-03 o    3.45e-02      9.61e-03 o  ~
  ---------------------------------------------------------------------------------------------

	Writing optimization data to binary file.
	Structure for next step:
	Cartesian Geometry (in Angstrom)
	    C    -1.2628366073   0.7188278637  -0.5700775627
	    C    -0.2874158372   0.1026616822   1.5323923823
	    C    -2.3365427544   1.2905467906   0.0988995304
	    C    -1.3600460015   0.6723281439   2.2048770361
	    C     0.7564010824  -1.0445473709  -1.8296524813
	    C     2.1773788366  -0.5154707009   0.0083831766
	    C     1.8602418710  -1.6015822821  -2.4545549249
	    C     3.2185670749  -1.0955276064  -0.6978607336
	    C    -0.2240268712   0.1175685422   0.1387391516
	    C     0.9095811373  -0.4843713363  -0.5645944542
	    C    -2.3871493574   1.2681680465   1.4889940906
	    N     3.0873899933  -1.6398487078  -1.9162206746
	    O    -3.4250320607   1.8195463842   2.1747046451
	    H    -1.2415581085   0.7501037728  -1.6506773698
	    H     0.5010332640  -0.3597316485   2.1098493060
	    H    -3.1354837432   1.7559082126  -0.4651970766
	    H    -1.3974191616   0.6523477996   3.2855173158
	    H    -0.2035099549  -1.0542988761  -2.3250772560
	    H     2.3598150173  -0.0939340014   0.9858158733
	    H     1.7723276539  -2.0454175324  -3.4380604475
	    H     4.2158739319  -1.1341143974  -0.2794351643
	    H    -4.0572623925   2.1929181602   1.5506847388
			--------------------------
			 OPTKING Finished Execution 
			--------------------------

    Structure for next step:
    Molecular point group: c1
    Full point group: C1

    Geometry (in Angstrom), charge = 0, multiplicity = 1:

    C           -1.262978191840     0.719103992308    -0.570015743331
    C           -0.287557421730     0.102937810786     1.532454201664
    C           -2.336684338893     1.290822919207     0.098961349757
    C           -1.360187585990     0.672604272435     2.204938855472
    C            0.756259497873    -1.044271242269    -1.829590661944
    C            2.177237252042    -0.515194572294     0.008444995999
    C            1.860100286450    -1.601306153514    -2.454493105513
    C            3.218425490406    -1.095251477804    -0.697798914220
    C           -0.224168455672     0.117844670747     0.138800970943
    C            0.909439552821    -0.484095207693    -0.564532634887
    C           -2.387290941885     1.268444175088     1.489055910005
    N            3.087248408734    -1.639572579228    -1.916158855254
    O           -3.425173645203     1.819822512778     2.174766464457
    H           -1.241699693001     0.750379901404    -1.650615550443
    H            0.500891679456    -0.359455519900     2.109911125343
    H           -3.135625327765     1.756184341221    -0.465135257210
    H           -1.397560746150     0.652623928205     3.285579135155
    H           -0.203651539420    -1.054022747561    -2.325015436644
    H            2.359673432748    -0.093657872845     0.985877692612
    H            1.772186069346    -2.045141403848    -3.437998628120
    H            4.215732347334    -1.133838268788    -0.279373344911
    H           -4.057403976983     2.193194288773     1.550746558189

gradient() will perform analytic gradient computation.

*** tstart() called on gpu-3-8.local
*** at Sun Nov 12 13:47:57 2017

    SCF Algorithm Type (re)set to DF.

*** tstart() called on gpu-3-8.local
*** at Sun Nov 12 13:47:57 2017

   => Loading Basis Set <=

    Name: AUG-CC-PVTZ
    Role: ORBITAL
    Keyword: BASIS
    atoms 1-11  entry C          line   221 file /cbio/jclab/home/chayas/anaconda/envs/py35/share/psi4/basis/aug-cc-pvtz.gbs 
    atoms 12    entry N          line   267 file /cbio/jclab/home/chayas/anaconda/envs/py35/share/psi4/basis/aug-cc-pvtz.gbs 
    atoms 13    entry O          line   313 file /cbio/jclab/home/chayas/anaconda/envs/py35/share/psi4/basis/aug-cc-pvtz.gbs 
    atoms 14-22 entry H          line    34 file /cbio/jclab/home/chayas/anaconda/envs/py35/share/psi4/basis/aug-cc-pvtz.gbs 


         ---------------------------------------------------------
                                   SCF
            by Justin Turney, Rob Parrish, and Andy Simmonett
                              RHF Reference
                        8 Threads,   4768 MiB Core
         ---------------------------------------------------------

  ==> Geometry <==

    Molecular point group: c1
    Full point group: C1

    Geometry (in Angstrom), charge = 0, multiplicity = 1:

       Center              X                  Y                   Z               Mass       
    ------------   -----------------  -----------------  -----------------  -----------------
           C         -1.262978191840     0.719103992308    -0.570015743331    12.000000000000
           C         -0.287557421730     0.102937810786     1.532454201664    12.000000000000
           C         -2.336684338893     1.290822919207     0.098961349757    12.000000000000
           C         -1.360187585990     0.672604272435     2.204938855472    12.000000000000
           C          0.756259497873    -1.044271242269    -1.829590661944    12.000000000000
           C          2.177237252042    -0.515194572294     0.008444995999    12.000000000000
           C          1.860100286450    -1.601306153514    -2.454493105513    12.000000000000
           C          3.218425490406    -1.095251477804    -0.697798914220    12.000000000000
           C         -0.224168455672     0.117844670747     0.138800970943    12.000000000000
           C          0.909439552821    -0.484095207693    -0.564532634887    12.000000000000
           C         -2.387290941885     1.268444175088     1.489055910005    12.000000000000
           N          3.087248408734    -1.639572579228    -1.916158855254    14.003074004780
           O         -3.425173645203     1.819822512778     2.174766464457    15.994914619560
           H         -1.241699693001     0.750379901404    -1.650615550443     1.007825032070
           H          0.500891679456    -0.359455519900     2.109911125343     1.007825032070
           H         -3.135625327765     1.756184341221    -0.465135257210     1.007825032070
           H         -1.397560746150     0.652623928205     3.285579135155     1.007825032070
           H         -0.203651539420    -1.054022747561    -2.325015436644     1.007825032070
           H          2.359673432748    -0.093657872845     0.985877692612     1.007825032070
           H          1.772186069346    -2.045141403848    -3.437998628120     1.007825032070
           H          4.215732347334    -1.133838268788    -0.279373344911     1.007825032070
           H         -4.057403976983     2.193194288773     1.550746558189     1.007825032070

  Running in c1 symmetry.

  Rotational constants: A =      0.09838  B =      0.01335  C =      0.01195 [cm^-1]
  Rotational constants: A =   2949.40637  B =    400.28867  C =    358.38539 [MHz]
  Nuclear repulsion =  697.803165911135920

  Charge       = 0
  Multiplicity = 1
  Electrons    = 90
  Nalpha       = 45
  Nbeta        = 45

  ==> Algorithm <==

  SCF Algorithm Type is DF.
  DIIS enabled.
  MOM disabled.
  Fractional occupation disabled.
  Guess Type is READ.
  Energy threshold   = 1.00e-10
  Density threshold  = 1.00e-10
  Integral threshold = 0.00e+00

  ==> Primary Basis <==

  Basis Set: AUG-CC-PVTZ
    Blend: AUG-CC-PVTZ
    Number of shells: 263
    Number of basis function: 805
    Number of Cartesian functions: 940
    Spherical Harmonics?: true
    Max angular momentum: 3

   => Loading Basis Set <=

    Name: (AUG-CC-PVTZ AUX)
    Role: JKFIT
    Keyword: DF_BASIS_SCF
    atoms 1-11  entry C          line   161 file /cbio/jclab/home/chayas/anaconda/envs/py35/share/psi4/basis/aug-cc-pvtz-jkfit.gbs 
    atoms 12    entry N          line   223 file /cbio/jclab/home/chayas/anaconda/envs/py35/share/psi4/basis/aug-cc-pvtz-jkfit.gbs 
    atoms 13    entry O          line   285 file /cbio/jclab/home/chayas/anaconda/envs/py35/share/psi4/basis/aug-cc-pvtz-jkfit.gbs 
    atoms 14-22 entry H          line    69 file /cbio/jclab/home/chayas/anaconda/envs/py35/share/psi4/basis/aug-cc-pvtz-jkfit.gbs 

  Reading orbitals from file 180, no projection.

  ==> Pre-Iterations <==

   -------------------------------------------------------
    Irrep   Nso     Nmo     Nalpha   Nbeta   Ndocc  Nsocc
   -------------------------------------------------------
     A        805     805       0       0       0       0
   -------------------------------------------------------
    Total     805     805      45      45      45       0
   -------------------------------------------------------

  ==> Integral Setup <==

  ==> DFJK: Density-Fitted J/K Matrices <==

    J tasked:                  Yes
    K tasked:                  Yes
    wK tasked:                  No
    OpenMP threads:              8
    Integrals threads:           8
    Memory (MB):              3576
    Algorithm:                Disk
    Integral Cache:           NONE
    Schwarz Cutoff:          1E-12
    Fitting Condition:       1E-12

   => Auxiliary Basis Set <=

  Basis Set: (AUG-CC-PVTZ AUX)
    Blend: AUG-CC-PVTZ-JKFIT
    Number of shells: 516
    Number of basis function: 1766
    Number of Cartesian functions: 2198
    Spherical Harmonics?: true
    Max angular momentum: 4

  Minimum eigenvalue in the overlap matrix is 5.4136741097E-07.
  Using Symmetric Orthogonalization.

  SCF Guess: Orbitals guess was supplied from a previous computation.

  ==> Iterations <==

                           Total Energy        Delta E     RMS |[F,P]|

   @DF-RHF iter   0:  -551.43653957675554   -5.51437e+02   5.13772e-04 
   @DF-RHF iter   1:  -551.28974645267260    1.46793e-01   1.59311e-04 
   @DF-RHF iter   2:  -551.29066834602781   -9.21893e-04   1.18985e-04 DIIS
   @DF-RHF iter   3:  -551.29151737486313   -8.49029e-04   1.13686e-05 DIIS
   @DF-RHF iter   4:  -551.29153175964439   -1.43848e-05   4.04673e-06 DIIS
   @DF-RHF iter   5:  -551.29153413504241   -2.37540e-06   1.63870e-06 DIIS
   @DF-RHF iter   6:  -551.29153444499252   -3.09950e-07   9.19902e-07 DIIS
   @DF-RHF iter   7:  -551.29153455505059   -1.10058e-07   3.03870e-07 DIIS
   @DF-RHF iter   8:  -551.29153458976452   -3.47139e-08   1.68356e-07 DIIS
   @DF-RHF iter   9:  -551.29153459576094   -5.99641e-09   6.17307e-08 DIIS
   @DF-RHF iter  10:  -551.29153459639576   -6.34827e-10   1.36340e-08 DIIS
   @DF-RHF iter  11:  -551.29153459650320   -1.07434e-10   6.11883e-09 DIIS
   @DF-RHF iter  12:  -551.29153459650763   -4.43379e-12   2.89486e-09 DIIS
   @DF-RHF iter  13:  -551.29153459650047    7.16227e-12   1.67574e-09 DIIS
   @DF-RHF iter  14:  -551.29153459649183    8.64020e-12   7.39948e-10 DIIS
   @DF-RHF iter  15:  -551.29153459649967   -7.84439e-12   2.93497e-10 DIIS
   @DF-RHF iter  16:  -551.29153459648978    9.89075e-12   6.88503e-11 DIIS

  ==> Post-Iterations <==

    Orbital Energies (a.u.)
    -----------------------

    Doubly Occupied:                                                      

       1A    -20.602038     2A    -15.559789     3A    -11.314504  
       4A    -11.271795     5A    -11.271706     6A    -11.265316  
       7A    -11.254164     8A    -11.252340     9A    -11.246537  
      10A    -11.244743    11A    -11.239155    12A    -11.235326  
      13A    -11.235081    14A     -1.419317    15A     -1.254091  
      16A     -1.174882    17A     -1.104793    18A     -1.039545  
      19A     -1.029607    20A     -1.012310    21A     -0.882053  
      22A     -0.873145    23A     -0.842299    24A     -0.812353  
      25A     -0.750287    26A     -0.725725    27A     -0.685415  
      28A     -0.663994    29A     -0.653101    30A     -0.634775  
      31A     -0.614560    32A     -0.607704    33A     -0.603950  
      34A     -0.592244    35A     -0.579031    36A     -0.544980  
      37A     -0.531835    38A     -0.523995    39A     -0.502744  
      40A     -0.495535    41A     -0.417218    42A     -0.397062  
      43A     -0.356537    44A     -0.347904    45A     -0.308340  

    Virtual:                                                              

      46A      0.021432    47A      0.029807    48A      0.032125  
      49A      0.039677    50A      0.042693    51A      0.045475  
      52A      0.055147    53A      0.057100    54A      0.063403  
      55A      0.078165    56A      0.078953    57A      0.084207  
      58A      0.088577    59A      0.093466    60A      0.097050  
      61A      0.102318    62A      0.103929    63A      0.108504  
      64A      0.109737    65A      0.111780    66A      0.114913  
      67A      0.119278    68A      0.121954    69A      0.127179  
      70A      0.129946    71A      0.132575    72A      0.134556  
      73A      0.137074    74A      0.143738    75A      0.146341  
      76A      0.149034    77A      0.149835    78A      0.153931  
      79A      0.160116    80A      0.164172    81A      0.168061  
      82A      0.173939    83A      0.176459    84A      0.182169  
      85A      0.184490    86A      0.187006    87A      0.201215  
      88A      0.204375    89A      0.214619    90A      0.216488  
      91A      0.221847    92A      0.222574    93A      0.226266  
      94A      0.236656    95A      0.240134    96A      0.242567  
      97A      0.246197    98A      0.250572    99A      0.252787  
     100A      0.256090   101A      0.257461   102A      0.263550  
     103A      0.265916   104A      0.272917   105A      0.275213  
     106A      0.277355   107A      0.284936   108A      0.289069  
     109A      0.292509   110A      0.299003   111A      0.300734  
     112A      0.302744   113A      0.306907   114A      0.312460  
     115A      0.316363   116A      0.318581   117A      0.325998  
     118A      0.327506   119A      0.328382   120A      0.333484  
     121A      0.339821   122A      0.344261   123A      0.356046  
     124A      0.357464   125A      0.361886   126A      0.365818  
     127A      0.371488   128A      0.374671   129A      0.386498  
     130A      0.391193   131A      0.396641   132A      0.398357  
     133A      0.403301   134A      0.407665   135A      0.413655  
     136A      0.419265   137A      0.426099   138A      0.427294  
     139A      0.432893   140A      0.434947   141A      0.438791  
     142A      0.439755   143A      0.444872   144A      0.447884  
     145A      0.448679   146A      0.452622   147A      0.457146  
     148A      0.462330   149A      0.466528   150A      0.467566  
     151A      0.471190   152A      0.476061   153A      0.484376  
     154A      0.486880   155A      0.490715   156A      0.491823  
     157A      0.500901   158A      0.502016   159A      0.504386  
     160A      0.509072   161A      0.510160   162A      0.511962  
     163A      0.515578   164A      0.517225   165A      0.520948  
     166A      0.526436   167A      0.529574   168A      0.532012  
     169A      0.534697   170A      0.541484   171A      0.545156  
     172A      0.548749   173A      0.549766   174A      0.553203  
     175A      0.555792   176A      0.564249   177A      0.566508  
     178A      0.578315   179A      0.580616   180A      0.585741  
     181A      0.592940   182A      0.598306   183A      0.605618  
     184A      0.612066   185A      0.613255   186A      0.622168  
     187A      0.627847   188A      0.636953   189A      0.638973  
     190A      0.645794   191A      0.656430   192A      0.659182  
     193A      0.667745   194A      0.680685   195A      0.689469  
     196A      0.691297   197A      0.696350   198A      0.703195  
     199A      0.707151   200A      0.708579   201A      0.717292  
     202A      0.720258   203A      0.729754   204A      0.731237  
     205A      0.732931   206A      0.738968   207A      0.740679  
     208A      0.748775   209A      0.755155   210A      0.763247  
     211A      0.767054   212A      0.772708   213A      0.778003  
     214A      0.797849   215A      0.801890   216A      0.803410  
     217A      0.809332   218A      0.812188   219A      0.815366  
     220A      0.824074   221A      0.830078   222A      0.834588  
     223A      0.838168   224A      0.838547   225A      0.848992  
     226A      0.855172   227A      0.857126   228A      0.866357  
     229A      0.870826   230A      0.877016   231A      0.879009  
     232A      0.882566   233A      0.884970   234A      0.888392  
     235A      0.893181   236A      0.897603   237A      0.906711  
     238A      0.910012   239A      0.912140   240A      0.918403  
     241A      0.925921   242A      0.930734   243A      0.936728  
     244A      0.940855   245A      0.947202   246A      0.951999  
     247A      0.956954   248A      0.962926   249A      0.964538  
     250A      0.970414   251A      0.972333   252A      0.979191  
     253A      0.981685   254A      0.983907   255A      0.988806  
     256A      0.996880   257A      0.998291   258A      1.004697  
     259A      1.012509   260A      1.015154   261A      1.018569  
     262A      1.021026   263A      1.026021   264A      1.030910  
     265A      1.038846   266A      1.039653   267A      1.041315  
     268A      1.047532   269A      1.048491   270A      1.055117  
     271A      1.056946   272A      1.060723   273A      1.067084  
     274A      1.076941   275A      1.077461   276A      1.084082  
     277A      1.088127   278A      1.090976   279A      1.098567  
     280A      1.099843   281A      1.103776   282A      1.106343  
     283A      1.113450   284A      1.115236   285A      1.121347  
     286A      1.122677   287A      1.125216   288A      1.135148  
     289A      1.148736   290A      1.154552   291A      1.161229  
     292A      1.161917   293A      1.165384   294A      1.169970  
     295A      1.175626   296A      1.178584   297A      1.185240  
     298A      1.188358   299A      1.193636   300A      1.201207  
     301A      1.206325   302A      1.208980   303A      1.214791  
     304A      1.217775   305A      1.218157   306A      1.224599  
     307A      1.232678   308A      1.233885   309A      1.246337  
     310A      1.252838   311A      1.256686   312A      1.268693  
     313A      1.274597   314A      1.277011   315A      1.285481  
     316A      1.291223   317A      1.296946   318A      1.299130  
     319A      1.303891   320A      1.311502   321A      1.318196  
     322A      1.325828   323A      1.335100   324A      1.338370  
     325A      1.345726   326A      1.352974   327A      1.357833  
     328A      1.368960   329A      1.377976   330A      1.390502  
     331A      1.391135   332A      1.396173   333A      1.413898  
     334A      1.424196   335A      1.432542   336A      1.439689  
     337A      1.447850   338A      1.451406   339A      1.452850  
     340A      1.460418   341A      1.464449   342A      1.476524  
     343A      1.492555   344A      1.497695   345A      1.501267  
[...]
	 R(9,10)          =         2.761229	       1.461180
	 R(11,13)         =         2.573296	       1.361730
	 R(13,22)         =         1.817862	       0.961971
	 B(1,3,11)        =         2.094676	     120.016071
	 B(1,3,16)        =         2.094207	     119.989240
	 B(1,9,2)         =         2.061379	     118.108332
	 B(1,9,10)        =         2.110257	     120.908826
	 B(2,4,11)        =         2.092243	     119.876667
	 B(2,4,17)        =         2.114629	     121.159326
	 B(2,9,10)        =         2.111549	     120.982841
	 B(3,1,9)         =         2.112552	     121.040328
	 B(3,1,14)        =         2.081263	     119.247599
	 B(3,11,4)        =         2.089287	     119.707334
	 B(3,11,13)       =         2.146632	     122.992942
	 B(4,2,9)         =         2.116225	     121.250777
	 B(4,2,15)        =         2.079960	     119.172947
	 B(4,11,13)       =         2.047266	     117.299724
	 B(5,7,12)        =         2.159324	     123.720154
	 B(5,7,20)        =         2.095140	     120.042669
	 B(5,10,6)        =         2.035079	     116.601453
	 B(5,10,9)        =         2.124366	     121.717187
	 B(6,8,12)        =         2.159464	     123.728195
	 B(6,8,21)        =         2.095070	     120.038644
	 B(6,10,9)        =         2.123740	     121.681360
	 B(7,5,10)        =         2.089021	     119.692061
	 B(7,5,18)        =         2.090953	     119.802797
	 B(7,12,8)        =         2.034652	     116.576971
	 B(8,6,10)        =         2.088826	     119.680930
	 B(8,6,19)        =         2.091149	     119.814028
	 B(9,1,14)        =         2.088883	     119.684166
	 B(9,2,15)        =         2.086608	     119.553809
	 B(10,5,18)       =         2.102877	     120.485986
	 B(10,6,19)       =         2.102888	     120.486608
	 B(11,3,16)       =         2.094269	     119.992799
	 B(11,4,17)       =         2.076265	     118.961216
	 B(11,13,22)      =         1.902532	     109.007053
	 B(12,7,20)       =         2.028687	     116.235230
	 B(12,8,21)       =         2.028619	     116.231311
	 D(1,3,11,4)      =         0.002221	       0.127251
	 D(1,3,11,13)     =        -3.139447	    -179.877075
	 D(1,9,2,4)       =        -0.000108	      -0.006202
	 D(1,9,2,15)      =         3.111140	     178.255207
	 D(1,9,10,5)      =        -0.619044	     -35.468625
	 D(1,9,10,6)      =         2.522579	     144.533158
	 D(2,4,11,3)      =         0.001051	       0.060228
	 D(2,4,11,13)     =        -3.140470	    -179.935689
	 D(2,9,1,3)       =         0.003430	       0.196507
	 D(2,9,1,14)      =         3.111232	     178.260449
	 D(2,9,10,5)      =         2.522759	     144.543454
	 D(2,9,10,6)      =        -0.618802	     -35.454763
	 D(3,1,9,10)      =        -3.137958	    -179.791753
	 D(3,11,4,17)     =        -3.130059	    -179.339186
	 D(3,11,13,22)    =         0.000065	       0.003705
	 D(4,2,9,10)      =         3.141279	     179.982048
	 D(4,11,3,16)     =        -3.130643	    -179.372627
	 D(4,11,13,22)    =         3.141593	     180.000000
	 D(5,7,12,8)      =        -0.001143	      -0.065472
	 D(5,10,6,8)      =        -0.000882	      -0.050543
	 D(5,10,6,19)     =         3.113403	     178.384875
	 D(6,8,12,7)      =        -0.001454	      -0.083309
	 D(6,10,5,7)      =        -0.001502	      -0.086046
	 D(6,10,5,18)     =         3.112251	     178.318864
	 D(7,5,10,9)      =         3.140120	     179.915651
	 D(7,12,8,21)     =        -3.134390	    -179.587298
	 D(8,6,10,9)      =         3.140681	     179.947760
	 D(8,12,7,20)     =        -3.133854	    -179.556628
	 D(9,1,3,11)      =        -0.004520	      -0.258966
	 D(9,1,3,16)      =         3.128344	     179.240930
	 D(9,2,4,11)      =        -0.002115	      -0.121170
	 D(9,2,4,17)      =         3.128760	     179.264757
	 D(9,10,5,18)     =        -0.029312	      -1.679439
	 D(9,10,6,19)     =        -0.028219	      -1.616821
	 D(10,5,7,12)     =         0.002655	       0.152097
	 D(10,5,7,20)     =         3.135045	     179.624834
	 D(10,6,8,12)     =         0.002492	       0.142810
	 D(10,6,8,21)     =         3.135115	     179.628847
	 D(10,9,1,14)     =        -0.030156	      -1.727811
	 D(10,9,2,15)     =        -0.030657	      -1.756542
	 D(11,3,1,14)     =        -3.112467	    -178.331228
	 D(11,4,2,15)     =        -3.113477	    -178.389071
	 D(12,7,5,18)     =        -3.111291	    -178.263823
	 D(12,8,6,19)     =        -3.111979	    -178.303243
	 D(13,11,3,16)    =         0.010874	       0.623048
	 D(13,11,4,17)    =         0.011605	       0.664897
	 D(14,1,3,16)     =         0.020397	       1.168668
	 D(15,2,4,17)     =         0.017398	       0.996856
	 D(18,5,7,20)     =         0.021100	       1.208914
	 D(19,6,8,21)     =         0.020644	       1.182794

	Current energy   :      -553.7257818990

	Energy change for the previous step:
		Projected    :        -0.0000005606
		Actual       :        -0.0000002608

	Performing BFGS update.
	Previous computed or guess Hessian on step 1.
	Steps to be used in Hessian update: 6 5
	Adding user-defined constraint: Fragment 1; Coordinate 73:
		Value =     0.000065; Fixed value    =     0.000020
		Force =    -0.000029; Force constant =     0.650000
	Removing off-diagonal coupling between coordinate 73 and others.
	Taking RFO optimization step.
	Going to follow RFO solution 1.
	Using RFO vector 1.
	Norm of target step-size    0.00168
	Projected energy change by RFO approximation:        -0.0000000377

	Back-transformation to cartesian coordinates...
	Successfully converged to displaced geometry.

	--- Internal Coordinate Step in ANG or DEG, aJ/ANG or AJ/DEG ---
	 ---------------------------------------------------------------------------
	   Coordinate                Previous        Force       Change         New 
	   ----------                --------       ------       ------       ------
	    1 R(1,3)          =      1.385534    -0.000110    -0.000018     1.385517
	    2 R(1,9)          =      1.392990    -0.000078    -0.000005     1.392985
	    3 R(1,14)         =      1.079849    -0.000165    -0.000021     1.079828
	    4 R(2,4)          =      1.383159     0.000040     0.000004     1.383163
	    5 R(2,9)          =      1.395095    -0.000166    -0.000022     1.395073
	    6 R(2,15)         =      1.079868    -0.000163    -0.000020     1.079848
	    7 R(3,11)         =      1.388364     0.000061     0.000008     1.388372
	    8 R(3,16)         =      1.081299    -0.000105    -0.000014     1.081286
	    9 R(4,11)         =      1.388020    -0.000126    -0.000010     1.388009
	   10 R(4,17)         =      1.078869    -0.000127    -0.000019     1.078850
	   11 R(5,7)          =      1.385477     0.000080     0.000009     1.385486
	   12 R(5,10)         =      1.392140    -0.000113    -0.000012     1.392128
	   13 R(5,18)         =      1.079598    -0.000138    -0.000016     1.079582
	   14 R(6,8)          =      1.385528     0.000068     0.000008     1.385536
	   15 R(6,10)         =      1.392165    -0.000091    -0.000011     1.392154
	   16 R(6,19)         =      1.079569    -0.000105    -0.000012     1.079557
	   17 R(7,12)         =      1.335129    -0.000251    -0.000030     1.335099
	   18 R(7,20)         =      1.081173    -0.000116    -0.000018     1.081155
	   19 R(8,12)         =      1.335142    -0.000257    -0.000031     1.335111
	   20 R(8,21)         =      1.081179    -0.000105    -0.000017     1.081163
	   21 R(9,10)         =      1.461180     0.000200     0.000027     1.461207
	   22 R(11,13)        =      1.361730     0.000044     0.000007     1.361737
	   23 R(13,22)        =      0.961971    -0.000070    -0.000005     0.961966
	   24 B(1,3,11)       =    120.016071     0.000000     0.000401   120.016472
	   25 B(1,3,16)       =    119.989240     0.000000     0.001623   119.990862
	   26 B(1,9,2)        =    118.108332    -0.000001    -0.003280   118.105052
	   27 B(1,9,10)       =    120.908826     0.000001     0.002511   120.911336
	   28 B(2,4,11)       =    119.876667    -0.000001    -0.002159   119.874508
	   29 B(2,4,17)       =    121.159326     0.000000    -0.001077   121.158248
	   30 B(2,9,10)       =    120.982841     0.000000     0.000768   120.983609
	   31 B(3,1,9)        =    121.040328     0.000000     0.001619   121.041947
	   32 B(3,1,14)       =    119.247599     0.000000    -0.001224   119.246375
	   33 B(3,11,4)       =    119.707334    -0.000000    -0.000529   119.706804
	   34 B(3,11,13)      =    122.992942     0.000001     0.003669   122.996611
	   35 B(4,2,9)        =    121.250777     0.000001     0.003980   121.254757
	   36 B(4,2,15)       =    119.172947    -0.000001    -0.003796   119.169151
	   37 B(4,11,13)      =    117.299724    -0.000001    -0.003140   117.296584
	   38 B(5,7,12)       =    123.720154     0.000000     0.000683   123.720837
	   39 B(5,7,20)       =    120.042669    -0.000000    -0.000875   120.041794
	   40 B(5,10,6)       =    116.601453    -0.000002    -0.005307   116.596146
	   41 B(5,10,9)       =    121.717187     0.000002     0.004301   121.721488
	   42 B(6,8,12)       =    123.728195     0.000000     0.000823   123.729018
	   43 B(6,8,21)       =    120.038644    -0.000000    -0.001257   120.037387
	   44 B(6,10,9)       =    121.681360     0.000000     0.001006   121.682366
	   45 B(7,5,10)       =    119.692061     0.000001     0.002921   119.694982
	   46 B(7,5,18)       =    119.802797     0.000000     0.000621   119.803418
	   47 B(7,12,8)       =    116.576971    -0.000001    -0.001970   116.575000
	   48 B(8,6,10)       =    119.680930     0.000001     0.002858   119.683788
	   49 B(8,6,19)       =    119.814028     0.000000     0.000604   119.814632
	   50 B(9,1,14)       =    119.684166    -0.000000    -0.000305   119.683861
	   51 B(9,2,15)       =    119.553809    -0.000001    -0.000130   119.553679
	   52 B(10,5,18)      =    120.485986    -0.000001    -0.003223   120.482763
	   53 B(10,6,19)      =    120.486608    -0.000001    -0.003096   120.483512
	   54 B(11,3,16)      =    119.992799    -0.000000    -0.002046   119.990753
	   55 B(11,4,17)      =    118.961216     0.000001     0.003232   118.964449
	   56 B(11,13,22)     =    109.007053    -0.000002    -0.007720   108.999333
	   57 B(12,7,20)      =    116.235230    -0.000000     0.000381   116.235611
	   58 B(12,8,21)      =    116.231311    -0.000000     0.000630   116.231941
	   59 D(1,3,11,4)     =      0.127251    -0.000000    -0.003029     0.124222
	   60 D(1,3,11,13)    =   -179.877075    -0.000000    -0.003812  -179.880887
	   61 D(1,9,2,4)      =     -0.006202     0.000000    -0.000733    -0.006936
	   62 D(1,9,2,15)     =    178.255207     0.000000     0.001290   178.256497
	   63 D(1,9,10,5)     =    -35.468625     0.000000     0.028130   -35.440495
	   64 D(1,9,10,6)     =    144.533158     0.000000     0.031860   144.565018
	   65 D(2,4,11,3)     =      0.060228    -0.000000    -0.003587     0.056642
	   66 D(2,4,11,13)    =   -179.935689    -0.000000    -0.002848  -179.938537
	   67 D(2,9,1,3)      =      0.196507    -0.000000    -0.005978     0.190529
	   68 D(2,9,1,14)     =    178.260449     0.000000    -0.002879   178.257569
	   69 D(2,9,10,5)     =    144.543454     0.000000     0.033277   144.576732
	   70 D(2,9,10,6)     =    -35.454763     0.000000     0.037008   -35.417755
	   71 D(3,1,9,10)     =   -179.791753    -0.000000    -0.000976  -179.792729
	   72 D(3,11,4,17)    =   -179.339186    -0.000000    -0.003128  -179.342314
	   73 D(3,11,13,22)   =      0.003705     0.000000    -0.000262     0.003443
	   74 D(4,2,9,10)     =    179.982048    -0.000000    -0.005739   179.976309
	   75 D(4,11,3,16)    =   -179.372627    -0.000000    -0.000130  -179.372757
	   76 D(4,11,13,22)   =    180.000000     0.000000    -0.001550   179.998450
	   77 D(5,7,12,8)     =     -0.065472     0.000000     0.001758    -0.063715
	   78 D(5,10,6,8)     =     -0.050543     0.000000     0.001808    -0.048736
	   79 D(5,10,6,19)    =    178.384875     0.000000     0.017411   178.402286
	   80 D(6,8,12,7)     =     -0.083309     0.000000     0.000768    -0.082541
	   81 D(6,10,5,7)     =     -0.086046     0.000000     0.000508    -0.085538
	   82 D(6,10,5,18)    =    178.318864     0.000000     0.013842   178.332706
	   83 D(7,5,10,9)     =    179.915651     0.000000     0.004058   179.919708
	   84 D(7,12,8,21)    =   -179.587298    -0.000000    -0.026255  -179.613553
	   85 D(8,6,10,9)     =    179.947760     0.000000    -0.001740   179.946020
	   86 D(8,12,7,20)    =   -179.556628    -0.000000    -0.023629  -179.580258
	   87 D(9,1,3,11)     =     -0.258966     0.000000     0.007906    -0.251060
	   88 D(9,1,3,16)     =    179.240930     0.000000     0.004988   179.245918
	   89 D(9,2,4,11)     =     -0.121170     0.000000     0.005498    -0.115672
	   90 D(9,2,4,17)     =    179.264757     0.000000     0.005056   179.269813
	   91 D(9,10,5,18)    =     -1.679439     0.000000     0.017392    -1.662047
	   92 D(9,10,6,19)    =     -1.616821     0.000000     0.013863    -1.602958
	   93 D(10,5,7,12)    =      0.152097    -0.000000    -0.002414     0.149683
	   94 D(10,5,7,20)    =    179.624834     0.000000     0.023898   179.648732
	   95 D(10,6,8,12)    =      0.142810    -0.000000    -0.002579     0.140231
	   96 D(10,6,8,21)    =    179.628847     0.000000     0.025432   179.654279
	   97 D(10,9,1,14)    =     -1.727811     0.000000     0.002123    -1.725688
	   98 D(10,9,2,15)    =     -1.756542    -0.000000    -0.003716    -1.760259
	   99 D(11,3,1,14)    =   -178.331228     0.000000     0.004804  -178.326424
	  100 D(11,4,2,15)    =   -178.389071    -0.000000     0.003421  -178.385650
	  101 D(12,7,5,18)    =   -178.263823    -0.000000    -0.015595  -178.279418
	  102 D(12,8,6,19)    =   -178.303243    -0.000000    -0.018018  -178.321261
	  103 D(13,11,3,16)   =      0.623048    -0.000000    -0.000913     0.622135
	  104 D(13,11,4,17)   =      0.664897    -0.000000    -0.002390     0.662507
	  105 D(14,1,3,16)    =      1.168668     0.000000     0.001886     1.170554
	  106 D(15,2,4,17)    =      0.996856     0.000000     0.002979     0.999834
	  107 D(18,5,7,20)    =      1.208914     0.000000     0.010717     1.219631
	  108 D(19,6,8,21)    =      1.182794     0.000000     0.009992     1.192787
	 ---------------------------------------------------------------------------
	Successfully symmetrized geometry.
	 Forces used to impose fixed constraints are not included.
	  Forces zeroed: 73 

  ==> Convergence Check <==

  Measures of convergence in internal coordinates in au.
  Criteria marked as inactive (o), active & met (*), and active & unmet ( ).
  ---------------------------------------------------------------------------------------------
   Step     Total Energy     Delta E     MAX Force     RMS Force      MAX Disp      RMS Disp   
  ---------------------------------------------------------------------------------------------
    Convergence Criteria    1.00e-06 *    3.00e-04 *             o    1.20e-03 *             o
  ---------------------------------------------------------------------------------------------
      7    -553.72578190   -2.61e-07 *    3.12e-05 *    1.07e-05 o    6.46e-04 *    1.61e-04 o  ~
  ---------------------------------------------------------------------------------------------


  **** Optimization is complete! (in 7 steps) ****

  ==> Optimization Summary <==

  Measures of convergence in internal coordinates in au.
  --------------------------------------------------------------------------------------------------------------- ~
   Step         Total Energy             Delta E       MAX Force       RMS Force        MAX Disp        RMS Disp  ~
  --------------------------------------------------------------------------------------------------------------- ~
      1    -553.721850239426   -553.721850239426      0.01867611      0.00481351      0.03446055      0.00961429  ~
      2    -553.725020610136     -0.003170370710      0.00548556      0.00156834      0.02171601      0.00960191  ~
      3    -553.725681987224     -0.000661377088      0.00093539      0.00029411      0.04028550      0.00893103  ~
      4    -553.725766585933     -0.000084598709      0.00041061      0.00015454      0.01765962      0.00365643  ~
      5    -553.725779854449     -0.000013268515      0.00031234      0.00005526      0.00691556      0.00155877  ~
      6    -553.725781638189     -0.000001783741      0.00016133      0.00002516      0.00171073      0.00049309  ~
      7    -553.725781899033     -0.000000260844      0.00003121      0.00001074      0.00064590      0.00016144  ~
  --------------------------------------------------------------------------------------------------------------- ~

	Writing optimization data to binary file.
	Final energy is   -553.7257818990329
	Final (previous) structure:
	Cartesian Geometry (in Angstrom)
	    C    -1.2401571783   0.7681057844  -0.5640841063
	    C    -0.3249772440   0.0576838035   1.5277194763
	    C    -2.3136616934   1.3412499442   0.0983350630
	    C    -1.3949113201   0.6235795495   2.1971450265
	    C     0.7592544320  -1.0862896358  -1.8086599169
	    C     2.1880407463  -0.4753534816  -0.0205928954
	    C     1.8628637867  -1.6402214114  -2.4369539310
	    C     3.2324506343  -1.0569119656  -0.7210828688
	    C    -0.2268912625   0.1187928603   0.1374192617
	    C     0.9062256703  -0.4807256178  -0.5637723447
	    C    -2.3944589684   1.2691343591   1.4824689714
	    N     3.0920592262  -1.6362356692  -1.9157706622
	    O    -3.4224292435   1.8084199595   2.1943367513
	    H    -1.1757853296   0.8550201735  -1.6385027029
	    H     0.4327943172  -0.4645179274   2.0926993672
	    H    -3.0845415530   1.8518395946  -0.4622457273
	    H    -1.4752526676   0.5652640398   3.2714363891
	    H    -0.2120812550  -1.1498462938  -2.2755635981
	    H     2.3782103254   0.0003062312   0.9296982151
	    H     1.7540698240  -2.1172711158  -3.4010718198
	    H     4.2313423284  -1.0507196956  -0.3074093739
	    H    -4.0416236289   2.2226241496   1.5857138481
	Saving final (previous) structure.
			--------------------------
			 OPTKING Finished Execution 
			--------------------------

    Final optimized geometry and variables:
    Molecular point group: c1
    Full point group: C1

    Geometry (in Angstrom), charge = 0, multiplicity = 1:

    C           -1.240157178339     0.768105784424    -0.564084106276
    C           -0.324977243952     0.057683803500     1.527719476326
    C           -2.313661693388     1.341249944247     0.098335063012
    C           -1.394911320056     0.623579549486     2.197145026546
    C            0.759254431996    -1.086289635827    -1.808659916899
    C            2.188040746279    -0.475353481641    -0.020592895433
    C            1.862863786658    -1.640221411368    -2.436953931046
    C            3.232450634292    -1.056911965575    -0.721082868785
    C           -0.226891262493     0.118792860327     0.137419261678
    C            0.906225670346    -0.480725617822    -0.563772344730
    C           -2.394458968364     1.269134359063     1.482468971427
    N            3.092059226222    -1.636235669181    -1.915770662184
    O           -3.422429243472     1.808419959534     2.194336751285
    H           -1.175785329641     0.855020173528    -1.638502702897
    H            0.432794317153    -0.464517927354     2.092699367199
    H           -3.084541553031     1.851839594566    -0.462245727265
    H           -1.475252667598     0.565264039818     3.271436389067
    H           -0.212081255048    -1.149846293806    -2.275563598137
    H            2.378210325357     0.000306231211     0.929698215057
    H            1.754069823960    -2.117271115773    -3.401071819757
    H            4.231342328374    -1.050719695612    -0.307409373938
    H           -4.041623628873     2.222624149632     1.585713848058

	Cleaning optimization helper files.

*** Psi4 exiting successfully. Buy a developer a beer!
