
    -----------------------------------------------------------------------
          Psi4: An Open-Source Ab Initio Electronic Structure Package
                               Psi4 1.1 release

                         Git: Rev {HEAD} add49b9 


    R. M. Parrish, L. A. Burns, D. G. A. Smith, A. C. Simmonett,
    A. E. DePrince III, E. G. Hohenstein, U. Bozkaya, A. Yu. Sokolov,
    R. Di Remigio, R. M. Richard, J. F. Gonthier, A. M. James,
    H. R. McAlexander, A. Kumar, M. Saitow, X. Wang, B. P. Pritchard,
    P. Verma, H. F. Schaefer III, K. Patkowski, R. A. King, E. F. Valeev,
    F. A. Evangelista, J. M. Turney, T. D. Crawford, and C. D. Sherrill,
    J. Chem. Theory Comput. in press (2017).
    (doi: 10.1021/acs.jctc.7b00174)

    -----------------------------------------------------------------------


    Psi4 started on: Sunday, 12 November 2017 07:21AM

    Process ID:  23423
    PSIDATADIR: /cbio/jclab/home/chayas/anaconda/envs/py35/share/psi4
    Memory:     500.0 MiB
    Threads:    8
    
  ==> Input File <==

--------------------------------------------------------------------------

memory 5 Gb

molecule phepyrOH_cation {
  symmetry C1
  1 1 
  C      1.885   -1.036   -0.112
  C      2.878   -1.652   2.002
  C      0.807   -0.463   0.561
  C      1.800   -1.079   2.676
  C      5.207   -2.535   0.601
  C      3.950   -2.488   -1.454
  C      6.264   -3.104   -0.095
  C      5.040   -3.058   -2.098
  C      2.921   -1.631   0.608
  C      4.040   -2.225   -0.090
  C      0.764   -0.484   1.955
  N      6.152   -3.346   -1.408
  O      -0.288   0.076   2.612
  H      1.904   -1.012   -1.199
  H      3.678   -2.112   2.578
  H      0.003   -0.001   -0.006
  H      1.772   -1.098   3.762
  H      5.304   -2.342   1.665
  H      3.052   -2.256   -2.018
  H      7.207   -3.378   0.359
  H      5.060   -3.296   -3.152
  H      6.941   -3.764   -1.900
  H      -0.175   -0.018   3.571
  units Angstrom
}

dih_string = "1 9 10 5 165"
set optking fixed_dihedral = $dih_string

optimize('MP2/aug-cc-PVTZ')
--------------------------------------------------------------------------

  Memory set to   4.657 GiB by Python driver.
gradient() will perform analytic gradient computation.

*** tstart() called on gpu-2-9.local
*** at Sun Nov 12 07:21:01 2017

    SCF Algorithm Type (re)set to DF.

*** tstart() called on gpu-2-9.local
*** at Sun Nov 12 07:21:01 2017

   => Loading Basis Set <=

    Name: AUG-CC-PVTZ
    Role: ORBITAL
    Keyword: BASIS
    atoms 1-11  entry C          line   221 file /cbio/jclab/home/chayas/anaconda/envs/py35/share/psi4/basis/aug-cc-pvtz.gbs 
    atoms 12    entry N          line   267 file /cbio/jclab/home/chayas/anaconda/envs/py35/share/psi4/basis/aug-cc-pvtz.gbs 
    atoms 13    entry O          line   313 file /cbio/jclab/home/chayas/anaconda/envs/py35/share/psi4/basis/aug-cc-pvtz.gbs 
    atoms 14-23 entry H          line    34 file /cbio/jclab/home/chayas/anaconda/envs/py35/share/psi4/basis/aug-cc-pvtz.gbs 


         ---------------------------------------------------------
                                   SCF
            by Justin Turney, Rob Parrish, and Andy Simmonett
                              RHF Reference
                        8 Threads,   4768 MiB Core
         ---------------------------------------------------------

  ==> Geometry <==

    Molecular point group: c1
    Full point group: C1

    Geometry (in Angstrom), charge = 1, multiplicity = 1:

       Center              X                  Y                   Z               Mass       
    ------------   -----------------  -----------------  -----------------  -----------------
           C         -1.271916188788     0.719771262229    -0.579229112502    12.000000000000
           C         -0.278916188788     0.103771262229     1.534770887498    12.000000000000
           C         -2.349916188788     1.292771262229     0.093770887498    12.000000000000
           C         -1.356916188788     0.676771262229     2.208770887498    12.000000000000
           C          2.050083811212    -0.779228737771     0.133770887498    12.000000000000
           C          0.793083811212    -0.732228737771    -1.921229112502    12.000000000000
           C          3.107083811212    -1.348228737771    -0.562229112502    12.000000000000
           C          1.883083811212    -1.302228737771    -2.565229112502    12.000000000000
           C         -0.235916188788     0.124771262229     0.140770887498    12.000000000000
           C          0.883083811212    -0.469228737771    -0.557229112502    12.000000000000
           C         -2.392916188788     1.271771262229     1.487770887498    12.000000000000
           N          2.995083811212    -1.590228737771    -1.875229112502    14.003074004780
           O         -3.444916188788     1.831771262229     2.144770887498    15.994914619560
           H         -1.252916188788     0.743771262229    -1.666229112502     1.007825032070
           H          0.521083811212    -0.356228737771     2.110770887498     1.007825032070
           H         -3.153916188788     1.754771262229    -0.473229112502     1.007825032070
           H         -1.384916188788     0.657771262229     3.294770887498     1.007825032070
           H          2.147083811212    -0.586228737771     1.197770887498     1.007825032070
           H         -0.104916188788    -0.500228737771    -2.485229112502     1.007825032070
           H          4.050083811212    -1.622228737771    -0.108229112502     1.007825032070
           H          1.903083811212    -1.540228737771    -3.619229112502     1.007825032070
           H          3.784083811212    -2.008228737771    -2.367229112502     1.007825032070
           H         -3.331916188788     1.737771262229     3.103770887498     1.007825032070

  Running in c1 symmetry.

  Rotational constants: A =      0.09610  B =      0.01345  C =      0.01185 [cm^-1]
  Rotational constants: A =   2881.11792  B =    403.19810  C =    355.18334 [MHz]
  Nuclear repulsion =  713.637087294382241

  Charge       = 1
  Multiplicity = 1
  Electrons    = 90
  Nalpha       = 45
  Nbeta        = 45

  ==> Algorithm <==

  SCF Algorithm Type is DF.
  DIIS enabled.
  MOM disabled.
  Fractional occupation disabled.
  Guess Type is SAD.
  Energy threshold   = 1.00e-10
  Density threshold  = 1.00e-10
  Integral threshold = 0.00e+00

  ==> Primary Basis <==

  Basis Set: AUG-CC-PVTZ
    Blend: AUG-CC-PVTZ
    Number of shells: 272
    Number of basis function: 828
    Number of Cartesian functions: 965
    Spherical Harmonics?: true
    Max angular momentum: 3

   => Loading Basis Set <=

    Name: (AUG-CC-PVTZ AUX)
    Role: JKFIT
    Keyword: DF_BASIS_SCF
    atoms 1-11  entry C          line   161 file /cbio/jclab/home/chayas/anaconda/envs/py35/share/psi4/basis/aug-cc-pvtz-jkfit.gbs 
    atoms 12    entry N          line   223 file /cbio/jclab/home/chayas/anaconda/envs/py35/share/psi4/basis/aug-cc-pvtz-jkfit.gbs 
    atoms 13    entry O          line   285 file /cbio/jclab/home/chayas/anaconda/envs/py35/share/psi4/basis/aug-cc-pvtz-jkfit.gbs 
    atoms 14-23 entry H          line    69 file /cbio/jclab/home/chayas/anaconda/envs/py35/share/psi4/basis/aug-cc-pvtz-jkfit.gbs 

  ==> Pre-Iterations <==

   -------------------------------------------------------
    Irrep   Nso     Nmo     Nalpha   Nbeta   Ndocc  Nsocc
   -------------------------------------------------------
     A        828     828       0       0       0       0
   -------------------------------------------------------
    Total     828     828      45      45      45       0
   -------------------------------------------------------

  ==> Integral Setup <==

  ==> DFJK: Density-Fitted J/K Matrices <==

    J tasked:                  Yes
    K tasked:                  Yes
    wK tasked:                  No
    OpenMP threads:              8
    Integrals threads:           8
    Memory (MB):              3576
    Algorithm:                Disk
    Integral Cache:           NONE
    Schwarz Cutoff:          1E-12
    Fitting Condition:       1E-12

   => Auxiliary Basis Set <=

  Basis Set: (AUG-CC-PVTZ AUX)
    Blend: AUG-CC-PVTZ-JKFIT
    Number of shells: 530
    Number of basis function: 1812
    Number of Cartesian functions: 2253
    Spherical Harmonics?: true
    Max angular momentum: 4

  Minimum eigenvalue in the overlap matrix is 5.0199376665E-07.
  Using Symmetric Orthogonalization.

  SCF Guess: Superposition of Atomic Densities via on-the-fly atomic UHF.

  ==> Iterations <==

                           Total Energy        Delta E     RMS |[F,P]|

   @DF-RHF iter   0:  -553.89836596186296   -5.53898e+02   2.02142e-02 
   @DF-RHF iter   1:  -551.18712016065683    2.71125e+00   1.91302e-03 
   @DF-RHF iter   2:  -551.55172398306968   -3.64604e-01   1.37579e-03 DIIS
   @DF-RHF iter   3:  -551.64729830501892   -9.55743e-02   4.46697e-04 DIIS
   @DF-RHF iter   4:  -551.66931702647605   -2.20187e-02   2.03702e-04 DIIS
   @DF-RHF iter   5:  -551.67291810268034   -3.60108e-03   5.59594e-05 DIIS
   @DF-RHF iter   6:  -551.67346531695750   -5.47214e-04   2.10919e-05 DIIS
   @DF-RHF iter   7:  -551.67352349388034   -5.81769e-05   7.53194e-06 DIIS
   @DF-RHF iter   8:  -551.67352925926605   -5.76539e-06   1.96346e-06 DIIS
   @DF-RHF iter   9:  -551.67353022153111   -9.62265e-07   1.20017e-06 DIIS
   @DF-RHF iter  10:  -551.67353054687931   -3.25348e-07   5.82419e-07 DIIS
   @DF-RHF iter  11:  -551.67353063672965   -8.98503e-08   2.02701e-07 DIIS
   @DF-RHF iter  12:  -551.67353064768452   -1.09549e-08   8.98376e-08 DIIS
   @DF-RHF iter  13:  -551.67353064937186   -1.68734e-09   4.25512e-08 DIIS
   @DF-RHF iter  14:  -551.67353064972133   -3.49473e-10   1.57830e-08 DIIS
   @DF-RHF iter  15:  -551.67353064978101   -5.96856e-11   6.80936e-09 DIIS
   @DF-RHF iter  16:  -551.67353064978397   -2.95586e-12   3.24956e-09 DIIS
   @DF-RHF iter  17:  -551.67353064979591   -1.19371e-11   1.37016e-09 DIIS
   @DF-RHF iter  18:  -551.67353064979443    1.47793e-12   5.63085e-10 DIIS
   @DF-RHF iter  19:  -551.67353064979591   -1.47793e-12   2.27797e-10 DIIS
   @DF-RHF iter  20:  -551.67353064978874    7.16227e-12   6.60807e-11 DIIS

  ==> Post-Iterations <==

    Orbital Energies (a.u.)
    -----------------------

    Doubly Occupied:                                                      

       1A    -20.706389     2A    -15.829268     3A    -11.481914  
       4A    -11.481828     5A    -11.445154     6A    -11.438049  
       7A    -11.412014     8A    -11.411944     9A    -11.383040  
      10A    -11.381208    11A    -11.372568    12A    -11.359889  
      13A    -11.356213    14A     -1.521071    15A     -1.508129  
      16A     -1.321252    17A     -1.264728    18A     -1.234838  
      19A     -1.155717    20A     -1.154280    21A     -1.067667  
      22A     -1.053786    23A     -0.978122    24A     -0.960024  
      25A     -0.951829    26A     -0.871707    27A     -0.860143  
      28A     -0.854528    29A     -0.822996    30A     -0.797907  
      31A     -0.777688    32A     -0.772809    33A     -0.759985  
      34A     -0.736717    35A     -0.718252    36A     -0.707238  
      37A     -0.703854    38A     -0.683742    39A     -0.656038  
      40A     -0.644941    41A     -0.621586    42A     -0.569570  
      43A     -0.536188    44A     -0.472096    45A     -0.437828  

    Virtual:                                                              

      46A     -0.106029    47A     -0.083506    48A     -0.064654  
      49A     -0.062738    50A     -0.059515    51A     -0.046386  
      52A     -0.044276    53A     -0.039604    54A     -0.031900  
      55A     -0.026180    56A     -0.025280    57A     -0.022251  
      58A     -0.017972    59A     -0.008113    60A     -0.006834  
      61A     -0.001081    62A      0.005041    63A      0.006128  
      64A      0.008956    65A      0.017434    66A      0.019214  
      67A      0.021464    68A      0.024815    69A      0.025897  
      70A      0.030384    71A      0.032480    72A      0.034670  
      73A      0.036544    74A      0.040148    75A      0.048674  
      76A      0.049900    77A      0.056361    78A      0.059627  
      79A      0.063653    80A      0.065814    81A      0.070404  
      82A      0.073870    83A      0.076679    84A      0.078856  
      85A      0.084946    86A      0.086378    87A      0.087228  
      88A      0.096454    89A      0.101278    90A      0.105841  
      91A      0.108067    92A      0.114410    93A      0.120203  
      94A      0.126502    95A      0.129818    96A      0.133466  
      97A      0.135031    98A      0.137097    99A      0.142518  
     100A      0.146045   101A      0.150346   102A      0.155242  
     103A      0.159719   104A      0.163477   105A      0.165162  
     106A      0.169755   107A      0.171411   108A      0.174719  
     109A      0.179777   110A      0.183983   111A      0.188482  
     112A      0.190402   113A      0.196575   114A      0.198412  
     115A      0.206815   116A      0.209952   117A      0.211229  
     118A      0.217691   119A      0.221029   120A      0.224700  
     121A      0.226047   122A      0.228689   123A      0.231006  
     124A      0.234905   125A      0.236423   126A      0.241842  
     127A      0.244238   128A      0.250165   129A      0.253520  
     130A      0.256056   131A      0.266166   132A      0.271662  
     133A      0.274661   134A      0.280961   135A      0.283944  
     136A      0.285148   137A      0.290393   138A      0.297111  
     139A      0.303845   140A      0.304965   141A      0.306462  
     142A      0.311805   143A      0.315191   144A      0.318875  
     145A      0.325230   146A      0.328334   147A      0.330668  
     148A      0.336011   149A      0.336593   150A      0.337875  
     151A      0.341043   152A      0.345476   153A      0.349434  
     154A      0.353477   155A      0.355569   156A      0.359035  
     157A      0.365163   158A      0.367243   159A      0.369777  
     160A      0.375154   161A      0.378780   162A      0.382986  
     163A      0.386854   164A      0.389807   165A      0.391583  
     166A      0.393419   167A      0.394528   168A      0.398329  
     169A      0.405150   170A      0.408933   171A      0.411067  
     172A      0.414942   173A      0.418279   174A      0.420097  
     175A      0.430618   176A      0.432786   177A      0.437537  
     178A      0.439899   179A      0.446414   180A      0.449527  
     181A      0.452691   182A      0.457687   183A      0.462947  
     184A      0.465348   185A      0.471100   186A      0.482663  
     187A      0.493329   188A      0.496180   189A      0.503266  
     190A      0.508248   191A      0.510657   192A      0.513648  
     193A      0.525554   194A      0.534530   195A      0.538146  
     196A      0.539419   197A      0.546212   198A      0.550429  
     199A      0.562517   200A      0.565607   201A      0.569692  
     202A      0.576239   203A      0.577168   204A      0.584399  
     205A      0.587418   206A      0.589320   207A      0.594726  
     208A      0.596128   209A      0.607539   210A      0.614076  
     211A      0.619215   212A      0.626266   213A      0.632179  
     214A      0.638650   215A      0.641641   216A      0.643624  
     217A      0.647633   218A      0.656169   219A      0.660231  
     220A      0.669488   221A      0.676155   222A      0.681785  
     223A      0.687763   224A      0.700485   225A      0.703210  
     226A      0.706264   227A      0.712940   228A      0.717078  
     229A      0.722700   230A      0.723785   231A      0.733190  
     232A      0.734762   233A      0.737821   234A      0.743237  
     235A      0.746749   236A      0.750048   237A      0.759455  
     238A      0.762034   239A      0.767752   240A      0.773282  
     241A      0.776285   242A      0.778845   243A      0.784573  
     244A      0.787613   245A      0.789150   246A      0.796843  
     247A      0.801304   248A      0.804890   249A      0.807265  
     250A      0.810305   251A      0.813444   252A      0.816014  
     253A      0.819717   254A      0.832082   255A      0.837638  
     256A      0.844627   257A      0.848800   258A      0.854663  
     259A      0.856537   260A      0.857824   261A      0.865454  
     262A      0.866994   263A      0.869086   264A      0.875773  
     265A      0.877102   266A      0.880520   267A      0.885550  
     268A      0.896222   269A      0.900066   270A      0.903391  
     271A      0.906534   272A      0.910717   273A      0.917951  
     274A      0.920485   275A      0.929995   276A      0.937780  
     277A      0.938989   278A      0.944178   279A      0.947355  
     280A      0.950196   281A      0.952708   282A      0.956971  
     283A      0.961730   284A      0.972185   285A      0.976985  
     286A      0.979399   287A      0.981460   288A      0.985237  
     289A      0.993465   290A      0.999796   291A      1.003268  
     292A      1.010384   293A      1.014922   294A      1.015041  
     295A      1.020818   296A      1.023066   297A      1.025737  
     298A      1.034256   299A      1.038518   300A      1.047996  
     301A      1.052820   302A      1.056140   303A      1.058615  
     304A      1.060577   305A      1.065235   306A      1.067356  
     307A      1.068585   308A      1.076059   309A      1.081835  
     310A      1.087082   311A      1.095790   312A      1.100755  
     313A      1.106339   314A      1.110372   315A      1.112698  
     316A      1.121892   317A      1.125679   318A      1.126594  
     319A      1.132057   320A      1.138229   321A      1.147763  
     322A      1.150684   323A      1.155545   324A      1.161748  
     325A      1.164774   326A      1.172337   327A      1.173414  
     328A      1.180734   329A      1.192518   330A      1.197229  
     331A      1.207770   332A      1.218879   333A      1.222663  
     334A      1.226841   335A      1.242195   336A      1.243639  
     337A      1.244451   338A      1.251305   339A      1.261744  
     340A      1.263228   341A      1.274399   342A      1.278680  
     343A      1.286447   344A      1.289402   345A      1.296847  
     346A      1.312058   347A      1.318697   348A      1.323834  
     349A      1.334255   350A      1.336153   351A      1.340855  
     352A      1.352503   353A      1.359513   354A      1.364930  
     355A      1.370971   356A      1.373805   357A      1.374580  
     358A      1.382628   359A      1.394312   360A      1.400928  
     361A      1.405576   362A      1.411674   363A      1.420110  
     364A      1.429510   365A      1.440720   366A      1.442817  
     367A      1.455818   368A      1.465942   369A      1.476135  
     370A      1.480541   371A      1.484758   372A      1.493955  
     373A      1.504303   374A      1.511166   375A      1.520057  
     376A      1.530941   377A      1.533959   378A      1.541835  
     379A      1.546927   380A      1.554718   381A      1.562927  
     382A      1.566204   383A      1.572167   384A      1.579331  
     385A      1.588363   386A      1.603070   387A      1.619255  
     388A      1.627237   389A      1.638597   390A      1.643663  
     391A      1.651702   392A      1.656724   393A      1.665070  
     394A      1.672662   395A      1.681793   396A      1.685476  
     397A      1.690636   398A      1.693009   399A      1.705850  
     400A      1.712381   401A      1.728205   402A      1.735478  
     403A      1.737459   404A      1.739366   405A      1.743930  
     406A      1.752681   407A      1.762840   408A      1.765599  
     409A      1.775753   410A      1.790993   411A      1.797522  
     412A      1.809487   413A      1.813806   414A      1.818626  
     415A      1.833426   416A      1.837836   417A      1.847151  
     418A      1.850126   419A      1.858244   420A      1.858710  
     421A      1.868678   422A      1.875108   423A      1.886962  
     424A      1.903277   425A      1.905601   426A      1.909378  
     427A      1.912135   428A      1.916528   429A      1.922168  
     430A      1.931401   431A      1.935018   432A      1.936242  
     433A      1.941323   434A      1.949883   435A      1.959294  
     436A      1.973925   437A      1.982110   438A      1.992639  
     439A      1.997493   440A      2.002456   441A      2.005193  
     442A      2.027630   443A      2.029841   444A      2.035093  
     445A      2.038874   446A      2.045570   447A      2.060461  
     448A      2.067280   449A      2.068986   450A      2.087602  
     451A      2.092484   452A      2.102434   453A      2.106356  
     454A      2.116721   455A      2.135765   456A      2.139234  
     457A      2.161976   458A      2.165392   459A      2.177187  
     460A      2.183057   461A      2.193230   462A      2.201268  
     463A      2.215274   464A      2.219875   465A      2.232297  
     466A      2.239350   467A      2.249542   468A      2.262884  
     469A      2.272552   470A      2.282443   471A      2.287866  
     472A      2.292931   473A      2.299749   474A      2.309749  
     475A      2.315994   476A      2.336306   477A      2.356769  
     478A      2.360448   479A      2.376941   480A      2.379317  
     481A      2.387474   482A      2.409456   483A      2.415706  
     484A      2.418869   485A      2.427697   486A      2.431837  
     487A      2.445006   488A      2.453351   489A      2.460459  
     490A      2.478182   491A      2.488007   492A      2.511231  
     493A      2.517793   494A      2.533841   495A      2.558668  
     496A      2.561711   497A      2.571640   498A      2.589324  
     499A      2.608025   500A      2.614844   501A      2.633957  
     502A      2.656030   503A      2.662232   504A      2.681360  
     505A      2.715883   506A      2.727367   507A      2.732395  
     508A      2.750804   509A      2.753729   510A      2.777381  
     511A      2.783631   512A      2.799303   513A      2.833132  
     514A      2.854023   515A      2.861397   516A      2.890581  
     517A      2.910485   518A      2.952040   519A      2.965250  
     520A      2.970575   521A      2.978407   522A      2.996108  
     523A      3.019706   524A      3.036370   525A      3.053783  
     526A      3.066283   527A      3.089605   528A      3.101861  
     529A      3.105823   530A      3.129517   531A      3.146158  
     532A      3.152414   533A      3.170387   534A      3.180982  
     535A      3.181797   536A      3.198296   537A      3.202020  
     538A      3.222970   539A      3.228521   540A      3.236563  
     541A      3.245686   542A      3.251375   543A      3.258648  
     544A      3.261506   545A      3.277467   546A      3.290103  
     547A      3.298646   548A      3.310762   549A      3.328362  
     550A      3.344169   551A      3.352523   552A      3.357764  
     553A      3.365710   554A      3.385985   555A      3.389458  
     556A      3.395882   557A      3.401746   558A      3.409305  
     559A      3.417989   560A      3.421182   561A      3.425163  
     562A      3.431462   563A      3.452623   564A      3.458199  
     565A      3.473869   566A      3.477460   567A      3.488512  
     568A      3.502243   569A      3.512012   570A      3.517271  
     571A      3.525518   572A      3.541841   573A      3.544050  
     574A      3.550198   575A      3.563371   576A      3.579405  
     577A      3.581809   578A      3.595019   579A      3.607560  
     580A      3.610613   581A      3.633728   582A      3.637336  
     583A      3.642920   584A      3.650870   585A      3.655952  
     586A      3.675242   587A      3.681592   588A      3.687511  
     589A      3.704760   590A      3.715482   591A      3.718424  
     592A      3.731132   593A      3.738659   594A      3.750066  
     595A      3.761062   596A      3.771889   597A      3.777454  
     598A      3.784865   599A      3.787945   600A      3.793865  
     601A      3.796501   602A      3.801845   603A      3.818315  
     604A      3.831400   605A      3.832344   606A      3.849809  
     607A      3.858837   608A      3.859488   609A      3.867940  
     610A      3.874110   611A      3.880254   612A      3.884755  
     613A      3.902257   614A      3.907866   615A      3.911134  
     616A      3.925719   617A      3.936624   618A      3.956030  
     619A      3.962493   620A      3.976333   621A      3.980315  
     622A      3.991266   623A      4.002261   624A      4.009696  
     625A      4.024477   626A      4.029876   627A      4.046028  
     628A      4.047932   629A      4.051017   630A      4.063439  
     631A      4.077724   632A      4.082630   633A      4.084739  
     634A      4.088985   635A      4.103664   636A      4.111365  
     637A      4.114694   638A      4.118195   639A      4.127936  
     640A      4.145984   641A      4.153431   642A      4.171333  
     643A      4.178293   644A      4.185772   645A      4.188066  
     646A      4.194601   647A      4.203092   648A      4.204839  
     649A      4.212129   650A      4.227102   651A      4.237754  
     652A      4.247640   653A      4.259956   654A      4.270315  
     655A      4.277566   656A      4.282983   657A      4.285136  
     658A      4.292499   659A      4.305129   660A      4.317231  
     661A      4.321215   662A      4.332210   663A      4.345651  
     664A      4.349411   665A      4.356029   666A      4.358350  
     667A      4.368548   668A      4.382877   669A      4.396043  
     670A      4.400763   671A      4.411598   672A      4.423226  
     673A      4.426182   674A      4.436424   675A      4.453354  
     676A      4.459924   677A      4.465979   678A      4.491780  
     679A      4.502533   680A      4.514281   681A      4.533793  
     682A      4.541773   683A      4.566081   684A      4.569760  
     685A      4.581845   686A      4.592438   687A      4.599829  
     688A      4.626632   689A      4.638198   690A      4.644446  
     691A      4.654346   692A      4.659389   693A      4.673036  
     694A      4.675078   695A      4.698307   696A      4.723281  
     697A      4.727681   698A      4.757294   699A      4.758897  
     700A      4.779374   701A      4.786288   702A      4.793420  
     703A      4.808501   704A      4.813914   705A      4.815276  
     706A      4.830678   707A      4.841777   708A      4.846279  
     709A      4.887971   710A      4.897699   711A      4.904759  
     712A      4.907892   713A      4.938881   714A      4.946025  
     715A      4.960453   716A      4.961935   717A      4.972776  
     718A      4.985668   719A      4.990907   720A      5.002864  
     721A      5.012217   722A      5.017713   723A      5.021811  
     724A      5.035501   725A      5.050141   726A      5.061633  
     727A      5.082425   728A      5.090280   729A      5.099650  
     730A      5.122414   731A      5.147917   732A      5.170388  
     733A      5.181970   734A      5.196378   735A      5.205045  
     736A      5.206963   737A      5.216229   738A      5.247726  
     739A      5.268855   740A      5.278088   741A      5.291470  
     742A      5.314447   743A      5.327477   744A      5.337125  
     745A      5.350232   746A      5.387095   747A      5.390358  
     748A      5.397041   749A      5.420565   750A      5.427291  
     751A      5.456968   752A      5.484536   753A      5.506244  
     754A      5.558315   755A      5.591005   756A      5.598106  
     757A      5.607206   758A      5.612676   759A      5.619419  
     760A      5.630919   761A      5.659885   762A      5.691271  
     763A      5.698968   764A      5.705988   765A      5.739198  
     766A      5.764050   767A      5.791469   768A      5.843744  
     769A      5.846659   770A      5.861672   771A      5.952365  
     772A      5.971377   773A      5.994728   774A      5.998274  
     775A      6.049132   776A      6.084403   777A      6.103239  
     778A      6.143745   779A      6.197824   780A      6.230215  
     781A      6.283564   782A      6.323324   783A      6.332190  
     784A      6.362859   785A      6.371995   786A      6.424214  
     787A      6.453394   788A      6.498905   789A      6.507447  
     790A      6.561785   791A      6.600534   792A      6.637813  
     793A      6.702548   794A      6.758070   795A      6.791688  
     796A      6.805886   797A      6.806678   798A      6.817635  
     799A      6.847592   800A      6.898881   801A      6.955192  
     802A      6.987637   803A      6.997744   804A      7.120162  
     805A      7.157339   806A      7.318842   807A      7.331830  
     808A      7.478605   809A      7.553882   810A      7.578214  
     811A      7.614990   812A      7.653192   813A      7.912329  
     814A      8.290061   815A      8.539063   816A     15.982947  
     817A     16.291261   818A     16.634953   819A     17.131443  
     820A     17.175846   821A     18.782775   822A     19.429400  
     823A     19.552817   824A     19.821679   825A     20.286197  
     826A     20.347634   827A     20.735006   828A     21.511310  

    Final Occupation by Irrep:
              A 
    DOCC [    45 ]

  Energy converged.

  @DF-RHF Final Energy:  -551.67353064978874

   => Energetics <=

    Nuclear Repulsion Energy =            713.6370872943822405
    One-Electron Energy =               -2150.1477611894806614
    Two-Electron Energy =                 884.8371432453097896
    DFT Exchange-Correlation Energy =       0.0000000000000000
    Empirical Dispersion Energy =           0.0000000000000000
    PCM Polarization Energy =               0.0000000000000000
    EFP Energy =                            0.0000000000000000
    Total Energy =                       -551.6735306497887450



Properties will be evaluated at   0.000000,   0.000000,   0.000000 Bohr

Properties computed using the SCF density matrix

  Nuclear Dipole Moment: (a.u.)
     X:     2.9529      Y:    -1.5984      Z:    -0.9332

  Electronic Dipole Moment: (a.u.)
     X:     0.1882      Y:    -0.0907      Z:    -0.4256

  Dipole Moment: (a.u.)
     X:     3.1412      Y:    -1.6891      Z:    -1.3588     Total:     3.8166

  Dipole Moment: (Debye)
     X:     7.9841      Y:    -4.2932      Z:    -3.4537     Total:     9.7008


*** tstop() called on gpu-2-9.local at Sun Nov 12 07:29:38 2017
Module time:
	user time   =    1199.08 seconds =      19.98 minutes
	system time =      51.17 seconds =       0.85 minutes
	total time  =        517 seconds =       8.62 minutes
Total time:
	user time   =    1199.09 seconds =      19.98 minutes
	system time =      51.17 seconds =       0.85 minutes
	total time  =        517 seconds =       8.62 minutes

  //>>>>>>>>>>>>>>>>>>>>>>>>>>>>>>>>>>>//
  //               DFMP2               //
  //<<<<<<<<<<<<<<<<<<<<<<<<<<<<<<<<<<<//

   => Loading Basis Set <=

    Name: (AUG-CC-PVTZ AUX)
    Role: RIFIT
    Keyword: DF_BASIS_MP2
    atoms 1-11  entry C          line   147 file /cbio/jclab/home/chayas/anaconda/envs/py35/share/psi4/basis/aug-cc-pvtz-ri.gbs 
    atoms 12    entry N          line   205 file /cbio/jclab/home/chayas/anaconda/envs/py35/share/psi4/basis/aug-cc-pvtz-ri.gbs 
    atoms 13    entry O          line   263 file /cbio/jclab/home/chayas/anaconda/envs/py35/share/psi4/basis/aug-cc-pvtz-ri.gbs 
    atoms 14-23 entry H          line    29 file /cbio/jclab/home/chayas/anaconda/envs/py35/share/psi4/basis/aug-cc-pvtz-ri.gbs 

	 --------------------------------------------------------
	                          DF-MP2                         
	      2nd-Order Density-Fitted Moller-Plesset Theory     
	              RMP2 Wavefunction,   8 Threads             
	                                                         
	        Rob Parrish, Justin Turney, Andy Simmonett,      
	           Ed Hohenstein, and C. David Sherrill          
	 --------------------------------------------------------

   => Auxiliary Basis Set <=

  Basis Set: (AUG-CC-PVTZ AUX)
    Blend: AUG-CC-PVTZ-RI
    Number of shells: 504
    Number of basis function: 1838
    Number of Cartesian functions: 2318
    Spherical Harmonics?: true
    Max angular momentum: 4

	 --------------------------------------------------------
	                 NBF =   828, NAUX =  1838
	 --------------------------------------------------------
	   CLASS    FOCC     OCC    AOCC    AVIR     VIR    FVIR
	   PAIRS       0      45      45     783     783       0
	 --------------------------------------------------------


         ------------------------------------------------------------
                                     CPHF                           
                                  Rob Parrish                       
         ------------------------------------------------------------

  ==> Geometry <==

    Molecular point group: c1
    Full point group: C1

    Geometry (in Angstrom), charge = 1, multiplicity = 1:

       Center              X                  Y                   Z               Mass       
    ------------   -----------------  -----------------  -----------------  -----------------
           C         -1.271916188788     0.719771262229    -0.579229112502    12.000000000000
           C         -0.278916188788     0.103771262229     1.534770887498    12.000000000000
           C         -2.349916188788     1.292771262229     0.093770887498    12.000000000000
           C         -1.356916188788     0.676771262229     2.208770887498    12.000000000000
           C          2.050083811212    -0.779228737771     0.133770887498    12.000000000000
           C          0.793083811212    -0.732228737771    -1.921229112502    12.000000000000
           C          3.107083811212    -1.348228737771    -0.562229112502    12.000000000000
           C          1.883083811212    -1.302228737771    -2.565229112502    12.000000000000
           C         -0.235916188788     0.124771262229     0.140770887498    12.000000000000
           C          0.883083811212    -0.469228737771    -0.557229112502    12.000000000000
           C         -2.392916188788     1.271771262229     1.487770887498    12.000000000000
           N          2.995083811212    -1.590228737771    -1.875229112502    14.003074004780
           O         -3.444916188788     1.831771262229     2.144770887498    15.994914619560
           H         -1.252916188788     0.743771262229    -1.666229112502     1.007825032070
           H          0.521083811212    -0.356228737771     2.110770887498     1.007825032070
           H         -3.153916188788     1.754771262229    -0.473229112502     1.007825032070
           H         -1.384916188788     0.657771262229     3.294770887498     1.007825032070
           H          2.147083811212    -0.586228737771     1.197770887498     1.007825032070
           H         -0.104916188788    -0.500228737771    -2.485229112502     1.007825032070
           H          4.050083811212    -1.622228737771    -0.108229112502     1.007825032070
           H          1.903083811212    -1.540228737771    -3.619229112502     1.007825032070
           H          3.784083811212    -2.008228737771    -2.367229112502     1.007825032070
           H         -3.331916188788     1.737771262229     3.103770887498     1.007825032070

  Nuclear repulsion =  713.637087294382241
  Reference energy  = -551.673530649788745

  ==> Basis Set <==

  Basis Set: AUG-CC-PVTZ
    Blend: AUG-CC-PVTZ
    Number of shells: 272
    Number of basis function: 828
    Number of Cartesian functions: 965
    Spherical Harmonics?: true
    Max angular momentum: 3

  ==> CGRSolver (by Rob Parrish) <==

   Number of roots    =         1
   Preconditioning    =    JACOBI
   Convergence cutoff =     1E-06
   Maximum iterations =       100

  ==> CPHFRHamiltonian (by Rob Parrish) <== 

  ==> DFJK: Density-Fitted J/K Matrices <==

    J tasked:                  Yes
    K tasked:                  Yes
    wK tasked:                  No
    OpenMP threads:              8
    Integrals threads:           8
    Memory (MB):              3576
    Algorithm:                Disk
    Integral Cache:           NONE
    Schwarz Cutoff:          1E-12
    Fitting Condition:       1E-12

   => Auxiliary Basis Set <=

  Basis Set: (AUG-CC-PVTZ AUX)
    Blend: AUG-CC-PVTZ-JKFIT
    Number of shells: 530
    Number of basis function: 1812
    Number of Cartesian functions: 2253
    Spherical Harmonics?: true
    Max angular momentum: 4

  ==> CPHF Iterations <==

  => Iterations <=

             Iter  Converged  Remaining    Residual
  CGR           1          0          1   1.153E-01
  CGR           2          0          1   5.294E-02
  CGR           3          0          1   3.081E-02
  CGR           4          0          1   1.001E-02
  CGR           5          0          1   4.843E-03
  CGR           6          0          1   2.409E-03
  CGR           7          0          1   7.308E-04
  CGR           8          0          1   2.932E-04
  CGR           9          0          1   1.388E-04
  CGR          10          0          1   4.604E-05
  CGR          11          0          1   1.451E-05
  CGR          12          0          1   5.432E-06
  CGR          13          0          1   1.686E-06
  CGR          14          1          0   5.274E-07

    CGRSolver converged.

  ==> DFCorrGrad: Density-Fitted Correlated Gradients <==

    OpenMP threads:              8
    Integrals threads:           8
    Memory (MB):              3576
    Schwarz Cutoff:          0E+00
    Fitting Condition:       1E-12

   => Auxiliary Basis Set <=

  Basis Set: (AUG-CC-PVTZ AUX)
    Blend: AUG-CC-PVTZ-JKFIT
    Number of shells: 530
    Number of basis function: 1812
    Number of Cartesian functions: 2253
    Spherical Harmonics?: true
    Max angular momentum: 4

	-----------------------------------------------------------
	 ==================> DF-MP2 Energies <==================== 
	-----------------------------------------------------------
	 Reference Energy          =    -551.6735306497887450 [Eh]
	 Singles Energy            =      -0.0000000000000002 [Eh]
	 Same-Spin Energy          =      -0.5969477194254267 [Eh]
	 Opposite-Spin Energy      =      -1.8265219580374521 [Eh]
	 Correlation Energy        =      -2.4234696774628786 [Eh]
	 Total Energy              =    -554.0970003272516351 [Eh]
	-----------------------------------------------------------
	 ================> DF-SCS-MP2 Energies <================== 
	-----------------------------------------------------------
	 SCS Same-Spin Scale       =       0.3333333333333333 [-]
	 SCS Opposite-Spin Scale   =       1.2000000000000000 [-]
	 SCS Same-Spin Energy      =      -0.1989825731418089 [Eh]
	 SCS Opposite-Spin Energy  =      -2.1918263496449426 [Eh]
	 SCS Correlation Energy    =      -2.3908089227867517 [Eh]
	 SCS Total Energy          =    -554.0643395725754772 [Eh]
	-----------------------------------------------------------


  -Total Gradient:
     Atom            X                  Y                   Z
    ------   -----------------  -----------------  -----------------
       1        0.013555746357    -0.004552141568    -0.007651791954
       2        0.009238968334    -0.007460060213    -0.010182804230
       3       -0.000807188389     0.000119007942     0.008975006959
       4       -0.013054238078     0.007133578430     0.005922422880
       5       -0.019177923232     0.011263515060     0.010206572201
       6       -0.019062694100     0.008741792017     0.013107728502
       7        0.001486058026    -0.003310627401    -0.015207867312
       8        0.014284041525    -0.005179397575     0.004214625100
       9       -0.004346886337     0.002210980832     0.002318541081
      10        0.015911484671    -0.008124055259    -0.009464124358
      11        0.004216085644    -0.001885296266    -0.015575952847
      12       -0.002422387039     0.001321305941     0.001828166424
      13       -0.006216930586     0.003159870042     0.009807843409
      14        0.002167979369    -0.002923099898    -0.008084122488
      15        0.008050684370    -0.002480986433     0.002028618486
      16       -0.003205085195     0.001552704376    -0.005137947886
      17        0.000508748318    -0.000101893901     0.004408385733
      18       -0.002785343102     0.001183022365     0.008632767649
      19       -0.007588978587     0.004352302846    -0.002019247511
      20        0.002964104157    -0.001455793119    -0.000079877193
      21        0.001475943592    -0.000821937417    -0.001995934308
      22        0.005207472386    -0.002748175200    -0.003287072970
      23       -0.000399662108     0.000005384404     0.007236064630


*** tstop() called on gpu-2-9.local at Sun Nov 12 08:03:40 2017
Module time:
	user time   =    5988.51 seconds =      99.81 minutes
	system time =     111.85 seconds =       1.86 minutes
	total time  =       2559 seconds =      42.65 minutes
Total time:
	user time   =    5988.52 seconds =      99.81 minutes
	system time =     111.85 seconds =       1.86 minutes
	total time  =       2559 seconds =      42.65 minutes

			-----------------------------------------
			 OPTKING 2.0: for geometry optimizations 
			  - R.A. King,  Bethel University        
			-----------------------------------------

	Internal coordinates to be generated automatically.
	Detected frag 1 with atoms:  1 2 3 4 5 6 7 8 9 10 11 12 13 14 15 16 17 18 19 20
	 21 22 23
	---Fragment 1 Bond Connectivity---
	 1 : 3 9 14
	 2 : 4 9 15
	 3 : 1 11 16
	 4 : 2 11 17
	 5 : 7 10 18
	 6 : 8 10 19
	 7 : 5 12 20
	 8 : 6 12 21
	 9 : 1 2 10
	 10 : 5 6 9
	 11 : 3 4 13
	 12 : 7 8 22
	 13 : 11 23
	 14 : 1
	 15 : 2
	 16 : 3
	 17 : 4
	 18 : 5
	 19 : 6
	 20 : 7
	 21 : 8
	 22 : 12
	 23 : 13

	Assuming in current code that numbering for constraints corresponds to unified fragment.
	Fixed dihedral atom list: 
	     1     9    10     5
	---Fragment 1 Geometry and Gradient---
	 C          -2.4035732608        1.3601705639       -1.0945843908
	 C          -0.5270752108        0.1960992661        2.9002966541
	 C          -4.4406980320        2.4429836381        0.1772012966
	 C          -2.5641999821        1.2789123402        4.1739720677
	 C           3.8740969527       -1.4725289093        0.2527903419
	 C           1.4987112036       -1.3837117810       -3.6305968612
	 C           5.8715374751       -2.5477830789       -1.0624590466
	 C           3.5585126885       -2.4608556768       -4.8475804907
	 C          -0.4458169871        0.2357835149        0.2660184249
	 C           1.6687865556       -0.8867138081       -1.0530104159
	 C          -4.5219562558        2.4032993893        2.8114795259
	 N           5.6598881482       -3.0050968030       -3.5436694590
	 O          -6.5099481476        3.4615460237        4.0530295952
	 H          -2.3676684643        1.4055239911       -3.1487166973
	 H           0.9847056955       -0.6731747551        3.9887789066
	 H          -5.9600378429        3.3160371115       -0.8942734207
	 H          -2.6171123138        1.2430075437        6.2262146480
	 H           4.0574003875       -1.1078117656        2.2634589473
	 H          -0.1982628637       -0.9452953182       -4.6964024001
	 H           7.6535492184       -3.0655680393       -0.2045233822
	 H           3.5963072111       -2.9106104964       -6.8393518348
	 H           7.1508820671       -3.7950023266       -4.4734147164
	 H          -6.2964090945        3.2839117672        5.8652769566
	             0.0135557464       -0.0045521416       -0.0076517920
	             0.0092389683       -0.0074600602       -0.0101828042
	            -0.0008071884        0.0001190079        0.0089750070
	            -0.0130542381        0.0071335784        0.0059224229
	            -0.0191779232        0.0112635151        0.0102065722
	            -0.0190626941        0.0087417920        0.0131077285
	             0.0014860580       -0.0033106274       -0.0152078673
	             0.0142840415       -0.0051793976        0.0042146251
	            -0.0043468863        0.0022109808        0.0023185411
	             0.0159114847       -0.0081240553       -0.0094641244
	             0.0042160856       -0.0018852963       -0.0155759528
	            -0.0024223870        0.0013213059        0.0018281664
	            -0.0062169306        0.0031598700        0.0098078434
	             0.0021679794       -0.0029230999       -0.0080841225
	             0.0080506844       -0.0024809864        0.0020286185
	            -0.0032050852        0.0015527044       -0.0051379479
	             0.0005087483       -0.0001018939        0.0044083857
	            -0.0027853431        0.0011830224        0.0086327676
	            -0.0075889786        0.0043523028       -0.0020192475
	             0.0029641042       -0.0014557931       -0.0000798772
	             0.0014759436       -0.0008219374       -0.0019959343
	             0.0052074724       -0.0027481752       -0.0032870730
	            -0.0003996621        0.0000053844        0.0072360646

	Previous optimization step data not found.  Starting new optimization.

	---Fragment 1 Intrafragment Coordinates---
	 - Coordinate -           - BOHR/RAD -       - ANG/DEG -
	 R(1,3)           =         2.634350	       1.394038
	 R(1,9)           =         2.635962	       1.394891
	 R(1,14)          =         2.054947	       1.087431
	 R(2,4)           =         2.635263	       1.394521
	 R(2,9)           =         2.635830	       1.394821
	 R(2,15)          =         2.055702	       1.087831
	 R(3,11)          =         2.635830	       1.394821
	 R(3,16)          =         2.053941	       1.086899
	 R(4,11)          =         2.636938	       1.395407
	 R(4,17)          =         2.053239	       1.086527
	 R(5,7)           =         2.622179	       1.387597
	 R(5,10)          =         2.629009	       1.391212
	 R(5,18)          =         2.051684	       1.085704
	 R(6,8)           =         2.623751	       1.388429
	 R(6,10)          =         2.630567	       1.392036
	 R(6,19)          =         2.051310	       1.085506
	 R(7,12)          =         2.531864	       1.339805
	 R(7,20)          =         2.044437	       1.081869
	 R(8,12)          =         2.532225	       1.339996
	 R(8,21)          =         2.042269	       1.080722
	 R(9,10)          =         2.733384	       1.446444
	 R(11,13)         =         2.571662	       1.360865
	 R(12,22)         =         1.926510	       1.019465
	 R(13,23)         =         1.833410	       0.970199
	 B(1,3,11)        =         2.094553	     120.009056
	 B(1,3,16)        =         2.088505	     119.662516
	 B(1,9,2)         =         2.093692	     119.959722
	 B(1,9,10)        =         2.095161	     120.043881
	 B(2,4,11)        =         2.093699	     119.960108
	 B(2,4,17)        =         2.089577	     119.723926
	 B(2,9,10)        =         2.094332	     119.996376
	 B(3,1,9)         =         2.094940	     120.031219
	 B(3,1,14)        =         2.079469	     119.144799
	 B(3,11,4)        =         2.094306	     119.994870
	 B(3,11,13)       =         2.094549	     120.008801
	 B(4,2,9)         =         2.095181	     120.045019
	 B(4,2,15)        =         2.078675	     119.099297
	 B(4,11,13)       =         2.094331	     119.996326
	 B(5,7,12)        =         2.096637	     120.128454
	 B(5,7,20)        =         2.161971	     123.871806
	 B(5,10,6)        =         2.093033	     119.921984
	 B(5,10,9)        =         2.095279	     120.050641
	 B(6,8,12)        =         2.095410	     120.058174
	 B(6,8,21)        =         2.161930	     123.869461
	 B(6,10,9)        =         2.094873	     120.027360
	 B(7,5,10)        =         2.072846	     118.765314
	 B(7,5,18)        =         2.090240	     119.761904
	 B(7,12,8)        =         2.135512	     122.355816
	 B(7,12,22)       =         2.074090	     118.836591
	 B(8,6,10)        =         2.072931	     118.770217
	 B(8,6,19)        =         2.090010	     119.748769
	 B(8,12,22)       =         2.073584	     118.807592
	 B(9,1,14)        =         2.108776	     120.823969
	 B(9,2,15)        =         2.109330	     120.855683
	 B(10,5,18)       =         2.120100	     121.472770
	 B(10,6,19)       =         2.120242	     121.480930
	 B(11,3,16)       =         2.100127	     120.328425
	 B(11,4,17)       =         2.099910	     120.315955
	 B(11,13,23)      =         1.925489	     110.322421
	 B(12,7,20)       =         2.024577	     115.999728
	 B(12,8,21)       =         2.025845	     116.072359
	 D(1,3,11,4)      =        -0.000325	      -0.018609
	 D(1,3,11,13)     =         3.140978	     179.964785
	 D(1,9,2,4)       =         0.000325	       0.018608
	 D(1,9,2,15)      =        -3.141497	    -179.994534
	 D(1,9,10,5)      =         2.879631	     164.990715
	 D(1,9,10,6)      =        -0.262743	     -15.054075
	 D(2,4,11,3)      =         0.000301	       0.017261
	 D(2,4,11,13)     =        -3.141002	    -179.966135
	 D(2,9,1,3)       =        -0.000348	      -0.019945
	 D(2,9,1,14)      =        -3.141221	    -179.978731
	 D(2,9,10,5)      =        -0.261045	     -14.956782
	 D(2,9,10,6)      =         2.879766	     164.998428
	 D(3,1,9,10)      =        -3.141025	    -179.967461
	 D(3,11,4,17)     =         3.141223	     179.978848
	 D(3,11,13,23)    =         3.140828	     179.956172
	 D(4,2,9,10)      =         3.141002	     179.966149
	 D(4,11,3,16)     =         3.141593	     180.000000
	 D(4,11,13,23)    =        -0.001055	      -0.060434
	 D(5,7,12,8)      =        -0.000471	      -0.026975
	 D(5,7,12,22)     =         3.140847	     179.957305
	 D(5,10,6,8)      =        -0.001341	      -0.076808
	 D(5,10,6,19)     =        -3.141078	    -179.970529
	 D(6,8,12,7)      =        -0.000043	      -0.002474
	 D(6,8,12,22)     =        -3.141362	    -179.986758
	 D(6,10,5,7)      =         0.000846	       0.048489
	 D(6,10,5,18)     =        -3.140053	    -179.911764
	 D(7,5,10,9)      =        -3.141527	    -179.996253
	 D(7,12,8,21)     =        -3.141209	    -179.978020
	 D(8,6,10,9)      =         3.141033	     179.967923
	 D(8,12,7,20)     =         3.140476	     179.936044
	 D(9,1,3,11)      =         0.000348	       0.019955
	 D(9,1,3,16)      =        -3.141571	    -179.998735
	 D(9,2,4,11)      =        -0.000301	      -0.017270
	 D(9,2,4,17)      =        -3.141228	    -179.979086
	 D(9,10,5,18)     =         0.000759	       0.043494
	 D(9,10,6,19)     =         0.001295	       0.074202
	 D(10,5,7,12)     =         0.000059	       0.003405
	 D(10,5,7,20)     =        -3.140835	    -179.956563
	 D(10,6,8,12)     =         0.000948	       0.054313
	 D(10,6,8,21)     =        -3.141106	    -179.972141
	 D(10,9,1,14)     =         0.001287	       0.073752
	 D(10,9,2,15)     =        -0.000820	      -0.046992
	 D(11,3,1,14)     =         3.141234	     179.979432
	 D(11,4,2,15)     =         3.141517	     179.995641
	 D(12,7,5,18)     =         3.140971	     179.964354
	 D(12,8,6,19)     =         3.140719	     179.949919
	 D(13,11,3,16)    =        -0.000286	      -0.016400
	 D(13,11,4,17)    =        -0.000079	      -0.004548
	 D(14,1,3,16)     =        -0.000685	      -0.039257
	 D(15,2,4,17)     =         0.000590	       0.033826
	 D(18,5,7,20)     =         0.000077	       0.004386
	 D(19,6,8,21)     =        -0.001336	      -0.076535
	 D(20,7,12,22)    =        -0.001391	      -0.079676
	 D(21,8,12,22)    =         0.000658	       0.037695

	Current energy   :      -554.0970003273

	Generating empirical Hessian (Schlegel '84) for each fragment.
	Adding user-defined constraint: Fragment 1; Coordinate 66:
		Value =     2.879631; Fixed value    =     2.879793
		Force =     0.000081; Force constant =     0.500000
	Removing off-diagonal coupling between coordinate 66 and others.
	Taking RFO optimization step.
	Going to follow RFO solution 1.
	Using RFO vector 1.

	Determining step-restricting scale parameter for RS-RFO.
	Maximum step size allowed    0.10000

	 Iter      |step|        alpha        rfo_root  
	------------------------------------------------
	    0     0.22835       1.00000           1
	    1     0.17449       4.66492           1
	    2     0.13564      15.20418           1
	    3     0.11133      31.40939           1
	    4     0.10169      42.12003           1
	    5     0.10005      44.31198           1
	    6     0.10000      44.37650           1
	------------------------------------------------
	Norm of target step-size    0.10000
	Projected energy change by RFO approximation:        -0.0057381474

	Back-transformation to cartesian coordinates...
	Could not converge backtransformation.
	Using first guess instead.

	--- Internal Coordinate Step in ANG or DEG, aJ/ANG or AJ/DEG ---
	 ---------------------------------------------------------------------------
	   Coordinate                Previous        Force       Change         New 
	   ----------                --------       ------       ------       ------
	    1 R(1,3)          =      1.394038    -0.107907    -0.009723     1.384315
	    2 R(1,9)          =      1.394891     0.043493     0.004166     1.399057
	    3 R(1,14)         =      1.087431    -0.066357    -0.006982     1.080449
	    4 R(2,4)          =      1.394521    -0.108860    -0.009746     1.384775
	    5 R(2,9)          =      1.394821     0.033888     0.003282     1.398103
	    6 R(2,15)         =      1.087831    -0.066270    -0.007020     1.080811
	    7 R(3,11)         =      1.394821    -0.063502    -0.005891     1.388930
	    8 R(3,16)         =      1.086899    -0.047053    -0.005004     1.081895
	    9 R(4,11)         =      1.395407    -0.015012    -0.001495     1.393912
	   10 R(4,17)         =      1.086527    -0.036208    -0.003860     1.082667
	   11 R(5,7)          =      1.387597    -0.121528    -0.010728     1.376869
	   12 R(5,10)         =      1.391212     0.090583     0.008436     1.399648
	   13 R(5,18)         =      1.085704    -0.069384    -0.007238     1.078466
	   14 R(6,8)          =      1.388429    -0.126693    -0.011209     1.377221
	   15 R(6,10)         =      1.392036     0.085062     0.007822     1.399858
	   16 R(6,19)         =      1.085506    -0.068030    -0.007178     1.078329
	   17 R(7,12)         =      1.339805     0.015625     0.001140     1.340944
	   18 R(7,20)         =      1.081869    -0.024047    -0.002539     1.079330
	   19 R(8,12)         =      1.339996     0.014629     0.001036     1.341031
	   20 R(8,21)         =      1.080722    -0.017753    -0.001836     1.078886
	   21 R(9,10)         =      1.446444     0.103143     0.010414     1.456858
	   22 R(11,13)        =      1.360865    -0.120663    -0.009532     1.351332
	   23 R(12,22)        =      1.019465    -0.055557    -0.005141     1.014324
	   24 R(13,23)        =      0.970199    -0.058540    -0.004625     0.965574
	   25 B(1,3,11)       =    120.009056    -0.000019    -0.081216   119.927840
	   26 B(1,3,16)       =    119.662516     0.000206     0.404603   120.067119
	   27 B(1,9,2)        =    119.959722    -0.000808    -1.175790   118.783932
	   28 B(1,9,10)       =    120.043881     0.000393     0.572116   120.615997
	   29 B(2,4,11)       =    119.960108     0.000100     0.129204   120.089312
	   30 B(2,4,17)       =    119.723926    -0.000007     0.015503   119.739429
	   31 B(2,9,10)       =    119.996376     0.000415     0.603681   120.600057
	   32 B(3,1,9)        =    120.031219     0.000465     0.749000   120.780219
	   33 B(3,1,14)       =    119.144799    -0.000488    -0.851966   118.292833
	   34 B(3,11,4)       =    119.994870    -0.000009    -0.077394   119.917476
	   35 B(3,11,13)      =    120.008801    -0.001011    -1.502923   118.505878
	   36 B(4,2,9)        =    120.045019     0.000270     0.456111   120.501130
	   37 B(4,2,15)       =    119.099297    -0.000346    -0.620395   118.478902
	   38 B(4,11,13)      =    119.996326     0.001019     1.580320   121.576646
	   39 B(5,7,12)       =    120.128454    -0.000180    -0.324369   119.804085
	   40 B(5,7,20)       =    123.871806    -0.000029    -0.056515   123.815292
	   41 B(5,10,6)       =    119.921984    -0.001178    -1.746058   118.175926
	   42 B(5,10,9)       =    120.050641     0.000612     0.907494   120.958136
	   43 B(6,8,12)       =    120.058174    -0.000152    -0.290735   119.767440
	   44 B(6,8,21)       =    123.869461    -0.000038    -0.064265   123.805196
	   45 B(6,10,9)       =    120.027360     0.000566     0.838462   120.865822
	   46 B(7,5,10)       =    118.765314     0.000683     1.094861   119.860175
	   47 B(7,5,18)       =    119.761904    -0.000589    -1.013567   118.748337
	   48 B(7,12,8)       =    122.355816     0.000138     0.164342   122.520158
	   49 B(7,12,22)      =    118.836591    -0.000072    -0.085679   118.750912
	   50 B(8,6,10)       =    118.770217     0.000689     1.101920   119.872137
	   51 B(8,6,19)       =    119.748769    -0.000588    -1.007439   118.741329
	   52 B(8,12,22)      =    118.807592    -0.000067    -0.078661   118.728931
	   53 B(9,1,14)       =    120.823969     0.000024     0.102685   120.926654
	   54 B(9,2,15)       =    120.855683     0.000075     0.163814   121.019497
	   55 B(10,5,18)      =    121.472770    -0.000093    -0.081434   121.391336
	   56 B(10,6,19)      =    121.480930    -0.000101    -0.094429   121.386500
	   57 B(11,3,16)      =    120.328425    -0.000187    -0.323395   120.005030
	   58 B(11,4,17)      =    120.315955    -0.000094    -0.144696   120.171258
	   59 B(11,13,23)     =    110.322421    -0.000199    -0.371004   109.951416
	   60 B(12,7,20)      =    115.999728     0.000209     0.380893   116.380622
	   61 B(12,8,21)      =    116.072359     0.000190     0.354950   116.427309
	   62 D(1,3,11,4)     =     -0.018609     0.000003     0.037484     0.018875
	   63 D(1,3,11,13)    =    179.964785     0.000004     0.055212   180.019997
	   64 D(1,9,2,4)      =      0.018608     0.000002     0.005700     0.024307
	   65 D(1,9,2,15)     =   -179.994534    -0.000018    -0.234675  -180.229209
	   66 D(1,9,10,5)     =    164.990715    -0.000016    -0.116673   164.874042
	   67 D(1,9,10,6)     =    -15.054075    -0.000020    -0.198409   -15.252484
	   68 D(2,4,11,3)     =      0.017261     0.000004     0.049787     0.067048
	   69 D(2,4,11,13)    =   -179.966135     0.000003     0.032026  -179.934109
	   70 D(2,9,1,3)      =     -0.019945     0.000006     0.082189     0.062244
	   71 D(2,9,1,14)     =   -179.978731    -0.000014    -0.159630  -180.138361
	   72 D(2,9,10,5)     =    -14.956782    -0.000021    -0.212927   -15.169710
	   73 D(2,9,10,6)     =    164.998428    -0.000025    -0.294664   164.703764
	   74 D(3,1,9,10)     =   -179.967461     0.000000    -0.013263  -179.980724
	   75 D(3,11,4,17)    =    179.978848     0.000006     0.078334   180.057182
	   76 D(3,11,13,23)   =    179.956172    -0.000001    -0.011176   179.944995
	   77 D(4,2,9,10)     =    179.966149     0.000007     0.101119   180.067268
	   78 D(4,11,3,16)    =    180.000000     0.000005     0.055283   180.055283
	   79 D(4,11,13,23)   =     -0.060434     0.000000     0.006571    -0.053864
	   80 D(5,7,12,8)     =     -0.026975     0.000000    -0.002216    -0.029191
	   81 D(5,7,12,22)    =    179.957305     0.000001     0.008206   179.965511
	   82 D(5,10,6,8)     =     -0.076808    -0.000001    -0.029415    -0.106223
	   83 D(5,10,6,19)    =   -179.970529    -0.000015    -0.202840  -180.173369
	   84 D(6,8,12,7)     =     -0.002474     0.000001     0.013074     0.010600
	   85 D(6,8,12,22)    =   -179.986758     0.000000     0.002655  -179.984103
	   86 D(6,10,5,7)     =      0.048489     0.000002     0.039512     0.088001
	   87 D(6,10,5,18)    =   -179.911764    -0.000013    -0.143709  -180.055473
	   88 D(7,5,10,9)     =   -179.996253    -0.000002    -0.038952  -180.035205
	   89 D(7,12,8,21)    =   -179.978020     0.000005     0.070614  -179.907406
	   90 D(8,6,10,9)     =    179.967923     0.000003     0.048941   180.016865
	   91 D(8,12,7,20)    =    179.936044     0.000005     0.050602   179.986646
	   92 D(9,1,3,11)     =      0.019955    -0.000008    -0.103882    -0.083927
	   93 D(9,1,3,16)     =   -179.998735    -0.000009    -0.121623  -180.120358
	   94 D(9,2,4,11)     =     -0.017270    -0.000006    -0.071381    -0.088651
	   95 D(9,2,4,17)     =   -179.979086    -0.000008    -0.099742  -180.078828
	   96 D(9,10,5,18)    =      0.043494    -0.000017    -0.222173    -0.178679
	   97 D(9,10,6,19)    =      0.074202    -0.000012    -0.124484    -0.050282
	   98 D(10,5,7,12)    =      0.003405    -0.000002    -0.025335    -0.021930
	   99 D(10,5,7,20)    =   -179.956563    -0.000006    -0.082444  -180.039006
	  100 D(10,6,8,12)    =      0.054313    -0.000000     0.004411     0.058723
	  101 D(10,6,8,21)    =   -179.972141    -0.000005    -0.057501  -180.029642
	  102 D(10,9,1,14)    =      0.073752    -0.000019    -0.255081    -0.181329
	  103 D(10,9,2,15)    =     -0.046992    -0.000013    -0.139256    -0.186248
	  104 D(11,3,1,14)    =    179.979432     0.000011     0.132071   180.111504
	  105 D(11,4,2,15)    =    179.995641     0.000013     0.162879   180.158520
	  106 D(12,7,5,18)    =    179.964354     0.000013     0.153408   180.117761
	  107 D(12,8,6,19)    =    179.949919     0.000014     0.174181   180.124099
	  108 D(13,11,3,16)   =     -0.016400     0.000006     0.072804     0.056405
	  109 D(13,11,4,17)   =     -0.004548     0.000005     0.060573     0.056025
	  110 D(14,1,3,16)    =     -0.039257     0.000010     0.114330     0.075073
	  111 D(15,2,4,17)    =      0.033826     0.000011     0.134518     0.168343
	  112 D(18,5,7,20)    =      0.004386     0.000008     0.096299     0.100685
	  113 D(19,6,8,21)    =     -0.076535     0.000009     0.112269     0.035734
	  114 D(20,7,12,22)   =     -0.079676     0.000005     0.061024    -0.018652
	  115 D(21,8,12,22)   =      0.037695     0.000005     0.060196     0.097891
	 ---------------------------------------------------------------------------
	Successfully symmetrized geometry.
	 Forces used to impose fixed constraints are not included.
	  Forces zeroed: 66 

  ==> Convergence Check <==

  Measures of convergence in internal coordinates in au.
  Criteria marked as inactive (o), active & met (*), and active & unmet ( ).
  --------------------------------------------------------------------------------------------- ~
   Step     Total Energy     Delta E     MAX Force     RMS Force      MAX Disp      RMS Disp    ~
  --------------------------------------------------------------------------------------------- ~
    Convergence Criteria    1.00e-06 *    3.00e-04 *             o    1.20e-03 *             o  ~
  --------------------------------------------------------------------------------------------- ~
      1    -554.09700033   -5.54e+02      1.55e-02      5.35e-03 o    3.05e-02      9.31e-03 o  ~
  ---------------------------------------------------------------------------------------------

	Writing optimization data to binary file.
	Structure for next step:
	Cartesian Geometry (in Angstrom)
	    C    -1.2845948524   0.7292449048  -0.5568266664
	    C    -0.2924427542   0.1099879625   1.5474284867
	    C    -2.3555954075   1.2983594795   0.1105519360
	    C    -1.3640206843   0.6773133481   2.2163566407
	    C     2.0726153207  -0.7883086347   0.1177657759
	    C     0.8121750137  -0.7431501445  -1.9262888868
	    C     3.1221477952  -1.3530537863  -0.5716638036
	    C     1.8885005343  -1.3086417246  -2.5731885622
	    C    -0.2379756368   0.1278839081   0.1505018338
	    C     0.8876369610  -0.4696163005  -0.5554910993
	    C    -2.3991451840   1.2742378666   1.4985892377
	    N     3.0033143908  -1.5953326451  -1.8851749295
	    O    -3.4582287095   1.8378675280   2.1204918897
	    H    -1.2767986411   0.7645525341  -1.6366706760
	    H     0.4944881323  -0.3481262242   2.1296853810
	    H    -3.1578097600   1.7620823610  -0.4479363716
	    H    -1.3942234957   0.6553720722   3.2983795132
	    H     2.1873324313  -0.5990514496   1.1732804021
	    H    -0.0766362584  -0.5212980478  -2.4951376420
	    H     4.0632297271  -1.6231479579  -0.1173868731
	    H     1.8992986202  -1.5461192016  -3.6255590988
	    H     3.7865989871  -2.0113141255  -2.3773930525
	    H    -3.3629388719   1.7509973084   3.0774169772
			--------------------------
			 OPTKING Finished Execution 
			--------------------------

    Structure for next step:
    Molecular point group: c1
    Full point group: C1

    Geometry (in Angstrom), charge = 1, multiplicity = 1:

    C           -1.285294901735     0.729369415045    -0.556724084443
    C           -0.293142803555     0.110112472663     1.547531068740
    C           -2.356295456824     1.298483989754     0.110654517955
    C           -1.364720733567     0.677437858347     2.216459222662
    C            2.071915271334    -0.788184124469     0.117868357946
    C            0.811474964356    -0.743025634262    -1.926186304770
    C            3.121447745907    -1.352929276081    -0.571561221577
    C            1.887800484979    -1.308517214368    -2.573085980208
    C           -0.238675686068     0.128008418288     0.150604415805
    C            0.886936911730    -0.469491790247    -0.555388517268
    C           -2.399845233326     1.274362376810     1.498691819739
    N            3.002614341458    -1.595208134918    -1.885072347502
    O           -3.458928758816     1.837992038171     2.120594471713
    H           -1.277498690459     0.764677044297    -1.636568093968
    H            0.493788082978    -0.348001713999     2.129787963046
    H           -3.158509809362     1.762206871248    -0.447833789582
    H           -1.394923545014     0.655496582378     3.298482095230
    H            2.186632382006    -0.598926939418     1.173382984118
    H           -0.077336307740    -0.521173537548    -2.495035060016
    H            4.062529677804    -1.623023447742    -0.117284291092
    H            1.898598570891    -1.545994691361    -3.625456516784
    H            3.785898937830    -2.011189615281    -2.377290470497
    H           -3.363638921212     1.751121818652     3.077519559207

gradient() will perform analytic gradient computation.

*** tstart() called on gpu-2-9.local
*** at Sun Nov 12 08:03:42 2017

    SCF Algorithm Type (re)set to DF.

*** tstart() called on gpu-2-9.local
*** at Sun Nov 12 08:03:42 2017

   => Loading Basis Set <=

    Name: AUG-CC-PVTZ
    Role: ORBITAL
    Keyword: BASIS
    atoms 1-11  entry C          line   221 file /cbio/jclab/home/chayas/anaconda/envs/py35/share/psi4/basis/aug-cc-pvtz.gbs 
    atoms 12    entry N          line   267 file /cbio/jclab/home/chayas/anaconda/envs/py35/share/psi4/basis/aug-cc-pvtz.gbs 
    atoms 13    entry O          line   313 file /cbio/jclab/home/chayas/anaconda/envs/py35/share/psi4/basis/aug-cc-pvtz.gbs 
    atoms 14-23 entry H          line    34 file /cbio/jclab/home/chayas/anaconda/envs/py35/share/psi4/basis/aug-cc-pvtz.gbs 


         ---------------------------------------------------------
                                   SCF
            by Justin Turney, Rob Parrish, and Andy Simmonett
                              RHF Reference
                        8 Threads,   4768 MiB Core
         ---------------------------------------------------------

  ==> Geometry <==

    Molecular point group: c1
    Full point group: C1

    Geometry (in Angstrom), charge = 1, multiplicity = 1:

       Center              X                  Y                   Z               Mass       
    ------------   -----------------  -----------------  -----------------  -----------------
           C         -1.285294901735     0.729369415045    -0.556724084443    12.000000000000
           C         -0.293142803555     0.110112472663     1.547531068740    12.000000000000
           C         -2.356295456824     1.298483989754     0.110654517955    12.000000000000
           C         -1.364720733567     0.677437858347     2.216459222662    12.000000000000
           C          2.071915271334    -0.788184124469     0.117868357946    12.000000000000
           C          0.811474964356    -0.743025634262    -1.926186304770    12.000000000000
           C          3.121447745907    -1.352929276081    -0.571561221577    12.000000000000
           C          1.887800484979    -1.308517214368    -2.573085980208    12.000000000000
           C         -0.238675686068     0.128008418288     0.150604415805    12.000000000000
           C          0.886936911730    -0.469491790247    -0.555388517268    12.000000000000
           C         -2.399845233326     1.274362376810     1.498691819739    12.000000000000
           N          3.002614341458    -1.595208134918    -1.885072347502    14.003074004780
           O         -3.458928758816     1.837992038171     2.120594471713    15.994914619560
           H         -1.277498690459     0.764677044297    -1.636568093968     1.007825032070
           H          0.493788082978    -0.348001713999     2.129787963046     1.007825032070
           H         -3.158509809362     1.762206871248    -0.447833789582     1.007825032070
           H         -1.394923545014     0.655496582378     3.298482095230     1.007825032070
           H          2.186632382006    -0.598926939418     1.173382984118     1.007825032070
           H         -0.077336307740    -0.521173537548    -2.495035060016     1.007825032070
           H          4.062529677804    -1.623023447742    -0.117284291092     1.007825032070
           H          1.898598570891    -1.545994691361    -3.625456516784     1.007825032070
           H          3.785898937830    -2.011189615281    -2.377290470497     1.007825032070
           H         -3.363638921212     1.751121818652     3.077519559207     1.007825032070

  Running in c1 symmetry.

  Rotational constants: A =      0.09650  B =      0.01334  C =      0.01177 [cm^-1]
  Rotational constants: A =   2892.90787  B =    399.87842  C =    352.82454 [MHz]
  Nuclear repulsion =  713.060852626793576

  Charge       = 1
  Multiplicity = 1
  Electrons    = 90
  Nalpha       = 45
  Nbeta        = 45

  ==> Algorithm <==

  SCF Algorithm Type is DF.
  DIIS enabled.
  MOM disabled.
  Fractional occupation disabled.
  Guess Type is READ.
  Energy threshold   = 1.00e-10
  Density threshold  = 1.00e-10
  Integral threshold = 0.00e+00

  ==> Primary Basis <==

  Basis Set: AUG-CC-PVTZ
    Blend: AUG-CC-PVTZ
    Number of shells: 272
    Number of basis function: 828
    Number of Cartesian functions: 965
    Spherical Harmonics?: true
    Max angular momentum: 3

   => Loading Basis Set <=

    Name: (AUG-CC-PVTZ AUX)
    Role: JKFIT
    Keyword: DF_BASIS_SCF
    atoms 1-11  entry C          line   161 file /cbio/jclab/home/chayas/anaconda/envs/py35/share/psi4/basis/aug-cc-pvtz-jkfit.gbs 
    atoms 12    entry N          line   223 file /cbio/jclab/home/chayas/anaconda/envs/py35/share/psi4/basis/aug-cc-pvtz-jkfit.gbs 
    atoms 13    entry O          line   285 file /cbio/jclab/home/chayas/anaconda/envs/py35/share/psi4/basis/aug-cc-pvtz-jkfit.gbs 
    atoms 14-23 entry H          line    69 file /cbio/jclab/home/chayas/anaconda/envs/py35/share/psi4/basis/aug-cc-pvtz-jkfit.gbs 

  Reading orbitals from file 180, no projection.

  ==> Pre-Iterations <==

   -------------------------------------------------------
    Irrep   Nso     Nmo     Nalpha   Nbeta   Ndocc  Nsocc
   -------------------------------------------------------
     A        828     828       0       0       0       0
   -------------------------------------------------------
    Total     828     828      45      45      45       0
   -------------------------------------------------------

  ==> Integral Setup <==

  ==> DFJK: Density-Fitted J/K Matrices <==

    J tasked:                  Yes
    K tasked:                  Yes
    wK tasked:                  No
    OpenMP threads:              8
    Integrals threads:           8
    Memory (MB):              3576
    Algorithm:                Disk
    Integral Cache:           NONE
    Schwarz Cutoff:          1E-12
    Fitting Condition:       1E-12

   => Auxiliary Basis Set <=

  Basis Set: (AUG-CC-PVTZ AUX)
    Blend: AUG-CC-PVTZ-JKFIT
    Number of shells: 530
    Number of basis function: 1812
    Number of Cartesian functions: 2253
    Spherical Harmonics?: true
    Max angular momentum: 4

  Minimum eigenvalue in the overlap matrix is 4.9720067186E-07.
  Using Symmetric Orthogonalization.

  SCF Guess: Orbitals guess was supplied from a previous computation.

  ==> Iterations <==

                           Total Energy        Delta E     RMS |[F,P]|

   @DF-RHF iter   0:  -551.82358526846474   -5.51824e+02   5.18282e-04 
   @DF-RHF iter   1:  -551.67903126580791    1.44554e-01   1.50817e-04 
   @DF-RHF iter   2:  -551.67973282350897   -7.01558e-04   9.50852e-05 DIIS
   @DF-RHF iter   3:  -551.68033125456759   -5.98431e-04   1.47507e-05 DIIS
   @DF-RHF iter   4:  -551.68034319163871   -1.19371e-05   4.23048e-06 DIIS
   @DF-RHF iter   5:  -551.68034570287352   -2.51123e-06   1.62314e-06 DIIS
   @DF-RHF iter   6:  -551.68034621233642   -5.09463e-07   7.88269e-07 DIIS
   @DF-RHF iter   7:  -551.68034641640406   -2.04068e-07   4.12242e-07 DIIS
   @DF-RHF iter   8:  -551.68034648562627   -6.92222e-08   1.61052e-07 DIIS
   @DF-RHF iter   9:  -551.68034649307697   -7.45069e-09   5.16908e-08 DIIS
   @DF-RHF iter  10:  -551.68034649365836   -5.81394e-10   2.38627e-08 DIIS
   @DF-RHF iter  11:  -551.68034649373431   -7.59428e-11   6.59373e-09 DIIS
   @DF-RHF iter  12:  -551.68034649373135    2.95586e-12   2.53730e-09 DIIS
   @DF-RHF iter  13:  -551.68034649373669   -5.34328e-12   1.32323e-09 DIIS
   @DF-RHF iter  14:  -551.68034649372999    6.70752e-12   5.50288e-10 DIIS
   @DF-RHF iter  15:  -551.68034649373885   -8.86757e-12   2.25273e-10 DIIS
   @DF-RHF iter  16:  -551.68034649373340    5.45697e-12   7.91601e-11 DIIS

  ==> Post-Iterations <==

    Orbital Energies (a.u.)
    -----------------------

    Doubly Occupied:                                                      

       1A    -20.708483     2A    -15.826442     3A    -11.479385  
       4A    -11.479254     5A    -11.449648     6A    -11.437182  
       7A    -11.409846     8A    -11.409564     9A    -11.382175  
      10A    -11.379640    11A    -11.374736    12A    -11.357809  
      13A    -11.352049    14A     -1.528282    15A     -1.506642  
      16A     -1.317883    17A     -1.266506    18A     -1.236243  
      19A     -1.157194    20A     -1.155772    21A     -1.064426  
      22A     -1.055924    23A     -0.979512    24A     -0.960669  
      25A     -0.953793    26A     -0.873192    27A     -0.860914  
      28A     -0.854694    29A     -0.822015    30A     -0.799216  
      31A     -0.779667    32A     -0.772238    33A     -0.760479  
      34A     -0.735517    35A     -0.719983    36A     -0.711263  
      37A     -0.703762    38A     -0.686162    39A     -0.659511  
      40A     -0.643392    41A     -0.621289    42A     -0.569341  
      43A     -0.537892    44A     -0.474068    45A     -0.437490  

    Virtual:                                                              

      46A     -0.107087    47A     -0.082791    48A     -0.062401  
      49A     -0.061068    50A     -0.059080    51A     -0.046226  
      52A     -0.044208    53A     -0.039562    54A     -0.031524  
      55A     -0.025929    56A     -0.024998    57A     -0.021724  
      58A     -0.017911    59A     -0.007677    60A     -0.005429  
      61A     -0.001200    62A      0.005319    63A      0.006334  
      64A      0.009213    65A      0.017496    66A      0.019454  
      67A      0.021388    68A      0.024985    69A      0.026071  
      70A      0.030430    71A      0.032549    72A      0.034688  
      73A      0.036695    74A      0.040167    75A      0.048823  
      76A      0.049837    77A      0.056672    78A      0.059929  
      79A      0.063363    80A      0.065670    81A      0.070540  
      82A      0.073819    83A      0.076870    84A      0.079372  
      85A      0.085070    86A      0.086323    87A      0.087955  
      88A      0.096678    89A      0.101358    90A      0.105872  
      91A      0.108246    92A      0.114340    93A      0.120329  
      94A      0.126454    95A      0.130313    96A      0.133956  
      97A      0.135234    98A      0.137634    99A      0.142925  
     100A      0.146494   101A      0.150714   102A      0.155546  
     103A      0.159572   104A      0.165001   105A      0.165786  
     106A      0.170290   107A      0.171455   108A      0.174127  
     109A      0.178929   110A      0.184779   111A      0.188589  
     112A      0.190075   113A      0.196626   114A      0.198282  
     115A      0.207423   116A      0.210223   117A      0.211625  
     118A      0.217851   119A      0.221207   120A      0.224729  
     121A      0.225970   122A      0.228738   123A      0.230931  
     124A      0.234655   125A      0.236711   126A      0.243203  
     127A      0.245487   128A      0.249856   129A      0.254021  
     130A      0.255775   131A      0.265720   132A      0.271539  
     133A      0.274948   134A      0.282052   135A      0.283757  
     136A      0.286012   137A      0.290614   138A      0.296979  
     139A      0.304207   140A      0.304603   141A      0.306435  
     142A      0.310678   143A      0.314706   144A      0.319638  
     145A      0.325676   146A      0.328281   147A      0.330764  
     148A      0.335695   149A      0.336854   150A      0.338106  
     151A      0.340512   152A      0.345198   153A      0.350214  
     154A      0.353851   155A      0.355103   156A      0.359144  
     157A      0.365322   158A      0.366942   159A      0.369622  
     160A      0.374834   161A      0.379282   162A      0.383112  
     163A      0.387238   164A      0.389747   165A      0.392048  
     166A      0.393334   167A      0.394837   168A      0.399390  
     169A      0.405040   170A      0.408540   171A      0.411655  
     172A      0.416458   173A      0.419454   174A      0.421714  
     175A      0.431514   176A      0.432138   177A      0.436935  
     178A      0.439241   179A      0.446358   180A      0.448551  
     181A      0.451275   182A      0.458041   183A      0.462636  
     184A      0.465825   185A      0.471188   186A      0.481802  
     187A      0.494033   188A      0.496882   189A      0.502716  
     190A      0.507620   191A      0.510227   192A      0.514154  
     193A      0.525177   194A      0.533852   195A      0.538269  
     196A      0.538853   197A      0.545283   198A      0.550719  
     199A      0.561323   200A      0.565884   201A      0.570041  
     202A      0.576523   203A      0.576799   204A      0.584743  
     205A      0.587631   206A      0.589954   207A      0.594322  
     208A      0.596312   209A      0.606980   210A      0.616299  
     211A      0.620084   212A      0.626844   213A      0.632126  
     214A      0.637370   215A      0.642400   216A      0.643966  
     217A      0.647415   218A      0.655081   219A      0.659877  
     220A      0.669483   221A      0.677052   222A      0.681218  
     223A      0.686408   224A      0.700075   225A      0.703494  
     226A      0.707573   227A      0.713256   228A      0.718438  
     229A      0.723097   230A      0.723808   231A      0.734277  
     232A      0.735747   233A      0.737420   234A      0.743245  
     235A      0.746117   236A      0.749525   237A      0.759440  
     238A      0.762060   239A      0.766951   240A      0.773296  
     241A      0.776226   242A      0.779448   243A      0.783250  
     244A      0.786869   245A      0.789261   246A      0.797010  
     247A      0.800032   248A      0.805111   249A      0.805644  
     250A      0.808370   251A      0.813143   252A      0.815278  
[...]
	 B(4,11,13)       =         2.156272	     123.545304
	 B(5,7,12)        =         2.087789	     119.621524
	 B(5,7,20)        =         2.154434	     123.439956
	 B(5,10,6)        =         2.028099	     116.201537
	 B(5,10,9)        =         2.128524	     121.955449
	 B(6,8,12)        =         2.087850	     119.625019
	 B(6,8,21)        =         2.154304	     123.432531
	 B(6,10,9)        =         2.126497	     121.839291
	 B(7,5,10)        =         2.115845	     121.229007
	 B(7,5,18)        =         2.051986	     117.570162
	 B(7,12,8)        =         2.131036	     122.099379
	 B(7,12,22)       =         2.076098	     118.951677
	 B(8,6,10)        =         2.115738	     121.222832
	 B(8,6,19)        =         2.052373	     117.592336
	 B(8,12,22)       =         2.076050	     118.948921
	 B(9,1,14)        =         2.109008	     120.837253
	 B(9,2,15)        =         2.109701	     120.876936
	 B(10,5,18)       =         2.114985	     121.179718
	 B(10,6,19)       =         2.114780	     121.167950
	 B(11,3,16)       =         2.073832	     118.821800
	 B(11,4,17)       =         2.095152	     120.043348
	 B(11,13,23)      =         1.931066	     110.641951
	 B(12,7,20)       =         2.040938	     116.937135
	 B(12,8,21)       =         2.040996	     116.940480
	 D(1,3,11,4)      =         0.002684	       0.153767
	 D(1,3,11,13)     =        -3.137143	    -179.745032
	 D(1,9,2,4)       =         0.000043	       0.002466
	 D(1,9,2,15)      =         3.100007	     177.617300
	 D(1,9,10,5)      =         2.877547	     164.871291
	 D(1,9,10,6)      =        -0.276765	     -15.857483
	 D(2,4,11,3)      =         0.006551	       0.375367
	 D(2,4,11,13)     =        -3.136932	    -179.732953
	 D(2,9,1,3)       =         0.009322	       0.534096
	 D(2,9,1,14)      =         3.108695	     178.115118
	 D(2,9,10,5)      =        -0.282261	     -16.172390
	 D(2,9,10,6)      =         2.846612	     163.098836
	 D(3,1,9,10)      =         3.133208	     179.519613
	 D(3,11,4,17)     =        -3.127494	    -179.192181
	 D(3,11,13,23)    =        -3.137788	    -179.782003
	 D(4,2,9,10)      =        -3.123850	    -178.983427
	 D(4,11,3,16)     =        -3.131737	    -179.435312
	 D(4,11,13,23)    =         0.005648	       0.323587
	 D(5,7,12,8)      =        -0.001206	      -0.069120
	 D(5,7,12,22)     =         3.141366	     179.987025
	 D(5,10,6,8)      =        -0.005333	      -0.305532
	 D(5,10,6,19)     =         3.109545	     178.163793
	 D(6,8,12,7)      =         0.000725	       0.041545
	 D(6,8,12,22)     =         3.141338	     179.985402
	 D(6,10,5,7)      =         0.004850	       0.277896
	 D(6,10,5,18)     =         3.116560	     178.565733
	 D(7,5,10,9)      =         3.134400	     179.587880
	 D(7,12,8,21)     =        -3.132263	    -179.465423
	 D(8,6,10,9)      =        -3.134897	    -179.616386
	 D(8,12,7,20)     =        -3.135585	    -179.655769
	 D(9,1,3,11)      =        -0.010733	      -0.614937
	 D(9,1,3,16)      =         3.123520	     178.964535
	 D(9,2,4,11)      =        -0.007900	      -0.452618
	 D(9,2,4,17)      =         3.126157	     179.115607
	 D(9,10,5,18)     =        -0.037076	      -2.124283
	 D(9,10,6,19)     =        -0.020020	      -1.147062
	 D(10,5,7,12)     =        -0.001739	      -0.099611
	 D(10,5,7,20)     =         3.132147	     179.458781
	 D(10,6,8,12)     =         0.002708	       0.155136
	 D(10,6,8,21)     =         3.135108	     179.628462
	 D(10,9,1,14)     =        -0.050603	      -2.899364
	 D(10,9,2,15)     =        -0.023886	      -1.368593
	 D(11,3,1,14)     =        -3.111279	    -178.263129
	 D(11,4,2,15)     =        -3.109021	    -178.133796
	 D(12,7,5,18)     =        -3.114490	    -178.447143
	 D(12,8,6,19)     =        -3.113093	    -178.367070
	 D(13,11,3,16)    =         0.011622	       0.665889
	 D(13,11,4,17)    =         0.012209	       0.699500
	 D(14,1,3,16)     =         0.022975	       1.316343
	 D(15,2,4,17)     =         0.025036	       1.434430
	 D(18,5,7,20)     =         0.019395	       1.111249
	 D(19,6,8,21)     =         0.019308	       1.106256
	 D(20,7,12,22)    =         0.006988	       0.400377
	 D(21,8,12,22)    =         0.008350	       0.478434

	Current energy   :      -554.1020050976

	Energy change for the previous step:
		Projected    :        -0.0000013883
		Actual       :        -0.0000001821

	Performing BFGS update.
	Previous computed or guess Hessian on step 1.
	Steps to be used in Hessian update: 5 4
	Adding user-defined constraint: Fragment 1; Coordinate 66:
		Value =     2.877547; Fixed value    =     2.879790
		Force =     0.001402; Force constant =     0.625000
	Removing off-diagonal coupling between coordinate 66 and others.
	Taking RFO optimization step.
	Going to follow RFO solution 1.
	Using RFO vector 1.
	Norm of target step-size    0.00137
	Projected energy change by RFO approximation:        -0.0000000997

	Back-transformation to cartesian coordinates...
	Successfully converged to displaced geometry.

	--- Internal Coordinate Step in ANG or DEG, aJ/ANG or AJ/DEG ---
	 ---------------------------------------------------------------------------
	   Coordinate                Previous        Force       Change         New 
	   ----------                --------       ------       ------       ------
	    1 R(1,3)          =      1.376444    -0.000046    -0.000004     1.376440
	    2 R(1,9)          =      1.401239     0.000244     0.000033     1.401272
	    3 R(1,14)         =      1.078380    -0.000032    -0.000005     1.078375
	    4 R(2,4)          =      1.379055     0.000128     0.000019     1.379074
	    5 R(2,9)          =      1.399216    -0.000051    -0.000007     1.399209
	    6 R(2,15)         =      1.078410     0.000065     0.000013     1.078423
	    7 R(3,11)         =      1.393331     0.000055     0.000007     1.393338
	    8 R(3,16)         =      1.078569     0.000064     0.000012     1.078581
	    9 R(4,11)         =      1.393123    -0.000114    -0.000016     1.393107
	   10 R(4,17)         =      1.080318     0.000034     0.000007     1.080325
	   11 R(5,7)          =      1.370710     0.000118     0.000017     1.370727
	   12 R(5,10)         =      1.403525    -0.000100    -0.000015     1.403510
	   13 R(5,18)         =      1.076517     0.000071     0.000014     1.076531
	   14 R(6,8)          =      1.370770     0.000104     0.000016     1.370786
	   15 R(6,10)         =      1.403582     0.000080     0.000010     1.403592
	   16 R(6,19)         =      1.076457    -0.000048    -0.000007     1.076450
	   17 R(7,12)         =      1.343388    -0.000058    -0.000007     1.343380
	   18 R(7,20)         =      1.077288     0.000021     0.000004     1.077292
	   19 R(8,12)         =      1.343318    -0.000072    -0.000008     1.343309
	   20 R(8,21)         =      1.077294     0.000042     0.000008     1.077302
	   21 R(9,10)         =      1.444708     0.000351     0.000056     1.444765
	   22 R(11,13)        =      1.341700     0.000133     0.000018     1.341718
	   23 R(12,22)        =      1.011416     0.000028     0.000005     1.011421
	   24 R(13,23)        =      0.963975     0.000019     0.000003     0.963978
	   25 B(1,3,11)       =    120.059326     0.000000     0.000976   120.060301
	   26 B(1,3,16)       =    121.117569     0.000001     0.004878   121.122447
	   27 B(1,9,2)        =    118.071152     0.000000     0.000650   118.071801
	   28 B(1,9,10)       =    120.978157     0.000002     0.005443   120.983601
	   29 B(2,4,11)       =    120.067832    -0.000001    -0.002418   120.065414
	   30 B(2,4,17)       =    119.887409     0.000000     0.000482   119.887892
	   31 B(2,9,10)       =    120.942769    -0.000002    -0.005908   120.936861
	   32 B(3,1,9)        =    121.143201    -0.000001    -0.002362   121.140840
	   33 B(3,1,14)       =    117.977052     0.000001     0.004506   117.981558
	   34 B(3,11,4)       =    119.589297     0.000001     0.002047   119.591344
	   35 B(3,11,13)      =    116.865317    -0.000001    -0.002867   116.862450
	   36 B(4,2,9)        =    121.065368     0.000000     0.001371   121.066740
	   37 B(4,2,15)       =    118.016351     0.000000     0.002204   118.018554
	   38 B(4,11,13)      =    123.545304     0.000000     0.000820   123.546123
	   39 B(5,7,12)       =    119.621524     0.000000     0.001078   119.622603
	   40 B(5,7,20)       =    123.439956     0.000000     0.000735   123.440691
	   41 B(5,10,6)       =    116.201537     0.000000     0.001615   116.203151
	   42 B(5,10,9)       =    121.955449    -0.000002    -0.006811   121.948638
	   43 B(6,8,12)       =    119.625019     0.000000     0.000412   119.625431
	   44 B(6,8,21)       =    123.432531     0.000000     0.001312   123.433843
	   45 B(6,10,9)       =    121.839291     0.000002     0.004981   121.844273
	   46 B(7,5,10)       =    121.229007    -0.000000    -0.001557   121.227450
	   47 B(7,5,18)       =    117.570162     0.000001     0.002595   117.572757
	   48 B(7,12,8)       =    122.099379     0.000000    -0.000146   122.099232
	   49 B(7,12,22)      =    118.951677    -0.000000     0.000072   118.951749
	   50 B(8,6,10)       =    121.222832    -0.000000    -0.001443   121.221389
	   51 B(8,6,19)       =    117.592336     0.000000     0.000781   117.593118
	   52 B(8,12,22)      =    118.948921    -0.000000     0.000070   118.948991
	   53 B(9,1,14)       =    120.837253    -0.000000    -0.001448   120.835805
	   54 B(9,2,15)       =    120.876936    -0.000001    -0.003543   120.873392
	   55 B(10,5,18)      =    121.179718    -0.000000    -0.001294   121.178424
	   56 B(10,6,19)      =    121.167950     0.000000     0.000369   121.168319
	   57 B(11,3,16)      =    118.821800    -0.000001    -0.005979   118.815821
	   58 B(11,4,17)      =    120.043348     0.000000     0.001854   120.045202
	   59 B(11,13,23)     =    110.641951    -0.000000    -0.001104   110.640847
	   60 B(12,7,20)      =    116.937135    -0.000000    -0.001798   116.935337
	   61 B(12,8,21)      =    116.940480    -0.000000    -0.001742   116.938738
	   62 D(1,3,11,4)     =      0.153767    -0.000000    -0.007181     0.146586
	   63 D(1,3,11,13)    =   -179.745032    -0.000000    -0.007336  -179.752368
	   64 D(1,9,2,4)      =      0.002466     0.000000     0.014656     0.017122
	   65 D(1,9,2,15)     =    177.617300     0.000000     0.015633   177.632933
	   66 D(1,9,10,5)     =    164.871291     0.000000     0.002750   164.874041
	   67 D(1,9,10,6)     =    -15.857483     0.000000    -0.018029   -15.875512
	   68 D(2,4,11,3)     =      0.375367    -0.000000    -0.007680     0.367687
	   69 D(2,4,11,13)    =   -179.732953    -0.000000    -0.007517  -179.740470
	   70 D(2,9,1,3)      =      0.534096    -0.000000    -0.029744     0.504352
	   71 D(2,9,1,14)     =    178.115118    -0.000000    -0.009754   178.105364
	   72 D(2,9,10,5)     =    -16.172390     0.000000     0.015023   -16.157367
	   73 D(2,9,10,6)     =    163.098836     0.000000    -0.005756   163.093081
	   74 D(3,1,9,10)     =    179.519613    -0.000000    -0.017883   179.501731
	   75 D(3,11,4,17)    =   -179.192181     0.000000     0.004703  -179.187477
	   76 D(3,11,13,23)   =   -179.782003    -0.000000    -0.002552  -179.784555
	   77 D(4,2,9,10)     =   -178.983427     0.000000     0.002679  -178.980748
	   78 D(4,11,3,16)    =   -179.435312     0.000000     0.012189  -179.423123
	   79 D(4,11,13,23)   =      0.323587    -0.000000    -0.002715     0.320871
	   80 D(5,7,12,8)     =     -0.069120     0.000000     0.001904    -0.067216
	   81 D(5,7,12,22)    =    179.987025     0.000000     0.006878   179.993902
	   82 D(5,10,6,8)     =     -0.305532    -0.000000    -0.005757    -0.311289
	   83 D(5,10,6,19)    =    178.163793    -0.000000    -0.018992   178.144800
	   84 D(6,8,12,7)     =      0.041545     0.000000     0.005534     0.047079
	   85 D(6,8,12,22)    =    179.985402     0.000000     0.000560   179.985962
	   86 D(6,10,5,7)     =      0.277896     0.000000     0.013218     0.291113
	   87 D(6,10,5,18)    =    178.565733     0.000000     0.002937   178.568671
	   88 D(7,5,10,9)     =    179.587880    -0.000000    -0.006427   179.581452
	   89 D(7,12,8,21)    =   -179.465423     0.000000     0.007686  -179.457736
	   90 D(8,6,10,9)     =   -179.616386     0.000000     0.013954  -179.602432
	   91 D(8,12,7,20)    =   -179.655769    -0.000000    -0.000473  -179.656242
	   92 D(9,1,3,11)     =     -0.614937     0.000000     0.026295    -0.588642
	   93 D(9,1,3,16)     =    178.964535     0.000000     0.006424   178.970959
	   94 D(9,2,4,11)     =     -0.452618     0.000000     0.003694    -0.448924
	   95 D(9,2,4,17)     =    179.115607    -0.000000    -0.008663   179.106944
	   96 D(9,10,5,18)    =     -2.124283    -0.000000    -0.016708    -2.140990
	   97 D(9,10,6,19)    =     -1.147062     0.000000     0.000719    -1.146343
	   98 D(10,5,7,12)    =     -0.099611    -0.000000    -0.011624    -0.111236
	   99 D(10,5,7,20)    =    179.458781    -0.000000    -0.009095   179.449686
	  100 D(10,6,8,12)    =      0.155136    -0.000000    -0.003361     0.151775
	  101 D(10,6,8,21)    =    179.628462    -0.000000    -0.005677   179.622785
	  102 D(10,9,1,14)    =     -2.899364    -0.000000     0.002107    -2.897257
	  103 D(10,9,2,15)    =     -1.368593     0.000000     0.003657    -1.364937
	  104 D(11,3,1,14)    =   -178.263129     0.000000     0.006994  -178.256135
	  105 D(11,4,2,15)    =   -178.133796     0.000000     0.002877  -178.130919
	  106 D(12,7,5,18)    =   -178.447143    -0.000000    -0.001641  -178.448784
	  107 D(12,8,6,19)    =   -178.367070     0.000000     0.009421  -178.357649
	  108 D(13,11,3,16)   =      0.665889     0.000000     0.012034     0.677923
	  109 D(13,11,4,17)   =      0.699500     0.000000     0.004866     0.704366
	  110 D(14,1,3,16)    =      1.316343    -0.000000    -0.012877     1.303466
	  111 D(15,2,4,17)    =      1.434430    -0.000000    -0.009480     1.424950
	  112 D(18,5,7,20)    =      1.111249     0.000000     0.000888     1.112138
	  113 D(19,6,8,21)    =      1.106256     0.000000     0.007106     1.113361
	  114 D(20,7,12,22)   =      0.400377     0.000000     0.004500     0.404877
	  115 D(21,8,12,22)   =      0.478434     0.000000     0.002713     0.481147
	 ---------------------------------------------------------------------------
	Successfully symmetrized geometry.
	 Forces used to impose fixed constraints are not included.
	  Forces zeroed: 66 

  ==> Convergence Check <==

  Measures of convergence in internal coordinates in au.
  Criteria marked as inactive (o), active & met (*), and active & unmet ( ).
  ---------------------------------------------------------------------------------------------
   Step     Total Energy     Delta E     MAX Force     RMS Force      MAX Disp      RMS Disp   
  ---------------------------------------------------------------------------------------------
    Convergence Criteria    1.00e-06 *    3.00e-04 *             o    1.20e-03 *             o
  ---------------------------------------------------------------------------------------------
      6    -554.10200510   -1.82e-07 *    4.26e-05 *    9.17e-06 o    5.19e-04 *    1.27e-04 o  ~
  ---------------------------------------------------------------------------------------------


  **** Optimization is complete! (in 6 steps) ****

  ==> Optimization Summary <==

  Measures of convergence in internal coordinates in au.
  --------------------------------------------------------------------------------------------------------------- ~
   Step         Total Energy             Delta E       MAX Force       RMS Force        MAX Disp        RMS Disp  ~
  --------------------------------------------------------------------------------------------------------------- ~
      1    -554.097000327252   -554.097000327252      0.01547750      0.00535337      0.03047447      0.00931204  ~
      2    -554.100837231149     -0.003836903897      0.00727052      0.00211826      0.03016528      0.00931163  ~
      3    -554.101918817906     -0.001081586757      0.00168622      0.00043152      0.02376775      0.00631237  ~
      4    -554.102000839261     -0.000082021355      0.00074190      0.00011740      0.00427199      0.00121943  ~
      5    -554.102004915480     -0.000004076219      0.00009081      0.00002642      0.00145932      0.00032255  ~
      6    -554.102005097603     -0.000000182123      0.00004260      0.00000923      0.00051914      0.00012738  ~
  --------------------------------------------------------------------------------------------------------------- ~

	Writing optimization data to binary file.
	Final energy is   -554.1020050976026
	Final (previous) structure:
	Cartesian Geometry (in Angstrom)
	    C    -1.2833969672   0.7469932163  -0.5451197429
	    C    -0.2955210355   0.1166605966   1.5508968351
	    C    -2.3494079440   1.3083945197   0.1204985002
	    C    -1.3660834041   0.6676669654   2.2232670582
	    C     2.0826602502  -0.7814867712   0.1012896515
	    C     0.8186057948  -0.7532362956  -1.9188308990
	    C     3.1255534527  -1.3554766920  -0.5782360346
	    C     1.8788268246  -1.3271186205  -2.5712110708
	    C    -0.2293254809   0.1433942143   0.1535027819
	    C     0.8828246379  -0.4538679949  -0.5490514137
	    C    -2.4006196150   1.2719945944   1.5124118663
	    N     3.0012319788  -1.6130836852  -1.8908188091
	    O    -3.4710148759   1.8336196516   2.0946414305
	    H    -1.2638273314   0.8192970441  -1.6208947443
	    H     0.4716761952  -0.3697436237   2.1320911873
	    H    -3.1524479534   1.7874769518  -0.4170123082
	    H    -1.4046247546   0.6237491360   3.3020041470
	    H     2.2271290404  -0.5660627888   1.1460908003
	    H    -0.0740264196  -0.5626820926  -2.4894949459
	    H     4.0643041583  -1.6135166486  -0.1170285202
	    H     1.8662103808  -1.5769819194  -3.6190526424
	    H     3.7771531835  -2.0366140466  -2.3822768170
	    H    -3.4130772054   1.7611735038   3.0541428105
	Saving final (previous) structure.
			--------------------------
			 OPTKING Finished Execution 
			--------------------------

    Final optimized geometry and variables:
    Molecular point group: c1
    Full point group: C1

    Geometry (in Angstrom), charge = 1, multiplicity = 1:

    C           -1.283396967212     0.746993216338    -0.545119742922
    C           -0.295521035522     0.116660596552     1.550896835103
    C           -2.349407943980     1.308394519716     0.120498500177
    C           -1.366083404122     0.667666965388     2.223267058221
    C            2.082660250178    -0.781486771225     0.101289651526
    C            0.818605794826    -0.753236295631    -1.918830898991
    C            3.125553452679    -1.355476691968    -0.578236034590
    C            1.878826824557    -1.327118620493    -2.571211070819
    C           -0.229325480858     0.143394214330     0.153502781929
    C            0.882824637949    -0.453867994872    -0.549051413696
    C           -2.400619614994     1.271994594442     1.512411866321
    N            3.001231978822    -1.613083685247    -1.890818809060
    O           -3.471014875856     1.833619651580     2.094641430466
    H           -1.263827331406     0.819297044145    -1.620894744268
    H            0.471676195234    -0.369743623704     2.132091187316
    H           -3.152447953396     1.787476951750    -0.417012308201
    H           -1.404624754584     0.623749135961     3.302004146973
    H            2.227129040385    -0.566062788763     1.146090800293
    H           -0.074026419561    -0.562682092641    -2.489494945882
    H            4.064304158331    -1.613516648619    -0.117028520176
    H            1.866210380849    -1.576981919401    -3.619052642383
    H            3.777153183531    -2.036614046641    -2.382276816988
    H           -3.413077205406     1.761173503828     3.054142810476

	Cleaning optimization helper files.

*** Psi4 exiting successfully. Buy a developer a beer!
