
    -----------------------------------------------------------------------
          Psi4: An Open-Source Ab Initio Electronic Structure Package
                               Psi4 1.1 release

                         Git: Rev {HEAD} add49b9 


    R. M. Parrish, L. A. Burns, D. G. A. Smith, A. C. Simmonett,
    A. E. DePrince III, E. G. Hohenstein, U. Bozkaya, A. Yu. Sokolov,
    R. Di Remigio, R. M. Richard, J. F. Gonthier, A. M. James,
    H. R. McAlexander, A. Kumar, M. Saitow, X. Wang, B. P. Pritchard,
    P. Verma, H. F. Schaefer III, K. Patkowski, R. A. King, E. F. Valeev,
    F. A. Evangelista, J. M. Turney, T. D. Crawford, and C. D. Sherrill,
    J. Chem. Theory Comput. in press (2017).
    (doi: 10.1021/acs.jctc.7b00174)

    -----------------------------------------------------------------------


    Psi4 started on: Saturday, 11 November 2017 06:12PM

    Process ID:   2856
    PSIDATADIR: /cbio/jclab/home/chayas/anaconda/envs/py35/share/psi4
    Memory:     500.0 MiB
    Threads:    8
    
  ==> Input File <==

--------------------------------------------------------------------------

memory 5 Gb

molecule phepyrF {
  symmetry C1
  0 1 
  C      1.885   -1.036   -0.112
  C      0.807   -0.463   0.561
  C      2.921   -1.631   0.608
  C      0.764   -0.484   1.955
  C      4.861   -3.104   2.099
  C      4.090   -2.030   4.108
  C      5.875   -3.670   2.855
  C      5.138   -2.644   4.774
  C      2.878   -1.652   2.002
  C      3.955   -2.270   2.745
  C      1.800   -1.079   2.676
  N      6.037   -3.461   4.180
  F      1.744   -1.089   4.016
  H      1.918   -1.020   -1.198
  H      0.000   -0.000   -0.000
  H      3.755   -2.073   0.068
  H      -0.076   -0.038   2.480
  H      4.789   -3.314   1.036
  H      3.402   -1.386   4.646
  H      6.608   -4.326   2.397
  H      5.286   -2.491   5.838
  units Angstrom
}

dih_string = "3 9 10 5 345"
set optking fixed_dihedral = $dih_string

optimize('MP2/aug-cc-PVTZ')
--------------------------------------------------------------------------

  Memory set to   4.657 GiB by Python driver.
gradient() will perform analytic gradient computation.

*** tstart() called on gpu-2-14.local
*** at Sat Nov 11 18:12:59 2017

    SCF Algorithm Type (re)set to DF.

*** tstart() called on gpu-2-14.local
*** at Sat Nov 11 18:12:59 2017

   => Loading Basis Set <=

    Name: AUG-CC-PVTZ
    Role: ORBITAL
    Keyword: BASIS
    atoms 1-11  entry C          line   221 file /cbio/jclab/home/chayas/anaconda/envs/py35/share/psi4/basis/aug-cc-pvtz.gbs 
    atoms 12    entry N          line   267 file /cbio/jclab/home/chayas/anaconda/envs/py35/share/psi4/basis/aug-cc-pvtz.gbs 
    atoms 13    entry F          line   359 file /cbio/jclab/home/chayas/anaconda/envs/py35/share/psi4/basis/aug-cc-pvtz.gbs 
    atoms 14-21 entry H          line    34 file /cbio/jclab/home/chayas/anaconda/envs/py35/share/psi4/basis/aug-cc-pvtz.gbs 


         ---------------------------------------------------------
                                   SCF
            by Justin Turney, Rob Parrish, and Andy Simmonett
                              RHF Reference
                        8 Threads,   4768 MiB Core
         ---------------------------------------------------------

  ==> Geometry <==

    Molecular point group: c1
    Full point group: C1

    Geometry (in Angstrom), charge = 0, multiplicity = 1:

       Center              X                  Y                   Z               Mass       
    ------------   -----------------  -----------------  -----------------  -----------------
           C         -1.369521352132     0.840024915331    -2.662898533461    12.000000000000
           C         -2.447521352132     1.413024915331    -1.989898533461    12.000000000000
           C         -0.333521352132     0.245024915331    -1.942898533461    12.000000000000
           C         -2.490521352132     1.392024915331    -0.595898533461    12.000000000000
           C          1.606478647868    -1.227975084669    -0.451898533461    12.000000000000
           C          0.835478647868    -0.153975084669     1.557101466539    12.000000000000
           C          2.620478647868    -1.793975084669     0.304101466539    12.000000000000
           C          1.883478647868    -0.767975084669     2.223101466539    12.000000000000
           C         -0.376521352132     0.224024915331    -0.548898533461    12.000000000000
           C          0.700478647868    -0.393975084669     0.194101466539    12.000000000000
           C         -1.454521352132     0.797024915331     0.125101466539    12.000000000000
           N          2.782478647868    -1.584975084669     1.629101466539    14.003074004780
           F         -1.510521352132     0.787024915331     1.465101466539    18.998403224000
           H         -1.336521352132     0.856024915331    -3.748898533461     1.007825032070
           H         -3.254521352132     1.876024915331    -2.550898533461     1.007825032070
           H          0.500478647868    -0.196975084669    -2.482898533461     1.007825032070
           H         -3.330521352132     1.838024915331    -0.070898533461     1.007825032070
           H          1.534478647868    -1.437975084669    -1.514898533461     1.007825032070
           H          0.147478647868     0.490024915331     2.095101466539     1.007825032070
           H          3.353478647868    -2.449975084669    -0.153898533461     1.007825032070
           H          2.031478647868    -0.614975084669     3.287101466539     1.007825032070

  Running in c1 symmetry.

  Rotational constants: A =      0.06386  B =      0.01882  C =      0.01463 [cm^-1]
  Rotational constants: A =   1914.51163  B =    564.12193  C =    438.69182 [MHz]
  Nuclear repulsion =  718.990269180721384

  Charge       = 0
  Multiplicity = 1
  Electrons    = 90
  Nalpha       = 45
  Nbeta        = 45

  ==> Algorithm <==

  SCF Algorithm Type is DF.
  DIIS enabled.
  MOM disabled.
  Fractional occupation disabled.
  Guess Type is SAD.
  Energy threshold   = 1.00e-10
  Density threshold  = 1.00e-10
  Integral threshold = 0.00e+00

  ==> Primary Basis <==

  Basis Set: AUG-CC-PVTZ
    Blend: AUG-CC-PVTZ
    Number of shells: 254
    Number of basis function: 782
    Number of Cartesian functions: 915
    Spherical Harmonics?: true
    Max angular momentum: 3

   => Loading Basis Set <=

    Name: (AUG-CC-PVTZ AUX)
    Role: JKFIT
    Keyword: DF_BASIS_SCF
    atoms 1-11  entry C          line   161 file /cbio/jclab/home/chayas/anaconda/envs/py35/share/psi4/basis/aug-cc-pvtz-jkfit.gbs 
    atoms 12    entry N          line   223 file /cbio/jclab/home/chayas/anaconda/envs/py35/share/psi4/basis/aug-cc-pvtz-jkfit.gbs 
    atoms 13    entry F          line   347 file /cbio/jclab/home/chayas/anaconda/envs/py35/share/psi4/basis/aug-cc-pvtz-jkfit.gbs 
    atoms 14-21 entry H          line    69 file /cbio/jclab/home/chayas/anaconda/envs/py35/share/psi4/basis/aug-cc-pvtz-jkfit.gbs 

  ==> Pre-Iterations <==

   -------------------------------------------------------
    Irrep   Nso     Nmo     Nalpha   Nbeta   Ndocc  Nsocc
   -------------------------------------------------------
     A        782     782       0       0       0       0
   -------------------------------------------------------
    Total     782     782      45      45      45       0
   -------------------------------------------------------

  ==> Integral Setup <==

  ==> DFJK: Density-Fitted J/K Matrices <==

    J tasked:                  Yes
    K tasked:                  Yes
    wK tasked:                  No
    OpenMP threads:              8
    Integrals threads:           8
    Memory (MB):              3576
    Algorithm:                Disk
    Integral Cache:           NONE
    Schwarz Cutoff:          1E-12
    Fitting Condition:       1E-12

   => Auxiliary Basis Set <=

  Basis Set: (AUG-CC-PVTZ AUX)
    Blend: AUG-CC-PVTZ-JKFIT
    Number of shells: 502
    Number of basis function: 1720
    Number of Cartesian functions: 2143
    Spherical Harmonics?: true
    Max angular momentum: 4

  Minimum eigenvalue in the overlap matrix is 5.9265191691E-07.
  Using Symmetric Orthogonalization.

  SCF Guess: Superposition of Atomic Densities via on-the-fly atomic UHF.

  ==> Iterations <==

                           Total Energy        Delta E     RMS |[F,P]|

   @DF-RHF iter   0:  -581.96812723425990   -5.81968e+02   1.92210e-02 
   @DF-RHF iter   1:  -574.92875679278086    7.03937e+00   2.15900e-03 
   @DF-RHF iter   2:  -575.20197240091852   -2.73216e-01   1.01544e-03 DIIS
   @DF-RHF iter   3:  -575.25074556187167   -4.87732e-02   4.53948e-04 DIIS
   @DF-RHF iter   4:  -575.26876001298524   -1.80145e-02   1.38702e-04 DIIS
   @DF-RHF iter   5:  -575.27044585264252   -1.68584e-03   5.42558e-05 DIIS
   @DF-RHF iter   6:  -575.27074529625179   -2.99444e-04   1.66650e-05 DIIS
   @DF-RHF iter   7:  -575.27077467947913   -2.93832e-05   4.09575e-06 DIIS
   @DF-RHF iter   8:  -575.27077669285495   -2.01338e-06   1.76529e-06 DIIS
   @DF-RHF iter   9:  -575.27077716223425   -4.69379e-07   7.53787e-07 DIIS
   @DF-RHF iter  10:  -575.27077730876340   -1.46529e-07   4.10074e-07 DIIS
   @DF-RHF iter  11:  -575.27077735580747   -4.70441e-08   1.81266e-07 DIIS
   @DF-RHF iter  12:  -575.27077736507499   -9.26752e-09   6.33566e-08 DIIS
   @DF-RHF iter  13:  -575.27077736608328   -1.00829e-09   2.59589e-08 DIIS
   @DF-RHF iter  14:  -575.27077736624472   -1.61435e-10   1.17094e-08 DIIS
   @DF-RHF iter  15:  -575.27077736626086   -1.61435e-11   6.23597e-09 DIIS
   @DF-RHF iter  16:  -575.27077736626165   -7.95808e-13   2.84207e-09 DIIS
   @DF-RHF iter  17:  -575.27077736626200   -3.41061e-13   9.99005e-10 DIIS
   @DF-RHF iter  18:  -575.27077736628121   -1.92131e-11   5.08183e-10 DIIS
   @DF-RHF iter  19:  -575.27077736627325    7.95808e-12   1.64594e-10 DIIS
   @DF-RHF iter  20:  -575.27077736626961    3.63798e-12   6.84407e-11 DIIS

  ==> Post-Iterations <==

    Orbital Energies (a.u.)
    -----------------------

    Doubly Occupied:                                                      

       1A    -26.330102     2A    -15.562442     3A    -11.345018  
       4A    -11.273053     5A    -11.270445     6A    -11.265213  
       7A    -11.263217     8A    -11.260516     9A    -11.259865  
      10A    -11.258175    11A    -11.252690    12A    -11.238890  
      13A    -11.229127    14A     -1.654148    15A     -1.248213  
      16A     -1.185713    17A     -1.114137    18A     -1.039822  
      19A     -1.031394    20A     -1.026395    21A     -0.894080  
      22A     -0.878131    23A     -0.844719    24A     -0.824756  
      25A     -0.761238    26A     -0.734534    27A     -0.721000  
      28A     -0.716875    29A     -0.672151    30A     -0.661541  
      31A     -0.650032    32A     -0.625932    33A     -0.609050  
      34A     -0.591999    35A     -0.583922    36A     -0.551703  
      37A     -0.542013    38A     -0.523348    39A     -0.517294  
      40A     -0.500503    41A     -0.416081    42A     -0.415558  
      43A     -0.355371    44A     -0.346581    45A     -0.323150  

    Virtual:                                                              

      46A      0.022932    47A      0.028774    48A      0.033855  
      49A      0.040403    50A      0.043598    51A      0.047918  
      52A      0.057637    53A      0.059360    54A      0.063090  
      55A      0.078471    56A      0.084411    57A      0.085399  
      58A      0.090105    59A      0.092147    60A      0.100549  
      61A      0.104731    62A      0.106107    63A      0.109577  
      64A      0.114805    65A      0.115452    66A      0.116848  
      67A      0.117994    68A      0.126212    69A      0.131052  
      70A      0.134611    71A      0.135330    72A      0.139219  
      73A      0.140825    74A      0.142450    75A      0.147381  
      76A      0.150008    77A      0.153232    78A      0.157339  
      79A      0.164507    80A      0.167697    81A      0.174410  
      82A      0.181477    83A      0.185879    84A      0.186711  
      85A      0.189278    86A      0.196765    87A      0.206241  
      88A      0.211591    89A      0.217034    90A      0.222515  
      91A      0.229031    92A      0.231456    93A      0.234657  
      94A      0.238980    95A      0.245003    96A      0.249733  
      97A      0.252113    98A      0.256102    99A      0.260412  
     100A      0.261939   101A      0.266896   102A      0.269034  
     103A      0.278468   104A      0.284206   105A      0.286546  
     106A      0.290245   107A      0.294192   108A      0.297794  
     109A      0.301064   110A      0.303562   111A      0.306993  
     112A      0.314138   113A      0.317199   114A      0.321362  
     115A      0.324040   116A      0.332649   117A      0.336573  
     118A      0.340893   119A      0.344683   120A      0.350525  
     121A      0.352040   122A      0.359170   123A      0.367610  
     124A      0.370577   125A      0.378333   126A      0.386029  
     127A      0.390122   128A      0.394323   129A      0.402786  
     130A      0.407222   131A      0.413041   132A      0.413926  
     133A      0.417947   134A      0.424235   135A      0.429620  
     136A      0.434183   137A      0.436942   138A      0.439315  
     139A      0.442764   140A      0.443650   141A      0.451326  
     142A      0.454126   143A      0.458053   144A      0.462482  
     145A      0.466140   146A      0.471248   147A      0.472805  
     148A      0.473846   149A      0.477926   150A      0.484086  
     151A      0.491730   152A      0.493296   153A      0.494673  
     154A      0.498265   155A      0.500888   156A      0.502709  
     157A      0.505753   158A      0.509098   159A      0.513670  
     160A      0.518889   161A      0.523237   162A      0.524877  
     163A      0.531157   164A      0.533714   165A      0.537579  
     166A      0.544103   167A      0.547137   168A      0.548692  
     169A      0.555889   170A      0.559012   171A      0.561290  
     172A      0.566046   173A      0.577444   174A      0.579054  
     175A      0.584261   176A      0.590174   177A      0.596633  
     178A      0.598618   179A      0.612281   180A      0.617256  
     181A      0.622831   182A      0.629561   183A      0.636021  
     184A      0.644288   185A      0.649955   186A      0.656441  
     187A      0.658302   188A      0.665470   189A      0.678775  
     190A      0.684235   191A      0.690042   192A      0.696393  
     193A      0.699646   194A      0.703941   195A      0.709565  
     196A      0.713262   197A      0.717356   198A      0.720821  
     199A      0.732344   200A      0.738400   201A      0.738839  
     202A      0.745466   203A      0.747695   204A      0.754736  
     205A      0.757361   206A      0.765792   207A      0.772933  
     208A      0.788357   209A      0.790346   210A      0.801073  
     211A      0.807007   212A      0.808417   213A      0.812517  
     214A      0.818854   215A      0.829079   216A      0.833938  
     217A      0.841252   218A      0.850827   219A      0.858171  
     220A      0.863258   221A      0.868495   222A      0.870108  
     223A      0.875268   224A      0.882023   225A      0.886241  
     226A      0.889607   227A      0.894800   228A      0.896058  
     229A      0.899957   230A      0.905056   231A      0.908395  
     232A      0.914825   233A      0.917450   234A      0.917968  
     235A      0.923310   236A      0.931443   237A      0.938718  
     238A      0.948660   239A      0.952893   240A      0.959945  
     241A      0.962454   242A      0.969425   243A      0.971035  
     244A      0.974469   245A      0.980331   246A      0.981157  
     247A      0.984947   248A      0.987878   249A      0.992502  
     250A      1.000402   251A      1.004312   252A      1.009359  
     253A      1.015668   254A      1.017170   255A      1.024399  
     256A      1.026808   257A      1.028562   258A      1.035947  
     259A      1.044026   260A      1.045362   261A      1.047892  
     262A      1.060111   263A      1.061429   264A      1.068123  
     265A      1.073653   266A      1.080684   267A      1.084766  
     268A      1.089958   269A      1.090373   270A      1.092555  
     271A      1.097651   272A      1.102239   273A      1.110711  
     274A      1.116105   275A      1.119920   276A      1.126107  
     277A      1.129632   278A      1.135188   279A      1.136905  
     280A      1.144333   281A      1.158696   282A      1.167973  
     283A      1.168988   284A      1.174934   285A      1.177872  
     286A      1.180686   287A      1.188720   288A      1.188881  
     289A      1.197192   290A      1.197911   291A      1.206091  
     292A      1.210349   293A      1.211974   294A      1.213796  
     295A      1.226705   296A      1.228254   297A      1.233090  
     298A      1.243634   299A      1.248492   300A      1.257862  
     301A      1.261341   302A      1.271053   303A      1.275682  
     304A      1.280041   305A      1.283106   306A      1.292998  
     307A      1.296385   308A      1.307501   309A      1.307560  
     310A      1.310698   311A      1.317812   312A      1.325267  
     313A      1.332289   314A      1.336579   315A      1.353092  
     316A      1.355172   317A      1.363897   318A      1.369371  
     319A      1.379874   320A      1.386959   321A      1.390164  
     322A      1.393772   323A      1.398995   324A      1.414701  
     325A      1.426095   326A      1.431956   327A      1.440229  
     328A      1.441296   329A      1.453426   330A      1.468516  
     331A      1.477664   332A      1.485376   333A      1.499127  
     334A      1.509333   335A      1.520146   336A      1.522651  
     337A      1.528348   338A      1.532883   339A      1.545237  
     340A      1.548534   341A      1.566597   342A      1.576223  
     343A      1.580098   344A      1.584619   345A      1.598252  
     346A      1.606757   347A      1.610770   348A      1.625405  
     349A      1.636482   350A      1.643314   351A      1.655959  
     352A      1.659741   353A      1.664119   354A      1.670711  
     355A      1.678226   356A      1.687607   357A      1.696366  
     358A      1.704746   359A      1.706893   360A      1.715163  
     361A      1.719522   362A      1.733505   363A      1.737093  
     364A      1.743603   365A      1.751615   366A      1.763786  
     367A      1.769231   368A      1.785660   369A      1.790450  
     370A      1.799019   371A      1.805598   372A      1.808847  
     373A      1.821206   374A      1.823545   375A      1.824893  
     376A      1.845574   377A      1.849612   378A      1.859309  
     379A      1.872373   380A      1.879692   381A      1.889127  
     382A      1.892717   383A      1.906926   384A      1.913288  
     385A      1.917345   386A      1.930178   387A      1.937933  
     388A      1.943772   389A      1.955483   390A      1.966687  
     391A      1.973387   392A      1.976722   393A      1.983580  
     394A      1.991975   395A      1.999658   396A      2.002709  
     397A      2.015017   398A      2.015783   399A      2.024781  
     400A      2.028708   401A      2.033185   402A      2.039242  
     403A      2.044295   404A      2.057382   405A      2.062684  
     406A      2.077341   407A      2.082814   408A      2.091991  
     409A      2.097045   410A      2.104723   411A      2.106804  
     412A      2.112892   413A      2.119922   414A      2.127736  
     415A      2.135803   416A      2.158306   417A      2.167781  
     418A      2.169717   419A      2.177399   420A      2.179435  
     421A      2.183710   422A      2.192688   423A      2.202267  
     424A      2.208845   425A      2.218712   426A      2.227806  
     427A      2.232239   428A      2.252096   429A      2.257324  
     430A      2.267994   431A      2.279242   432A      2.285771  
     433A      2.295454   434A      2.303819   435A      2.313850  
     436A      2.325963   437A      2.334854   438A      2.338094  
     439A      2.355821   440A      2.360414   441A      2.370068  
     442A      2.387323   443A      2.397044   444A      2.400174  
     445A      2.414106   446A      2.426932   447A      2.446817  
     448A      2.457720   449A      2.464496   450A      2.480526  
     451A      2.489804   452A      2.500045   453A      2.509632  
     454A      2.526388   455A      2.539244   456A      2.555178  
     457A      2.559609   458A      2.579087   459A      2.592487  
     460A      2.609053   461A      2.616057   462A      2.649338  
     463A      2.654436   464A      2.660415   465A      2.680799  
     466A      2.709984   467A      2.724638   468A      2.747655  
     469A      2.752722   470A      2.777276   471A      2.789923  
     472A      2.806950   473A      2.807721   474A      2.844727  
     475A      2.846704   476A      2.890748   477A      2.907926  
     478A      2.912413   479A      2.979729   480A      3.002447  
     481A      3.011623   482A      3.040298   483A      3.058491  
     484A      3.069324   485A      3.073196   486A      3.096261  
     487A      3.120302   488A      3.132548   489A      3.150846  
     490A      3.169991   491A      3.188283   492A      3.189248  
     493A      3.203518   494A      3.220424   495A      3.231152  
     496A      3.232620   497A      3.247724   498A      3.286861  
     499A      3.294276   500A      3.297465   501A      3.312120  
     502A      3.325496   503A      3.339318   504A      3.347608  
     505A      3.357763   506A      3.359559   507A      3.370924  
     508A      3.383791   509A      3.403616   510A      3.405522  
     511A      3.416450   512A      3.423217   513A      3.442268  
     514A      3.446894   515A      3.460702   516A      3.463592  
     517A      3.468822   518A      3.482583   519A      3.493103  
     520A      3.506380   521A      3.511216   522A      3.519344  
     523A      3.521385   524A      3.527990   525A      3.538982  
     526A      3.545435   527A      3.548647   528A      3.555038  
     529A      3.568786   530A      3.574740   531A      3.580068  
     532A      3.589349   533A      3.603704   534A      3.611735  
     535A      3.622681   536A      3.632861   537A      3.656475  
     538A      3.661354   539A      3.664992   540A      3.677911  
     541A      3.682208   542A      3.694483   543A      3.702499  
     544A      3.706635   545A      3.713467   546A      3.723471  
     547A      3.729216   548A      3.739782   549A      3.757944  
     550A      3.767113   551A      3.777216   552A      3.783181  
     553A      3.791173   554A      3.799756   555A      3.807727  
     556A      3.817435   557A      3.827452   558A      3.833800  
     559A      3.850325   560A      3.856578   561A      3.864368  
     562A      3.868773   563A      3.875294   564A      3.885070  
     565A      3.889796   566A      3.893755   567A      3.905066  
     568A      3.921847   569A      3.929063   570A      3.936513  
     571A      3.939105   572A      3.950508   573A      3.962561  
     574A      3.967657   575A      3.972083   576A      3.978753  
     577A      3.992867   578A      3.995413   579A      4.004497  
     580A      4.015470   581A      4.021074   582A      4.021989  
     583A      4.027933   584A      4.052904   585A      4.058224  
     586A      4.061900   587A      4.071399   588A      4.098310  
     589A      4.106424   590A      4.110957   591A      4.114776  
     592A      4.128622   593A      4.144450   594A      4.153809  
     595A      4.171448   596A      4.172966   597A      4.187113  
     598A      4.191007   599A      4.194712   600A      4.204585  
     601A      4.216253   602A      4.227692   603A      4.232839  
     604A      4.242016   605A      4.250597   606A      4.258850  
     607A      4.277564   608A      4.285722   609A      4.291489  
     610A      4.301632   611A      4.309912   612A      4.318442  
     613A      4.332003   614A      4.338695   615A      4.347984  
     616A      4.351789   617A      4.356270   618A      4.370678  
     619A      4.380217   620A      4.387532   621A      4.401322  
     622A      4.413116   623A      4.422525   624A      4.425778  
     625A      4.439937   626A      4.449395   627A      4.460848  
     628A      4.477207   629A      4.479660   630A      4.493026  
     631A      4.505699   632A      4.509279   633A      4.522953  
     634A      4.530056   635A      4.537524   636A      4.559554  
     637A      4.564483   638A      4.591665   639A      4.606455  
     640A      4.620223   641A      4.626628   642A      4.633940  
     643A      4.638114   644A      4.667143   645A      4.675971  
     646A      4.698602   647A      4.711245   648A      4.716372  
     649A      4.726920   650A      4.740676   651A      4.759394  
     652A      4.771710   653A      4.789247   654A      4.800159  
     655A      4.810080   656A      4.827856   657A      4.830590  
     658A      4.858513   659A      4.878976   660A      4.883372  
     661A      4.918782   662A      4.925688   663A      4.940687  
     664A      4.949860   665A      4.961941   666A      4.987028  
     667A      4.994002   668A      5.009162   669A      5.011683  
     670A      5.031044   671A      5.038475   672A      5.047517  
     673A      5.060143   674A      5.071166   675A      5.093470  
     676A      5.109075   677A      5.120823   678A      5.125650  
     679A      5.128473   680A      5.140269   681A      5.143603  
     682A      5.152260   683A      5.168084   684A      5.172561  
     685A      5.188298   686A      5.198012   687A      5.207439  
     688A      5.219892   689A      5.239162   690A      5.243444  
     691A      5.258926   692A      5.312215   693A      5.320214  
     694A      5.326714   695A      5.342034   696A      5.355183  
     697A      5.377591   698A      5.379906   699A      5.419800  
     700A      5.426188   701A      5.462656   702A      5.464785  
     703A      5.471401   704A      5.491433   705A      5.545998  
     706A      5.562038   707A      5.573774   708A      5.583457  
     709A      5.599906   710A      5.652607   711A      5.668805  
     712A      5.677319   713A      5.701100   714A      5.722468  
     715A      5.752957   716A      5.767555   717A      5.800574  
     718A      5.820014   719A      5.846714   720A      5.855073  
     721A      5.867832   722A      5.887976   723A      5.895721  
     724A      5.916849   725A      5.987850   726A      6.000051  
     727A      6.083924   728A      6.085916   729A      6.173343  
     730A      6.195651   731A      6.206633   732A      6.227627  
     733A      6.233989   734A      6.297966   735A      6.307040  
     736A      6.381882   737A      6.397856   738A      6.450305  
     739A      6.476355   740A      6.493268   741A      6.577189  
     742A      6.587130   743A      6.639044   744A      6.685731  
     745A      6.724722   746A      6.739575   747A      6.754426  
     748A      6.822399   749A      6.891888   750A      6.963958  
     751A      6.995619   752A      7.017909   753A      7.084785  
     754A      7.099978   755A      7.299415   756A      7.463839  
     757A      7.506434   758A      9.142522   759A      9.205812  
     760A      9.297446   761A      9.349774   762A      9.433200  
     763A      9.543980   764A      9.556810   765A      9.627095  
     766A      9.711600   767A      9.740998   768A     10.085140  
     769A     10.105737   770A     15.577666   771A     16.253185  
     772A     16.671826   773A     16.827667   774A     17.263867  
     775A     18.533310   776A     18.891181   777A     19.240824  
     778A     19.749356   779A     20.245544   780A     20.471162  
     781A     20.872745   782A     21.462590  

    Final Occupation by Irrep:
              A 
    DOCC [    45 ]

  Energy converged.

  @DF-RHF Final Energy:  -575.27077736626961

   => Energetics <=

    Nuclear Repulsion Energy =            718.9902691807213841
    One-Electron Energy =               -2209.7818187220000254
    Two-Electron Energy =                 915.5207721750089149
    DFT Exchange-Correlation Energy =       0.0000000000000000
    Empirical Dispersion Energy =           0.0000000000000000
    PCM Polarization Energy =               0.0000000000000000
    EFP Energy =                            0.0000000000000000
    Total Energy =                       -575.2707773662696127



Properties will be evaluated at   0.000000,   0.000000,   0.000000 Bohr

Properties computed using the SCF density matrix

  Nuclear Dipole Moment: (a.u.)
     X:     1.0849      Y:    -0.4002      Z:    -6.2056

  Electronic Dipole Moment: (a.u.)
     X:    -1.9902      Y:     0.9433      Z:     5.0569

  Dipole Moment: (a.u.)
     X:    -0.9053      Y:     0.5431      Z:    -1.1487     Total:     1.5602

  Dipole Moment: (Debye)
     X:    -2.3011      Y:     1.3804      Z:    -2.9198     Total:     3.9656


*** tstop() called on gpu-2-14.local at Sat Nov 11 18:20:18 2017
Module time:
	user time   =    1261.06 seconds =      21.02 minutes
	system time =      48.21 seconds =       0.80 minutes
	total time  =        439 seconds =       7.32 minutes
Total time:
	user time   =    1261.07 seconds =      21.02 minutes
	system time =      48.21 seconds =       0.80 minutes
	total time  =        439 seconds =       7.32 minutes

  //>>>>>>>>>>>>>>>>>>>>>>>>>>>>>>>>>>>//
  //               DFMP2               //
  //<<<<<<<<<<<<<<<<<<<<<<<<<<<<<<<<<<<//

   => Loading Basis Set <=

    Name: (AUG-CC-PVTZ AUX)
    Role: RIFIT
    Keyword: DF_BASIS_MP2
    atoms 1-11  entry C          line   147 file /cbio/jclab/home/chayas/anaconda/envs/py35/share/psi4/basis/aug-cc-pvtz-ri.gbs 
    atoms 12    entry N          line   205 file /cbio/jclab/home/chayas/anaconda/envs/py35/share/psi4/basis/aug-cc-pvtz-ri.gbs 
    atoms 13    entry F          line   321 file /cbio/jclab/home/chayas/anaconda/envs/py35/share/psi4/basis/aug-cc-pvtz-ri.gbs 
    atoms 14-21 entry H          line    29 file /cbio/jclab/home/chayas/anaconda/envs/py35/share/psi4/basis/aug-cc-pvtz-ri.gbs 

	 --------------------------------------------------------
	                          DF-MP2                         
	      2nd-Order Density-Fitted Moller-Plesset Theory     
	              RMP2 Wavefunction,   8 Threads             
	                                                         
	        Rob Parrish, Justin Turney, Andy Simmonett,      
	           Ed Hohenstein, and C. David Sherrill          
	 --------------------------------------------------------

   => Auxiliary Basis Set <=

  Basis Set: (AUG-CC-PVTZ AUX)
    Blend: AUG-CC-PVTZ-RI
    Number of shells: 476
    Number of basis function: 1746
    Number of Cartesian functions: 2208
    Spherical Harmonics?: true
    Max angular momentum: 4

	 --------------------------------------------------------
	                 NBF =   782, NAUX =  1746
	 --------------------------------------------------------
	   CLASS    FOCC     OCC    AOCC    AVIR     VIR    FVIR
	   PAIRS       0      45      45     737     737       0
	 --------------------------------------------------------


         ------------------------------------------------------------
                                     CPHF                           
                                  Rob Parrish                       
         ------------------------------------------------------------

  ==> Geometry <==

    Molecular point group: c1
    Full point group: C1

    Geometry (in Angstrom), charge = 0, multiplicity = 1:

       Center              X                  Y                   Z               Mass       
    ------------   -----------------  -----------------  -----------------  -----------------
           C         -1.369521352132     0.840024915331    -2.662898533461    12.000000000000
           C         -2.447521352132     1.413024915331    -1.989898533461    12.000000000000
           C         -0.333521352132     0.245024915331    -1.942898533461    12.000000000000
           C         -2.490521352132     1.392024915331    -0.595898533461    12.000000000000
           C          1.606478647868    -1.227975084669    -0.451898533461    12.000000000000
           C          0.835478647868    -0.153975084669     1.557101466539    12.000000000000
           C          2.620478647868    -1.793975084669     0.304101466539    12.000000000000
           C          1.883478647868    -0.767975084669     2.223101466539    12.000000000000
           C         -0.376521352132     0.224024915331    -0.548898533461    12.000000000000
           C          0.700478647868    -0.393975084669     0.194101466539    12.000000000000
           C         -1.454521352132     0.797024915331     0.125101466539    12.000000000000
           N          2.782478647868    -1.584975084669     1.629101466539    14.003074004780
           F         -1.510521352132     0.787024915331     1.465101466539    18.998403224000
           H         -1.336521352132     0.856024915331    -3.748898533461     1.007825032070
           H         -3.254521352132     1.876024915331    -2.550898533461     1.007825032070
           H          0.500478647868    -0.196975084669    -2.482898533461     1.007825032070
           H         -3.330521352132     1.838024915331    -0.070898533461     1.007825032070
           H          1.534478647868    -1.437975084669    -1.514898533461     1.007825032070
           H          0.147478647868     0.490024915331     2.095101466539     1.007825032070
           H          3.353478647868    -2.449975084669    -0.153898533461     1.007825032070
           H          2.031478647868    -0.614975084669     3.287101466539     1.007825032070

  Nuclear repulsion =  718.990269180721384
  Reference energy  = -575.270777366269613

  ==> Basis Set <==

  Basis Set: AUG-CC-PVTZ
    Blend: AUG-CC-PVTZ
    Number of shells: 254
    Number of basis function: 782
    Number of Cartesian functions: 915
    Spherical Harmonics?: true
    Max angular momentum: 3

  ==> CGRSolver (by Rob Parrish) <==

   Number of roots    =         1
   Preconditioning    =    JACOBI
   Convergence cutoff =     1E-06
   Maximum iterations =       100

  ==> CPHFRHamiltonian (by Rob Parrish) <== 

  ==> DFJK: Density-Fitted J/K Matrices <==

    J tasked:                  Yes
    K tasked:                  Yes
    wK tasked:                  No
    OpenMP threads:              8
    Integrals threads:           8
    Memory (MB):              3576
    Algorithm:                Disk
    Integral Cache:           NONE
    Schwarz Cutoff:          1E-12
    Fitting Condition:       1E-12

   => Auxiliary Basis Set <=

  Basis Set: (AUG-CC-PVTZ AUX)
    Blend: AUG-CC-PVTZ-JKFIT
    Number of shells: 502
    Number of basis function: 1720
    Number of Cartesian functions: 2143
    Spherical Harmonics?: true
    Max angular momentum: 4

  ==> CPHF Iterations <==

  => Iterations <=

             Iter  Converged  Remaining    Residual
  CGR           1          0          1   9.804E-02
  CGR           2          0          1   2.977E-02
  CGR           3          0          1   1.991E-02
  CGR           4          0          1   9.777E-03
  CGR           5          0          1   3.932E-03
  CGR           6          0          1   1.532E-03
  CGR           7          0          1   4.873E-04
  CGR           8          0          1   2.040E-04
  CGR           9          0          1   1.032E-04
  CGR          10          0          1   4.166E-05
  CGR          11          0          1   1.555E-05
  CGR          12          0          1   5.109E-06
  CGR          13          0          1   1.637E-06
  CGR          14          1          0   5.730E-07

    CGRSolver converged.

  ==> DFCorrGrad: Density-Fitted Correlated Gradients <==

    OpenMP threads:              8
    Integrals threads:           8
    Memory (MB):              3576
    Schwarz Cutoff:          0E+00
    Fitting Condition:       1E-12

   => Auxiliary Basis Set <=

  Basis Set: (AUG-CC-PVTZ AUX)
    Blend: AUG-CC-PVTZ-JKFIT
    Number of shells: 502
    Number of basis function: 1720
    Number of Cartesian functions: 2143
    Spherical Harmonics?: true
    Max angular momentum: 4

	-----------------------------------------------------------
	 ==================> DF-MP2 Energies <==================== 
	-----------------------------------------------------------
	 Reference Energy          =    -575.2707773662696127 [Eh]
	 Singles Energy            =      -0.0000000000000000 [Eh]
	 Same-Spin Energy          =      -0.6099079801981742 [Eh]
	 Opposite-Spin Energy      =      -1.8346581358429408 [Eh]
	 Correlation Energy        =      -2.4445661160411150 [Eh]
	 Total Energy              =    -577.7153434823106863 [Eh]
	-----------------------------------------------------------
	 ================> DF-SCS-MP2 Energies <================== 
	-----------------------------------------------------------
	 SCS Same-Spin Scale       =       0.3333333333333333 [-]
	 SCS Opposite-Spin Scale   =       1.2000000000000000 [-]
	 SCS Same-Spin Energy      =      -0.2033026600660580 [Eh]
	 SCS Opposite-Spin Energy  =      -2.2015897630115289 [Eh]
	 SCS Correlation Energy    =      -2.4048924230775870 [Eh]
	 SCS Total Energy          =    -577.6756697893472392 [Eh]
	-----------------------------------------------------------


  -Total Gradient:
     Atom            X                  Y                   Z
    ------   -----------------  -----------------  -----------------
       1       -0.003028385019     0.002086105331     0.000428618973
       2       -0.003018132182     0.001930479496    -0.002619363887
       3        0.016254078381    -0.008408293438     0.008190561710
       4        0.000862585153    -0.000024922196    -0.005135804129
       5       -0.007377559348     0.003085835179    -0.007383174286
       6       -0.013169652926     0.004587220722    -0.010103475065
       7       -0.004434659071     0.000053316145    -0.010018124852
       8       -0.012154211104     0.009332915027     0.004126269838
       9       -0.004321645480     0.002350379620    -0.005143060975
      10        0.004088477366    -0.001780710624     0.001805464103
      11        0.011114720015    -0.009023240091     0.029376381102
      12        0.011716941787    -0.006415946522     0.006371087980
      13        0.019492144384    -0.004416376423     0.005074645524
      14        0.000119614793    -0.000171977923    -0.005304828635
      15       -0.003495491737     0.001967965287    -0.003843051439
      16        0.005607846762    -0.004673214989    -0.005136906739
      17       -0.004801960738     0.002633798642     0.000915484826
      18       -0.000893578893     0.000795096238    -0.007700641062
      19       -0.015774883698     0.007958932633     0.003721990364
      20        0.002296393245    -0.001617675901    -0.000518786112
      21        0.000917358312    -0.000249686209     0.002896712763


*** tstop() called on gpu-2-14.local at Sat Nov 11 18:48:58 2017
Module time:
	user time   =    5408.15 seconds =      90.14 minutes
	system time =     105.33 seconds =       1.76 minutes
	total time  =       2159 seconds =      35.98 minutes
Total time:
	user time   =    5408.16 seconds =      90.14 minutes
	system time =     105.33 seconds =       1.76 minutes
	total time  =       2159 seconds =      35.98 minutes

			-----------------------------------------
			 OPTKING 2.0: for geometry optimizations 
			  - R.A. King,  Bethel University        
			-----------------------------------------

	Internal coordinates to be generated automatically.
	Detected frag 1 with atoms:  1 2 3 4 5 6 7 8 9 10 11 12 13 14 15 16 17 18 19 20
	 21
	---Fragment 1 Bond Connectivity---
	 1 : 2 3 14
	 2 : 1 4 15
	 3 : 1 9 16
	 4 : 2 11 17
	 5 : 7 10 18
	 6 : 8 10 19
	 7 : 5 12 20
	 8 : 6 12 21
	 9 : 3 10 11
	 10 : 5 6 9
	 11 : 4 9 13
	 12 : 7 8
	 13 : 11
	 14 : 1
	 15 : 2
	 16 : 3
	 17 : 4
	 18 : 5
	 19 : 6
	 20 : 7
	 21 : 8

	Assuming in current code that numbering for constraints corresponds to unified fragment.
	Fixed dihedral atom list: 
	     3     9    10     5
	---Fragment 1 Geometry and Gradient---
	 C          -2.5880202887        1.5874170348       -5.0321489479
	 C          -4.6251450599        2.6702301089       -3.7603632605
	 C          -0.6302640150        0.4630299857       -3.6715461322
	 C          -4.7064032836        2.6305458601       -1.1260850312
	 C           3.0358046828       -2.3205366080       -0.8539644681
	 C           1.5788258343       -0.2909707413        2.9424953329
	 C           4.9519869815       -3.3901215992        0.5746684884
	 C           3.5592588216       -1.4512625869        4.2010529374
	 C          -0.7115222387        0.4233457369       -1.0372679030
	 C           1.3237128064       -0.7445050132        0.3667986137
	 C          -2.7486470100        1.5061588111        0.2364075106
	 N           5.2581226151       -2.9951688375        3.0785556144
	 F          -2.8544716734        1.4872615497        2.7686405286
	 H          -2.5256593263        1.6176526529       -7.0843915282
	 H          -6.1501540492        3.5451733084       -4.8204996210
	 H           0.9457675798       -0.3722289650       -4.6919982440
	 H          -6.2937732353        3.4733637154       -0.1339788115
	 H           2.8997444012       -2.7173790959       -2.8627433474
	 H           0.2786942549        0.9260128883        3.9591679924
	 H           6.3371562369       -4.6297819424       -0.2908260805
	 H           3.8389382893       -1.1621344886        6.2117215428
	            -0.0030283850        0.0020861053        0.0004286190
	            -0.0030181322        0.0019304795       -0.0026193639
	             0.0162540784       -0.0084082934        0.0081905617
	             0.0008625852       -0.0000249222       -0.0051358041
	            -0.0073775593        0.0030858352       -0.0073831743
	            -0.0131696529        0.0045872207       -0.0101034751
	            -0.0044346591        0.0000533161       -0.0100181249
	            -0.0121542111        0.0093329150        0.0041262698
	            -0.0043216455        0.0023503796       -0.0051430610
	             0.0040884774       -0.0017807106        0.0018054641
	             0.0111147200       -0.0090232401        0.0293763811
	             0.0117169418       -0.0064159465        0.0063710880
	             0.0194921444       -0.0044163764        0.0050746455
	             0.0001196148       -0.0001719779       -0.0053048286
	            -0.0034954917        0.0019679653       -0.0038430514
	             0.0056078468       -0.0046732150       -0.0051369067
	            -0.0048019607        0.0026337986        0.0009154848
	            -0.0008935789        0.0007950962       -0.0077006411
	            -0.0157748837        0.0079589326        0.0037219904
	             0.0022963932       -0.0016176759       -0.0005187861
	             0.0009173583       -0.0002496862        0.0028967128

	Previous optimization step data not found.  Starting new optimization.

	---Fragment 1 Intrafragment Coordinates---
	 - Coordinate -           - BOHR/RAD -       - ANG/DEG -
	 R(1,2)           =         2.634350	       1.394038
	 R(1,3)           =         2.635962	       1.394891
	 R(1,14)          =         2.053412	       1.086619
	 R(2,4)           =         2.635830	       1.394821
	 R(2,15)          =         2.053063	       1.086434
	 R(3,9)           =         2.635830	       1.394821
	 R(3,16)          =         2.054959	       1.087437
	 R(4,11)          =         2.636938	       1.395407
	 R(4,17)          =         2.052891	       1.086343
	 R(5,7)           =         2.618541	       1.385672
	 R(5,10)          =         2.627812	       1.390578
	 R(5,18)          =         2.052118	       1.085934
	 R(6,8)           =         2.617701	       1.385228
	 R(6,10)          =         2.627735	       1.390537
	 R(6,19)          =         2.050613	       1.085138
	 R(7,12)          =         2.553264	       1.351129
	 R(7,20)          =         2.050496	       1.085076
	 R(8,12)          =         2.555344	       1.352230
	 R(8,21)          =         2.050513	       1.085085
	 R(9,10)          =         2.734494	       1.447032
	 R(9,11)          =         2.635263	       1.394521
	 R(11,13)         =         2.534514	       1.341207
	 B(1,2,4)         =         2.094553	     120.009056
	 B(1,2,15)        =         2.094721	     120.018646
	 B(1,3,9)         =         2.093692	     119.959722
	 B(1,3,16)        =         2.079074	     119.122177
	 B(2,1,3)         =         2.094940	     120.031219
	 B(2,1,14)        =         2.094311	     119.995189
	 B(2,4,11)        =         2.094306	     119.994870
	 B(2,4,17)        =         2.095140	     120.042665
	 B(3,1,14)        =         2.093934	     119.973570
	 B(3,9,10)        =         2.090528	     119.778448
	 B(3,9,11)        =         2.095181	     120.045019
	 B(4,2,15)        =         2.093912	     119.972298
	 B(4,11,9)        =         2.093699	     119.960108
	 B(4,11,13)       =         2.081063	     119.236128
	 B(5,7,12)        =         2.164685	     124.027340
	 B(5,7,20)        =         2.107137	     120.730073
	 B(5,10,6)        =         2.089340	     119.710366
	 B(5,10,9)        =         2.097319	     120.167504
	 B(6,8,12)        =         2.164682	     124.027150
	 B(6,8,21)        =         2.108466	     120.806200
	 B(6,10,9)        =         2.096524	     120.121991
	 B(7,5,10)        =         2.058157	     117.923710
	 B(7,5,18)        =         2.098545	     120.237774
	 B(7,12,8)        =         2.031441	     116.392995
	 B(8,6,10)        =         2.058064	     117.918395
	 B(8,6,19)        =         2.099434	     120.288732
	 B(9,3,16)        =         2.110419	     120.918077
	 B(9,11,13)       =         2.108422	     120.803676
	 B(10,5,18)       =         2.126483	     121.838511
	 B(10,6,19)       =         2.125684	     121.792738
	 B(10,9,11)       =         2.097476	     120.176533
	 B(11,4,17)       =         2.093740	     119.962450
	 B(12,7,20)       =         2.011360	     115.242451
	 B(12,8,21)       =         2.010036	     115.166592
	 D(1,2,4,11)      =        -0.000325	      -0.018609
	 D(1,2,4,17)      =        -3.141151	    -179.974682
	 D(1,3,9,10)      =        -3.141334	    -179.985190
	 D(1,3,9,11)      =         0.000325	       0.018608
	 D(2,1,3,9)       =        -0.000348	      -0.019945
	 D(2,1,3,16)      =        -3.140969	    -179.964243
	 D(2,4,11,9)      =         0.000301	       0.017261
	 D(2,4,11,13)     =         3.140029	     179.910408
	 D(3,1,2,4)       =         0.000348	       0.019955
	 D(3,1,2,15)      =        -3.141142	    -179.974167
	 D(3,9,10,5)      =        -0.261337	     -14.973508
	 D(3,9,10,6)      =         2.877881	     164.890410
	 D(3,9,11,4)      =        -0.000301	      -0.017270
	 D(3,9,11,13)     =        -3.139999	    -179.908714
	 D(4,2,1,14)      =         3.141002	     179.966134
	 D(4,11,9,10)     =         3.141358	     179.986543
	 D(5,7,12,8)      =        -0.000543	      -0.031125
	 D(5,10,6,8)      =        -0.001332	      -0.076323
	 D(5,10,6,19)     =        -3.140597	    -179.942947
	 D(5,10,9,11)     =         2.880189	     165.022689
	 D(6,8,12,7)      =         0.000337	       0.019290
	 D(6,10,5,7)      =         0.001147	       0.065723
	 D(6,10,5,18)     =        -3.139979	    -179.907518
	 D(6,10,9,11)     =        -0.263778	     -15.113392
	 D(7,5,10,9)      =         3.140374	     179.930203
	 D(7,12,8,21)     =         3.140393	     179.931274
	 D(8,6,10,9)      =        -3.140561	    -179.940865
	 D(8,12,7,20)     =         3.138712	     179.834930
	 D(9,3,1,14)      =        -3.141002	    -179.966136
	 D(9,10,5,18)     =        -0.000751	      -0.043038
	 D(9,10,6,19)     =         0.003360	       0.192511
	 D(9,11,4,17)     =         3.141128	     179.973370
	 D(10,5,7,12)     =        -0.000191	      -0.010954
	 D(10,5,7,20)     =        -3.139324	    -179.870009
	 D(10,6,8,12)     =         0.000591	       0.033843
	 D(10,6,8,21)     =        -3.139383	    -179.873409
	 D(10,9,3,16)     =        -0.000731	      -0.041910
	 D(10,9,11,13)    =         0.001660	       0.095099
	 D(11,4,2,15)     =         3.141165	     179.975516
	 D(11,9,3,16)     =         3.140927	     179.961888
	 D(12,7,5,18)     =         3.140942	     179.962732
	 D(12,8,6,19)     =         3.139892	     179.902558
	 D(13,11,4,17)    =        -0.002330	      -0.133484
	 D(14,1,2,15)     =        -0.000488	      -0.027988
	 D(14,1,3,16)     =         0.001563	       0.089566
	 D(15,2,4,17)     =         0.000339	       0.019443
	 D(18,5,7,20)     =         0.001810	       0.103678
	 D(19,6,8,21)     =        -0.000082	      -0.004694
	 R(6,13)          =         4.779797	       2.529360

	Current energy   :      -577.7153434823

	Generating empirical Hessian (Schlegel '84) for each fragment.
	Adding user-defined constraint: Fragment 1; Coordinate 67:
		Value =    -0.261337; Fixed value    =    -0.261799
		Force =    -0.000231; Force constant =     0.500000
	Removing off-diagonal coupling between coordinate 67 and others.
	Taking RFO optimization step.
	Going to follow RFO solution 1.
	Using RFO vector 1.

	Determining step-restricting scale parameter for RS-RFO.
	Maximum step size allowed    0.10000

	 Iter      |step|        alpha        rfo_root  
	------------------------------------------------
	    0     0.45407       1.00000           1
	    1     0.29544       3.73974           1
	    2     0.20065      10.66960           1
	    3     0.14511      24.83976           1
	    4     0.11507      44.64316           1
	    5     0.10264      59.19620           1
	    6     0.10011      62.93091           1
	    7     0.10000      63.09556           1
	------------------------------------------------
	Norm of target step-size    0.10000
	Projected energy change by RFO approximation:        -0.0064340822

	Back-transformation to cartesian coordinates...
	Could not converge backtransformation.
	Using first guess instead.

	--- Internal Coordinate Step in ANG or DEG, aJ/ANG or AJ/DEG ---
	 ---------------------------------------------------------------------------
	   Coordinate                Previous        Force       Change         New 
	   ----------                --------       ------       ------       ------
	    1 R(1,2)          =      1.394038    -0.052088    -0.003962     1.390076
	    2 R(1,3)          =      1.394891    -0.064044    -0.004693     1.390198
	    3 R(1,14)         =      1.086619    -0.043689    -0.003689     1.082930
	    4 R(2,4)          =      1.394821    -0.085378    -0.006433     1.388388
	    5 R(2,15)         =      1.086434    -0.044650    -0.003759     1.082675
	    6 R(3,9)          =      1.394821     0.014904     0.001409     1.396230
	    7 R(3,16)         =      1.087437    -0.072099    -0.006073     1.081364
	    8 R(4,11)         =      1.395407    -0.113522    -0.008318     1.387089
	    9 R(4,17)         =      1.086343    -0.043145    -0.003577     1.082766
	   10 R(5,7)          =      1.385672    -0.015785    -0.001216     1.384456
	   11 R(5,10)         =      1.390578     0.032862     0.002892     1.393470
	   12 R(5,18)         =      1.085934    -0.061325    -0.005107     1.080827
	   13 R(6,8)          =      1.385228     0.015763     0.001195     1.386423
	   14 R(6,10)         =      1.390537     0.063401     0.005105     1.395643
	   15 R(6,19)         =      1.085138    -0.136518    -0.011322     1.073816
	   16 R(7,12)         =      1.351129    -0.130349    -0.009109     1.342020
	   17 R(7,20)         =      1.085076    -0.022642    -0.001901     1.083174
	   18 R(8,12)         =      1.352230    -0.133346    -0.009257     1.342973
	   19 R(8,21)         =      1.085085    -0.024142    -0.002030     1.083055
	   20 R(9,10)         =      1.447032     0.177771     0.014849     1.461881
	   21 R(9,11)         =      1.394521    -0.049840    -0.003022     1.391499
	   22 R(11,13)        =      1.341207    -0.035265    -0.002288     1.338919
	   23 B(1,2,4)        =    120.009056    -0.000068    -0.106786   119.902270
	   24 B(1,2,15)       =    120.018646     0.000129     0.180184   120.198829
	   25 B(1,3,9)        =    119.959722     0.000522     0.675552   120.635274
	   26 B(1,3,16)       =    119.122177    -0.000194    -0.250953   118.871225
	   27 B(2,1,3)        =    120.031219     0.000001     0.004262   120.035481
	   28 B(2,1,14)       =    119.995189    -0.000007    -0.010745   119.984445
	   29 B(2,4,11)       =    119.994870    -0.000276    -0.340363   119.654507
	   30 B(2,4,17)       =    120.042665     0.000282     0.361518   120.404183
	   31 B(3,1,14)       =    119.973570     0.000006     0.006494   119.980064
	   32 B(3,9,10)       =    119.778448     0.001179     1.232510   121.010958
	   33 B(3,9,11)       =    120.045019    -0.001377    -1.595465   118.449554
	   34 B(4,2,15)       =    119.972298    -0.000061    -0.073407   119.898891
	   35 B(4,11,9)       =    119.960108     0.001197     1.362728   121.322836
	   36 B(4,11,13)      =    119.236128    -0.000296    -0.415728   118.820399
	   37 B(5,7,12)       =    124.027340     0.000083     0.037884   124.065224
	   38 B(5,7,20)       =    120.730073    -0.000101    -0.097921   120.632152
	   39 B(5,10,6)       =    119.710366    -0.001324    -1.461586   118.248780
	   40 B(5,10,9)       =    120.167504     0.000544     0.519522   120.687026
	   41 B(6,8,12)       =    124.027150     0.000329     0.362327   124.389477
	   42 B(6,8,21)       =    120.806200    -0.000228    -0.265311   120.540888
	   43 B(6,10,9)       =    120.121991     0.000780     0.941725   121.063716
	   44 B(7,5,10)       =    117.923710     0.000664     0.839498   118.763207
	   45 B(7,5,18)       =    120.237774    -0.000461    -0.596128   119.641646
	   46 B(7,12,8)       =    116.392995     0.000003    -0.142722   116.250273
	   47 B(8,6,10)       =    117.918395     0.000245     0.364453   118.282848
	   48 B(8,6,19)       =    120.288732    -0.000603    -0.832723   119.456009
	   49 B(9,3,16)       =    120.918077    -0.000329    -0.424842   120.493235
	   50 B(9,11,13)      =    120.803676    -0.000901    -0.947048   119.856628
	   51 B(10,5,18)      =    121.838511    -0.000203    -0.243466   121.595045
	   52 B(10,6,19)      =    121.792738     0.000358     0.468258   122.260996
	   53 B(10,9,11)      =    120.176533     0.000198     0.362779   120.539312
	   54 B(11,4,17)      =    119.962450    -0.000006    -0.021194   119.941256
	   55 B(12,7,20)      =    115.242451     0.000018     0.060090   115.302540
	   56 B(12,8,21)      =    115.166592    -0.000101    -0.096971   115.069621
	   57 D(1,2,4,11)     =     -0.018609     0.000005     0.045858     0.027249
	   58 D(1,2,4,17)     =   -179.974682     0.000010     0.086327  -179.888355
	   59 D(1,3,9,10)     =   -179.985190    -0.000005    -0.058108  -180.043298
	   60 D(1,3,9,11)     =      0.018608     0.000009     0.090038     0.108646
	   61 D(2,1,3,9)      =     -0.019945    -0.000006    -0.057792    -0.077737
	   62 D(2,1,3,16)     =   -179.964243     0.000010     0.073485  -179.890758
	   63 D(2,4,11,9)     =      0.017261    -0.000003    -0.011555     0.005707
	   64 D(2,4,11,13)    =    179.910408     0.000028     0.229896   180.140304
	   65 D(3,1,2,4)      =      0.019955    -0.000001    -0.011444     0.008511
	   66 D(3,1,2,15)     =   -179.974167     0.000002     0.019053  -179.955114
	   67 D(3,9,10,5)     =    -14.973508    -0.000037    -0.205242   -15.178750
	   68 D(3,9,10,6)     =    164.890410    -0.000047    -0.325076   164.565334
	   69 D(3,9,11,4)     =     -0.017270    -0.000005    -0.055662    -0.072933
	   70 D(3,9,11,13)    =   -179.908714    -0.000036    -0.300191  -180.208905
	   71 D(4,2,1,14)     =    179.966134     0.000002     0.004564   179.970698
	   72 D(4,11,9,10)    =    179.986543     0.000010     0.091726   180.078269
	   73 D(5,7,12,8)     =     -0.031125    -0.000002    -0.022840    -0.053965
	   74 D(5,10,6,8)     =     -0.076323    -0.000001    -0.030890    -0.107213
	   75 D(5,10,6,19)    =   -179.942947    -0.000036    -0.304880  -180.247827
	   76 D(5,10,9,11)    =    165.022689    -0.000052    -0.356551   164.666138
	   77 D(6,8,12,7)     =      0.019290     0.000009     0.079224     0.098514
	   78 D(6,10,5,7)     =      0.065723     0.000008     0.081794     0.147517
	   79 D(6,10,5,18)    =   -179.907518    -0.000011    -0.061371  -179.968889
	   80 D(6,10,9,11)    =    -15.113392    -0.000061    -0.476385   -15.589778
	   81 D(7,5,10,9)     =    179.930203    -0.000001    -0.031540   179.898662
	   82 D(7,12,8,21)    =    179.931274     0.000015     0.124019   180.055293
	   83 D(8,6,10,9)     =   -179.940865     0.000007     0.083487  -179.857378
	   84 D(8,12,7,20)    =    179.834930     0.000002     0.006031   179.840962
	   85 D(9,3,1,14)     =   -179.966136    -0.000009    -0.073789  -180.039925
	   86 D(9,10,5,18)    =     -0.043038    -0.000019    -0.174705    -0.217743
	   87 D(9,10,6,19)    =      0.192511    -0.000028    -0.190504     0.002007
	   88 D(9,11,4,17)    =    179.973370    -0.000007    -0.051663   179.921706
	   89 D(10,5,7,12)    =     -0.010954    -0.000006    -0.057545    -0.068499
	   90 D(10,5,7,20)    =   -179.870009    -0.000011    -0.088092  -179.958101
	   91 D(10,6,8,12)    =      0.033843    -0.000008    -0.052061    -0.018218
	   92 D(10,6,8,21)    =   -179.873409    -0.000014    -0.099353  -179.972762
	   93 D(10,9,3,16)    =     -0.041910    -0.000022    -0.191409    -0.233319
	   94 D(10,9,11,13)   =      0.095099    -0.000022    -0.152803    -0.057704
	   95 D(11,4,2,15)    =    179.975516     0.000002     0.015468   179.990984
	   96 D(11,9,3,16)    =    179.961888    -0.000008    -0.043262   179.918626
	   97 D(12,7,5,18)    =    179.962732     0.000012     0.082848   180.045581
	   98 D(12,8,6,19)    =    179.902558     0.000027     0.215784   180.118342
	   99 D(13,11,4,17)   =     -0.133484     0.000024     0.189788     0.056304
	  100 D(14,1,2,15)    =     -0.027988     0.000005     0.035061     0.007073
	  101 D(14,1,3,16)    =      0.089566     0.000008     0.057488     0.147054
	  102 D(15,2,4,17)    =      0.019443     0.000007     0.055937     0.075380
	  103 D(18,5,7,20)    =      0.103678     0.000007     0.052301     0.155979
	  104 D(19,6,8,21)    =     -0.004694     0.000021     0.168492     0.163798
	  105 R(6,13)         =      2.529360     0.186690     0.026643     2.556002
	 ---------------------------------------------------------------------------
	Successfully symmetrized geometry.
	 Forces used to impose fixed constraints are not included.
	  Forces zeroed: 67 

  ==> Convergence Check <==

  Measures of convergence in internal coordinates in au.
  Criteria marked as inactive (o), active & met (*), and active & unmet ( ).
  --------------------------------------------------------------------------------------------- ~
   Step     Total Energy     Delta E     MAX Force     RMS Force      MAX Disp      RMS Disp    ~
  --------------------------------------------------------------------------------------------- ~
    Convergence Criteria    1.00e-06 *    3.00e-04 *             o    1.20e-03 *             o  ~
  --------------------------------------------------------------------------------------------- ~
      1    -577.71534348   -5.78e+02      2.27e-02      6.46e-03 o    5.03e-02      9.78e-03 o  ~
  ---------------------------------------------------------------------------------------------

	Writing optimization data to binary file.
	Structure for next step:
	Cartesian Geometry (in Angstrom)
	    C    -1.3874753501   0.8543526621  -2.6715310572
	    C    -2.4627875968   1.4213646115  -1.9973566063
	    C    -0.3529990661   0.2608940304  -1.9571661787
	    C    -2.5019029693   1.3942108613  -0.6097857231
	    C     1.6193922455  -1.2366409389  -0.4297630670
	    C     0.8519201619  -0.1592998486   1.5654407940
	    C     2.6305335658  -1.8034457565   0.3272339368
	    C     1.9011688099  -0.7772903532   2.2282636346
	    C    -0.3794011242   0.2281299766  -0.5615701931
	    C     0.7035008430  -0.3945827134   0.1978032373
	    C    -1.4648315252   0.8005376810   0.0945239743
	    N     2.7924691192  -1.5936356688   1.6428233427
	    F    -1.5210104867   0.7812186675   1.4321246482
	    H    -1.3558357058   0.8743637480  -3.7538140628
	    H    -3.2702086795   1.8835936404  -2.5510718797
	    H     0.4751416989  -0.1728686790  -2.5006556868
	    H    -3.3364222364   1.8318202383  -0.0764401556
	    H     1.5556180742  -1.4557108558  -1.4862325177
	    H     0.1857709710   0.4810695531   2.1124815611
	    H     3.3591838784  -2.4618928914  -0.1296937621
	    H     2.0502269774  -0.6206647428   3.2895165587
			--------------------------
			 OPTKING Finished Execution 
			--------------------------

    Structure for next step:
    Molecular point group: c1
    Full point group: C1

    Geometry (in Angstrom), charge = 0, multiplicity = 1:

    C           -1.386046045947     0.854656616897    -2.667544012510
    C           -2.461358292598     1.421668566318    -1.993369561672
    C           -0.351569761931     0.261197985190    -1.953179133996
    C           -2.500473665131     1.394514816059    -0.605798678437
    C            1.620821549705    -1.236336984162    -0.425776022367
    C            0.853349466098    -0.158995893781     1.569427838629
    C            2.631962870013    -1.803141801724     0.331220981493
    C            1.902598114095    -0.776986398390     2.232250679234
    C           -0.377971819999     0.228433931366    -0.557583148392
    C            0.704930147180    -0.394278758642     0.201790281922
    C           -1.463402221025     0.800841635736     0.098511018981
    N            2.793898423359    -1.593331713978     1.646810387373
    F           -1.519581182517     0.781522622322     1.436111692857
    H           -1.354406401599     0.874667702748    -3.749827018174
    H           -3.268779375286     1.883897595147    -2.547084835071
    H            0.476571003118    -0.172564724202    -2.496668642141
    H           -3.334992932221     1.832124193040    -0.072453110947
    H            1.557047378337    -1.455406900999    -1.482245472990
    H            0.187200275219     0.481373507903     2.116468605735
    H            3.360613182560    -2.461588936602    -0.125706717460
    H            2.051656281533    -0.620360788009     3.293503603346

gradient() will perform analytic gradient computation.

*** tstart() called on gpu-2-14.local
*** at Sat Nov 11 18:49:00 2017

    SCF Algorithm Type (re)set to DF.

*** tstart() called on gpu-2-14.local
*** at Sat Nov 11 18:49:00 2017

   => Loading Basis Set <=

    Name: AUG-CC-PVTZ
    Role: ORBITAL
    Keyword: BASIS
    atoms 1-11  entry C          line   221 file /cbio/jclab/home/chayas/anaconda/envs/py35/share/psi4/basis/aug-cc-pvtz.gbs 
    atoms 12    entry N          line   267 file /cbio/jclab/home/chayas/anaconda/envs/py35/share/psi4/basis/aug-cc-pvtz.gbs 
    atoms 13    entry F          line   359 file /cbio/jclab/home/chayas/anaconda/envs/py35/share/psi4/basis/aug-cc-pvtz.gbs 
    atoms 14-21 entry H          line    34 file /cbio/jclab/home/chayas/anaconda/envs/py35/share/psi4/basis/aug-cc-pvtz.gbs 


         ---------------------------------------------------------
                                   SCF
            by Justin Turney, Rob Parrish, and Andy Simmonett
                              RHF Reference
                        8 Threads,   4768 MiB Core
         ---------------------------------------------------------

  ==> Geometry <==

    Molecular point group: c1
    Full point group: C1

    Geometry (in Angstrom), charge = 0, multiplicity = 1:

       Center              X                  Y                   Z               Mass       
    ------------   -----------------  -----------------  -----------------  -----------------
           C         -1.386046045947     0.854656616897    -2.667544012510    12.000000000000
           C         -2.461358292598     1.421668566318    -1.993369561672    12.000000000000
           C         -0.351569761931     0.261197985190    -1.953179133996    12.000000000000
           C         -2.500473665131     1.394514816059    -0.605798678437    12.000000000000
           C          1.620821549705    -1.236336984162    -0.425776022367    12.000000000000
           C          0.853349466098    -0.158995893781     1.569427838629    12.000000000000
           C          2.631962870013    -1.803141801724     0.331220981493    12.000000000000
           C          1.902598114095    -0.776986398390     2.232250679234    12.000000000000
           C         -0.377971819999     0.228433931366    -0.557583148392    12.000000000000
           C          0.704930147180    -0.394278758642     0.201790281922    12.000000000000
           C         -1.463402221025     0.800841635736     0.098511018981    12.000000000000
           N          2.793898423359    -1.593331713978     1.646810387373    14.003074004780
           F         -1.519581182517     0.781522622322     1.436111692857    18.998403224000
           H         -1.354406401599     0.874667702748    -3.749827018174     1.007825032070
           H         -3.268779375286     1.883897595147    -2.547084835071     1.007825032070
           H          0.476571003118    -0.172564724202    -2.496668642141     1.007825032070
           H         -3.334992932221     1.832124193040    -0.072453110947     1.007825032070
           H          1.557047378337    -1.455406900999    -1.482245472990     1.007825032070
           H          0.187200275219     0.481373507903     2.116468605735     1.007825032070
           H          3.360613182560    -2.461588936602    -0.125706717460     1.007825032070
           H          2.051656281533    -0.620360788009     3.293503603346     1.007825032070

  Running in c1 symmetry.

  Rotational constants: A =      0.06479  B =      0.01852  C =      0.01451 [cm^-1]
  Rotational constants: A =   1942.28259  B =    555.35857  C =    434.91120 [MHz]
  Nuclear repulsion =  718.211906313615373

  Charge       = 0
  Multiplicity = 1
  Electrons    = 90
  Nalpha       = 45
  Nbeta        = 45

  ==> Algorithm <==

  SCF Algorithm Type is DF.
  DIIS enabled.
  MOM disabled.
  Fractional occupation disabled.
  Guess Type is READ.
  Energy threshold   = 1.00e-10
  Density threshold  = 1.00e-10
  Integral threshold = 0.00e+00

  ==> Primary Basis <==

  Basis Set: AUG-CC-PVTZ
    Blend: AUG-CC-PVTZ
    Number of shells: 254
    Number of basis function: 782
    Number of Cartesian functions: 915
    Spherical Harmonics?: true
    Max angular momentum: 3

   => Loading Basis Set <=

    Name: (AUG-CC-PVTZ AUX)
    Role: JKFIT
    Keyword: DF_BASIS_SCF
    atoms 1-11  entry C          line   161 file /cbio/jclab/home/chayas/anaconda/envs/py35/share/psi4/basis/aug-cc-pvtz-jkfit.gbs 
    atoms 12    entry N          line   223 file /cbio/jclab/home/chayas/anaconda/envs/py35/share/psi4/basis/aug-cc-pvtz-jkfit.gbs 
    atoms 13    entry F          line   347 file /cbio/jclab/home/chayas/anaconda/envs/py35/share/psi4/basis/aug-cc-pvtz-jkfit.gbs 
    atoms 14-21 entry H          line    69 file /cbio/jclab/home/chayas/anaconda/envs/py35/share/psi4/basis/aug-cc-pvtz-jkfit.gbs 

  Reading orbitals from file 180, no projection.

  ==> Pre-Iterations <==

   -------------------------------------------------------
    Irrep   Nso     Nmo     Nalpha   Nbeta   Ndocc  Nsocc
   -------------------------------------------------------
     A        782     782       0       0       0       0
   -------------------------------------------------------
    Total     782     782      45      45      45       0
   -------------------------------------------------------

  ==> Integral Setup <==

  ==> DFJK: Density-Fitted J/K Matrices <==

    J tasked:                  Yes
    K tasked:                  Yes
    wK tasked:                  No
    OpenMP threads:              8
    Integrals threads:           8
    Memory (MB):              3576
    Algorithm:                Disk
    Integral Cache:           NONE
    Schwarz Cutoff:          1E-12
    Fitting Condition:       1E-12

   => Auxiliary Basis Set <=

  Basis Set: (AUG-CC-PVTZ AUX)
    Blend: AUG-CC-PVTZ-JKFIT
    Number of shells: 502
    Number of basis function: 1720
    Number of Cartesian functions: 2143
    Spherical Harmonics?: true
    Max angular momentum: 4

  Minimum eigenvalue in the overlap matrix is 5.8121594661E-07.
  Using Symmetric Orthogonalization.

  SCF Guess: Orbitals guess was supplied from a previous computation.

  ==> Iterations <==

                           Total Energy        Delta E     RMS |[F,P]|

   @DF-RHF iter   0:  -575.40623243122161   -5.75406e+02   5.61052e-04 
   @DF-RHF iter   1:  -575.27734106017363    1.28891e-01   1.59805e-04 
   @DF-RHF iter   2:  -575.27813963379526   -7.98574e-04   1.10829e-04 DIIS
   @DF-RHF iter   3:  -575.27887267802646   -7.33044e-04   1.60653e-05 DIIS
   @DF-RHF iter   4:  -575.27888408254853   -1.14045e-05   4.50263e-06 DIIS
   @DF-RHF iter   5:  -575.27888571231529   -1.62977e-06   1.12944e-06 DIIS
   @DF-RHF iter   6:  -575.27888595851948   -2.46204e-07   7.14884e-07 DIIS
   @DF-RHF iter   7:  -575.27888605173803   -9.32185e-08   3.05654e-07 DIIS
   @DF-RHF iter   8:  -575.27888608214130   -3.04033e-08   1.07591e-07 DIIS
   @DF-RHF iter   9:  -575.27888608586511   -3.72381e-09   3.45359e-08 DIIS
   @DF-RHF iter  10:  -575.27888608626165   -3.96540e-10   1.77254e-08 DIIS
   @DF-RHF iter  11:  -575.27888608631531   -5.36602e-11   5.16663e-09 DIIS
   @DF-RHF iter  12:  -575.27888608632895   -1.36424e-11   3.02212e-09 DIIS
   @DF-RHF iter  13:  -575.27888608632452    4.43379e-12   1.78607e-09 DIIS
   @DF-RHF iter  14:  -575.27888608633236   -7.84439e-12   7.73938e-10 DIIS
   @DF-RHF iter  15:  -575.27888608632770    4.66116e-12   2.47893e-10 DIIS
   @DF-RHF iter  16:  -575.27888608632861   -9.09495e-13   9.84502e-11 DIIS

  ==> Post-Iterations <==

    Orbital Energies (a.u.)
    -----------------------

    Doubly Occupied:                                                      

       1A    -26.327147     2A    -15.561392     3A    -11.342647  
       4A    -11.271672     5A    -11.269253     6A    -11.268995  
       7A    -11.264369     8A    -11.259150     9A    -11.258873  
      10A    -11.255013    11A    -11.250489    12A    -11.238881  
      13A    -11.230360    14A     -1.652126    15A     -1.253149  
      16A     -1.186434    17A     -1.113886    18A     -1.040098  
      19A     -1.032270    20A     -1.028762    21A     -0.894227  
      22A     -0.877084    23A     -0.846143    24A     -0.826830  
      25A     -0.761029    26A     -0.731645    27A     -0.721194  
      28A     -0.715525    29A     -0.673424    30A     -0.662310  
      31A     -0.649647    32A     -0.626148    33A     -0.610720  
      34A     -0.593905    35A     -0.586292    36A     -0.551887  
      37A     -0.542322    38A     -0.524962    39A     -0.519449  
      40A     -0.502315    41A     -0.416752    42A     -0.416165  
      43A     -0.355668    44A     -0.346472    45A     -0.325120  

    Virtual:                                                              

      46A      0.022984    47A      0.028862    48A      0.033853  
      49A      0.040383    50A      0.043555    51A      0.048468  
      52A      0.057556    53A      0.059315    54A      0.063320  
      55A      0.078624    56A      0.084464    57A      0.085632  
      58A      0.090217    59A      0.093186    60A      0.100450  
      61A      0.104731    62A      0.106029    63A      0.109641  
      64A      0.114564    65A      0.115307    66A      0.116835  
      67A      0.118015    68A      0.125986    69A      0.130996  
      70A      0.134633    71A      0.135326    72A      0.139176  
      73A      0.140855    74A      0.142417    75A      0.147327  
      76A      0.149691    77A      0.153124    78A      0.157260  
      79A      0.164337    80A      0.167620    81A      0.174538  
      82A      0.181051    83A      0.185511    84A      0.186202  
      85A      0.189145    86A      0.196658    87A      0.206538  
      88A      0.211747    89A      0.217119    90A      0.222466  
      91A      0.228242    92A      0.231292    93A      0.234772  
      94A      0.238548    95A      0.244929    96A      0.250030  
      97A      0.252337    98A      0.256325    99A      0.260986  
     100A      0.261849   101A      0.267357   102A      0.269056  
     103A      0.278213   104A      0.284086   105A      0.287678  
     106A      0.291386   107A      0.293959   108A      0.297414  
     109A      0.301558   110A      0.303816   111A      0.307138  
     112A      0.314370   113A      0.317483   114A      0.320475  
     115A      0.323918   116A      0.333263   117A      0.337084  
     118A      0.340755   119A      0.344019   120A      0.350475  
     121A      0.352330   122A      0.359007   123A      0.367635  
     124A      0.370195   125A      0.378392   126A      0.386618  
     127A      0.390316   128A      0.395057   129A      0.403508  
     130A      0.407397   131A      0.412797   132A      0.414357  
     133A      0.417824   134A      0.424589   135A      0.429046  
     136A      0.432924   137A      0.436523   138A      0.439460  
     139A      0.442201   140A      0.444317   141A      0.451234  
     142A      0.453526   143A      0.458170   144A      0.462341  
     145A      0.466232   146A      0.471045   147A      0.472641  
     148A      0.474021   149A      0.477758   150A      0.483567  
     151A      0.490527   152A      0.493855   153A      0.494787  
     154A      0.498667   155A      0.501616   156A      0.502311  
     157A      0.506524   158A      0.508565   159A      0.514991  
     160A      0.519275   161A      0.523183   162A      0.524755  
     163A      0.530056   164A      0.533561   165A      0.537129  
     166A      0.544499   167A      0.546381   168A      0.549066  
     169A      0.555083   170A      0.557866   171A      0.561403  
     172A      0.564522   173A      0.577493   174A      0.578087  
     175A      0.584376   176A      0.588686   177A      0.596552  
     178A      0.598278   179A      0.610284   180A      0.615909  
     181A      0.622362   182A      0.628721   183A      0.635036  
     184A      0.642969   185A      0.650723   186A      0.655592  
     187A      0.659220   188A      0.666167   189A      0.678536  
     190A      0.684913   191A      0.690769   192A      0.695839  
     193A      0.699432   194A      0.703843   195A      0.709548  
     196A      0.712999   197A      0.717085   198A      0.720411  
     199A      0.730591   200A      0.737591   201A      0.740112  
     202A      0.744960   203A      0.746546   204A      0.754146  
     205A      0.757565   206A      0.764247   207A      0.771832  
     208A      0.788371   209A      0.788974   210A      0.799435  
     211A      0.807871   212A      0.808711   213A      0.811526  
     214A      0.819028   215A      0.828812   216A      0.834382  
     217A      0.841017   218A      0.851250   219A      0.858515  
     220A      0.862975   221A      0.868733   222A      0.870618  
     223A      0.875082   224A      0.881355   225A      0.885222  
     226A      0.891013   227A      0.893736   228A      0.894863  
     229A      0.900640   230A      0.903930   231A      0.908528  
     232A      0.913783   233A      0.915277   234A      0.919093  
     235A      0.922427   236A      0.932285   237A      0.939680  
     238A      0.947349   239A      0.953239   240A      0.958724  
     241A      0.961591   242A      0.967342   243A      0.971643  
     244A      0.972618   245A      0.980144   246A      0.981090  
     247A      0.984103   248A      0.986459   249A      0.991837  
     250A      0.998568   251A      1.004206   252A      1.008196  
     253A      1.014757   254A      1.016888   255A      1.024642  
     256A      1.026508   257A      1.028258   258A      1.036251  
     259A      1.042852   260A      1.044091   261A      1.046968  
     262A      1.058833   263A      1.060027   264A      1.068598  
     265A      1.072834   266A      1.079648   267A      1.082983  
     268A      1.089358   269A      1.089752   270A      1.091519  
     271A      1.096894   272A      1.103487   273A      1.109467  
     274A      1.115312   275A      1.119748   276A      1.126180  
     277A      1.129622   278A      1.133944   279A      1.135452  
     280A      1.144256   281A      1.159548   282A      1.166692  
     283A      1.168778   284A      1.175003   285A      1.176981  
     286A      1.179746   287A      1.188333   288A      1.189343  
     289A      1.195395   290A      1.197382   291A      1.206506  
     292A      1.208569   293A      1.209219   294A      1.211868  
     295A      1.224705   296A      1.228616   297A      1.231693  
     298A      1.240864   299A      1.247413   300A      1.259343  
     301A      1.263370   302A      1.268878   303A      1.275495  
     304A      1.280187   305A      1.281275   306A      1.290663  
     307A      1.293830   308A      1.304387   309A      1.307807  
     310A      1.311978   311A      1.317428   312A      1.323541  
     313A      1.332833   314A      1.335854   315A      1.352054  
     316A      1.354874   317A      1.361719   318A      1.369798  
     319A      1.376981   320A      1.386386   321A      1.388048  
     322A      1.394134   323A      1.399370   324A      1.414003  
     325A      1.426219   326A      1.431728   327A      1.439004  
     328A      1.441963   329A      1.451556   330A      1.467924  
     331A      1.476152   332A      1.483319   333A      1.497341  
     334A      1.508306   335A      1.519136   336A      1.520590  
     337A      1.524650   338A      1.533897   339A      1.541307  
     340A      1.546774   341A      1.560920   342A      1.573108  
     343A      1.577785   344A      1.583069   345A      1.594494  
     346A      1.605555   347A      1.610699   348A      1.621909  
     349A      1.636570   350A      1.642288   351A      1.651372  
     352A      1.658109   353A      1.662997   354A      1.670814  
     355A      1.678831   356A      1.685545   357A      1.697364  
     358A      1.702146   359A      1.706407   360A      1.713803  
     361A      1.722108   362A      1.735041   363A      1.738492  
     364A      1.747980   365A      1.755108   366A      1.763310  
     367A      1.768540   368A      1.783916   369A      1.789039  
     370A      1.796854   371A      1.803559   372A      1.809757  
     373A      1.820896   374A      1.821761   375A      1.824188  
     376A      1.845133   377A      1.851520   378A      1.860647  
     379A      1.870669   380A      1.882143   381A      1.889424  
     382A      1.894208   383A      1.905170   384A      1.912419  
     385A      1.913935   386A      1.931996   387A      1.937827  
     388A      1.944753   389A      1.953772   390A      1.963509  
     391A      1.974642   392A      1.977244   393A      1.983077  
     394A      1.991455   395A      1.999182   396A      2.004392  
     397A      2.011405   398A      2.016666   399A      2.026576  
     400A      2.030523   401A      2.032828   402A      2.040569  
     403A      2.044131   404A      2.054187   405A      2.062452  
     406A      2.075688   407A      2.087184   408A      2.088484  
     409A      2.094123   410A      2.101210   411A      2.107306  
     412A      2.111740   413A      2.123222   414A      2.127300  
[...]
	 D(6,8,12,7)      =         0.003709	       0.212511
	 D(6,10,5,7)      =         0.018871	       1.081254
	 D(6,10,5,18)     =         3.119550	     178.737077
	 D(6,10,9,11)     =        -0.421146	     -24.129903
	 D(7,5,10,9)      =         3.084460	     176.726567
	 D(7,12,8,21)     =        -3.133143	    -179.515895
	 D(8,6,10,9)      =        -3.078244	    -176.370384
	 D(8,12,7,20)     =        -3.141177	    -179.976158
	 D(9,3,1,14)      =         3.125261	     179.064280
	 D(9,10,5,18)     =        -0.098046	      -5.617610
	 D(9,10,6,19)     =         0.043578	       2.496853
	 D(9,11,4,17)     =        -3.140527	    -179.938956
	 D(10,5,7,12)     =        -0.012495	      -0.715909
	 D(10,5,7,20)     =         3.129347	     179.298372
	 D(10,6,8,12)     =         0.003784	       0.216807
	 D(10,6,8,21)     =         3.140488	     179.936720
	 D(10,9,3,16)     =        -0.082458	      -4.724491
	 D(10,9,11,13)    =         0.009668	       0.553923
	 D(11,4,2,15)     =        -3.139837	    -179.899383
	 D(11,9,3,16)     =         3.122604	     178.912030
	 D(12,7,5,18)     =        -3.114232	    -178.432346
	 D(12,8,6,19)     =        -3.118472	    -178.675266
	 D(13,11,4,17)    =         0.030106	       1.724943
	 D(14,1,2,15)     =         0.004182	       0.239589
	 D(14,1,3,16)     =         0.027448	       1.572653
	 D(15,2,4,17)     =         0.012543	       0.718672
	 D(18,5,7,20)     =         0.027610	       1.581935
	 D(19,6,8,21)     =         0.018233	       1.044647
	 R(6,13)          =         5.258651	       2.782758

	Current energy   :      -577.7257229732

	Energy change for the previous step:
		Projected    :         0.0000003161
		Actual       :         0.0000010751

	Performing BFGS update.
	Previous computed or guess Hessian on step 1.
	Steps to be used in Hessian update: 9 8
	Adding user-defined constraint: Fragment 1; Coordinate 67:
		Value =    -0.270336; Fixed value    =    -0.261800
		Force =     0.006189; Force constant =     0.725000
	Removing off-diagonal coupling between coordinate 67 and others.
	Taking RFO optimization step.
	Going to follow RFO solution 1.
	Rejecting RFO root 1 because normalization gives large value.
	Rejecting RFO root 2 because normalization gives large value.
	Rejecting RFO root 3 because normalization gives large value.
	Rejecting RFO root 4 because normalization gives large value.
	Rejecting RFO root 5 because normalization gives large value.
	Rejecting RFO root 6 because normalization gives large value.
	Rejecting RFO root 7 because normalization gives large value.
	Rejecting RFO root 8 because normalization gives large value.
	Rejecting RFO root 9 because normalization gives large value.
	Rejecting RFO root 10 because normalization gives large value.
	Rejecting RFO root 11 because normalization gives large value.
	Rejecting RFO root 12 because normalization gives large value.
	Rejecting RFO root 13 because normalization gives large value.
	Rejecting RFO root 14 because normalization gives large value.
	Rejecting RFO root 15 because normalization gives large value.
	Rejecting RFO root 16 because normalization gives large value.
	Rejecting RFO root 17 because normalization gives large value.
	Rejecting RFO root 18 because normalization gives large value.
	Rejecting RFO root 19 because normalization gives large value.
	Rejecting RFO root 20 because normalization gives large value.
	Rejecting RFO root 21 because normalization gives large value.
	Rejecting RFO root 22 because normalization gives large value.
	Rejecting RFO root 23 because normalization gives large value.
	Rejecting RFO root 24 because normalization gives large value.
	Rejecting RFO root 25 because normalization gives large value.
	Rejecting RFO root 26 because normalization gives large value.
	Rejecting RFO root 27 because normalization gives large value.
	Rejecting RFO root 28 because normalization gives large value.
	Rejecting RFO root 29 because normalization gives large value.
	Rejecting RFO root 30 because normalization gives large value.
	Rejecting RFO root 31 because normalization gives large value.
	Rejecting RFO root 32 because normalization gives large value.
	Rejecting RFO root 33 because normalization gives large value.
	Rejecting RFO root 34 because normalization gives large value.
	Rejecting RFO root 35 because normalization gives large value.
	Rejecting RFO root 36 because normalization gives large value.
	Rejecting RFO root 37 because normalization gives large value.
	Rejecting RFO root 38 because normalization gives large value.
	Rejecting RFO root 39 because normalization gives large value.
	Rejecting RFO root 40 because normalization gives large value.
	Rejecting RFO root 41 because normalization gives large value.
	Rejecting RFO root 42 because normalization gives large value.
	Rejecting RFO root 43 because normalization gives large value.
	Rejecting RFO root 44 because normalization gives large value.
	Rejecting RFO root 45 because normalization gives large value.
	Rejecting RFO root 46 because normalization gives large value.
	Rejecting RFO root 47 because normalization gives large value.
	Rejecting RFO root 48 because normalization gives large value.
	Rejecting RFO root 49 because normalization gives large value.
	Rejecting RFO root 50 because normalization gives large value.
	Using RFO vector 51.
	Norm of target step-size    0.00344
	Projected energy change by RFO approximation:         0.0000000574

	Back-transformation to cartesian coordinates...
	Could not converge backtransformation.
	Using first guess instead.

	--- Internal Coordinate Step in ANG or DEG, aJ/ANG or AJ/DEG ---
	 ---------------------------------------------------------------------------
	   Coordinate                Previous        Force       Change         New 
	   ----------                --------       ------       ------       ------
	    1 R(1,2)          =      1.387572    -0.000067     0.000010     1.387582
	    2 R(1,3)          =      1.383699     0.000017     0.000013     1.383711
	    3 R(1,14)         =      1.078480    -0.000028    -0.000001     1.078479
	    4 R(2,4)          =      1.384324     0.000021     0.000013     1.384337
	    5 R(2,15)         =      1.078700    -0.000020    -0.000001     1.078698
	    6 R(3,9)          =      1.399581    -0.000082    -0.000026     1.399555
	    7 R(3,16)         =      1.077714    -0.000040    -0.000004     1.077710
	    8 R(4,11)         =      1.380232    -0.000035     0.000007     1.380239
	    9 R(4,17)         =      1.077977    -0.000030    -0.000001     1.077977
	   10 R(5,7)          =      1.384055    -0.000004    -0.000009     1.384046
	   11 R(5,10)         =      1.395470     0.000077     0.000013     1.395482
	   12 R(5,18)         =      1.077866    -0.000003     0.000004     1.077870
	   13 R(6,8)          =      1.386152    -0.000012     0.000002     1.386154
	   14 R(6,10)         =      1.395615     0.000065    -0.000012     1.395603
	   15 R(6,19)         =      1.074834    -0.000055    -0.000011     1.074823
	   16 R(7,12)         =      1.334881    -0.000068     0.000028     1.334909
	   17 R(7,20)         =      1.081049    -0.000005     0.000002     1.081051
	   18 R(8,12)         =      1.333854     0.000001     0.000014     1.333868
	   19 R(8,21)         =      1.081003    -0.000015     0.000000     1.081004
	   20 R(9,10)         =      1.467481     0.000114    -0.000025     1.467456
	   21 R(9,11)         =      1.394071     0.000110    -0.000012     1.394059
	   22 R(11,13)        =      1.348053    -0.000188     0.000004     1.348057
	   23 B(1,2,4)        =    119.269778     0.000000     0.000779   119.270558
	   24 B(1,2,15)       =    120.778515     0.000000     0.000588   120.779103
	   25 B(1,3,9)        =    122.475990     0.000000    -0.004579   122.471411
	   26 B(1,3,16)       =    118.665075     0.000000    -0.000562   118.664513
	   27 B(2,1,3)        =    119.985503    -0.000000     0.000118   119.985621
	   28 B(2,1,14)       =    120.353212    -0.000000    -0.000419   120.352793
	   29 B(2,4,11)       =    119.483674     0.000000     0.000468   119.484142
	   30 B(2,4,17)       =    121.925194    -0.000001    -0.001151   121.924043
	   31 B(3,1,14)       =    119.660171     0.000000     0.000138   119.660310
	   32 B(3,9,10)       =    120.735205    -0.000001    -0.003991   120.731214
	   33 B(3,9,11)       =    115.393032    -0.000000     0.007392   115.400424
	   34 B(4,2,15)       =    119.951349    -0.000000    -0.001393   119.949956
	   35 B(4,11,9)       =    123.374545    -0.000000    -0.005304   123.369241
	   36 B(4,11,13)      =    116.526199     0.000000     0.003143   116.529342
	   37 B(5,7,12)       =    123.845856     0.000000     0.000730   123.846586
	   38 B(5,7,20)       =    119.808345    -0.000000    -0.001066   119.807278
	   39 B(5,10,6)       =    115.840917    -0.000001     0.005417   115.846334
	   40 B(5,10,9)       =    120.730016    -0.000001    -0.006430   120.723587
	   41 B(6,8,12)       =    124.205087     0.000000     0.000534   124.205621
	   42 B(6,8,21)       =    119.562826    -0.000000    -0.001184   119.561642
	   43 B(6,10,9)       =    123.275873     0.000002     0.001700   123.277573
	   44 B(7,5,10)       =    120.208891     0.000001    -0.004015   120.204875
	   45 B(7,5,18)       =    118.569932     0.000000    -0.000515   118.569417
	   46 B(7,12,8)       =    116.103491    -0.000000     0.000121   116.103611
	   47 B(8,6,10)       =    119.787572     0.000001    -0.003209   119.784363
	   48 B(8,6,19)       =    119.006251    -0.000001    -0.000502   119.005749
	   49 B(9,3,16)       =    118.812545    -0.000001     0.002908   118.815454
	   50 B(9,11,13)      =    120.078394     0.000000     0.004522   120.082917
	   51 B(10,5,18)      =    121.180804    -0.000001     0.002704   121.183508
	   52 B(10,6,19)      =    121.196672     0.000000     0.003944   121.200616
	   53 B(10,9,11)      =    123.763941     0.000000    -0.003608   123.760333
	   54 B(11,4,17)      =    118.588327     0.000001     0.000689   118.589017
	   55 B(12,7,20)      =    116.345798     0.000000     0.000332   116.346130
	   56 B(12,8,21)      =    116.231538    -0.000000     0.000750   116.232287
	   57 D(1,2,4,11)     =      0.316257     0.000000    -0.000662     0.315595
	   58 D(1,2,4,17)     =   -179.065689     0.000000    -0.001441  -179.067129
	   59 D(1,3,9,10)     =    177.787428    -0.000001     0.031216   177.818644
	   60 D(1,3,9,11)     =      1.423949     0.000001     0.034810     1.458759
	   61 D(2,1,3,9)      =     -0.553246    -0.000000     0.001246    -0.552000
	   62 D(2,1,3,16)     =   -178.044872    -0.000000     0.060798  -177.984074
	   63 D(2,4,11,9)     =      0.658445     0.000001     0.040304     0.698749
	   64 D(2,4,11,13)    =   -177.677656     0.000000    -0.056756  -177.734412
	   65 D(3,1,2,4)      =     -0.363038    -0.000000    -0.019184    -0.382222
	   66 D(3,1,2,15)     =    179.854433     0.000000    -0.011274   179.843159
	   67 D(3,9,10,5)     =    -15.489114     0.000007    -0.011741   -15.500855
	   68 D(3,9,10,6)     =    159.822282     0.000004    -0.000997   159.821285
	   69 D(3,9,11,4)     =     -1.485719    -0.000001    -0.055993    -1.541712
	   70 D(3,9,11,13)    =    176.793854    -0.000001     0.044336   176.838191
	   71 D(4,2,1,14)     =   -179.977883    -0.000000     0.008053  -179.969830
	   72 D(4,11,9,10)    =   -177.725650     0.000001    -0.052279  -177.777929
	   73 D(5,7,12,8)     =      0.037670    -0.000000     0.012767     0.050437
	   74 D(5,10,6,8)     =     -0.847963    -0.000001    -0.011603    -0.859567
	   75 D(5,10,6,19)    =    178.019274    -0.000001     0.002327   178.021601
	   76 D(5,10,9,11)    =    160.558701     0.000004    -0.015239   160.543463
	   77 D(6,8,12,7)     =      0.212511     0.000000     0.006659     0.219170
	   78 D(6,10,5,7)     =      1.081254     0.000001     0.029487     1.110741
	   79 D(6,10,5,18)    =    178.737077     0.000001    -0.022935   178.714142
	   80 D(6,10,9,11)    =    -24.129903     0.000001    -0.004494   -24.134397
	   81 D(7,5,10,9)     =    176.726567    -0.000001     0.039348   176.765915
	   82 D(7,12,8,21)    =   -179.515895     0.000000    -0.019328  -179.535223
	   83 D(8,6,10,9)     =   -176.370384     0.000001    -0.021359  -176.391742
	   84 D(8,12,7,20)    =   -179.976158    -0.000000    -0.001475  -179.977633
	   85 D(9,3,1,14)     =    179.064280    -0.000000    -0.025803   179.038477
	   86 D(9,10,5,18)    =     -5.617610    -0.000002    -0.013074    -5.630684
	   87 D(9,10,6,19)    =      2.496853     0.000002    -0.007428     2.489425
	   88 D(9,11,4,17)    =   -179.938956     0.000000     0.041045  -179.897911
	   89 D(10,5,7,12)    =     -0.715909    -0.000001    -0.031817    -0.747726
	   90 D(10,5,7,20)    =    179.298372    -0.000000    -0.017109   179.281263
	   91 D(10,6,8,12)    =      0.216807     0.000000    -0.006823     0.209984
	   92 D(10,6,8,21)    =    179.936720     0.000000     0.019982   179.956702
	   93 D(10,9,3,16)    =     -4.724491    -0.000002    -0.028506    -4.752997
	   94 D(10,9,11,13)   =      0.553923     0.000002     0.048050     0.601973
	   95 D(11,4,2,15)    =   -179.899383    -0.000000    -0.008500  -179.907883
	   96 D(11,9,3,16)    =    178.912030     0.000001    -0.024912   178.887118
	   97 D(12,7,5,18)    =   -178.432346    -0.000000     0.019170  -178.413176
	   98 D(12,8,6,19)    =   -178.675266     0.000000    -0.020499  -178.695765
	   99 D(13,11,4,17)   =      1.724943     0.000000    -0.056015     1.668928
	  100 D(14,1,2,15)    =      0.239589    -0.000000     0.015962     0.255551
	  101 D(14,1,3,16)    =      1.572653    -0.000000     0.033749     1.606402
	  102 D(15,2,4,17)    =      0.718672     0.000000    -0.009279     0.709392
	  103 D(18,5,7,20)    =      1.581935    -0.000000     0.033879     1.615814
	  104 D(19,6,8,21)    =      1.044647     0.000000     0.006306     1.050953
	  105 R(6,13)         =      2.782758     0.000001    -0.000143     2.782615
	 ---------------------------------------------------------------------------
	Successfully symmetrized geometry.
	 Forces used to impose fixed constraints are not included.
	  Forces zeroed: 67 

  ==> Convergence Check <==

  Measures of convergence in internal coordinates in au.
  Criteria marked as inactive (o), active & met (*), and active & unmet ( ).
  ---------------------------------------------------------------------------------------------
   Step     Total Energy     Delta E     MAX Force     RMS Force      MAX Disp      RMS Disp   
  ---------------------------------------------------------------------------------------------
    Convergence Criteria    1.00e-06 *    3.00e-04 *             o    1.20e-03 *             o
  ---------------------------------------------------------------------------------------------
     10    -577.72572297    1.08e-06      2.40e-04 *    4.64e-05 o    1.06e-03 *    3.36e-04 o  ~
  ---------------------------------------------------------------------------------------------


  **** Optimization is complete! (in 10 steps) ****

  ==> Optimization Summary <==

  Measures of convergence in internal coordinates in au.
  --------------------------------------------------------------------------------------------------------------- ~
   Step         Total Energy             Delta E       MAX Force       RMS Force        MAX Disp        RMS Disp  ~
  --------------------------------------------------------------------------------------------------------------- ~
      1    -577.715343482311   -577.715343482311      0.02266008      0.00646475      0.05034717      0.00978326  ~
      2    -577.720306084093     -0.004962601783      0.01801720      0.00344515      0.07463218      0.00978043  ~
      3    -577.722847013116     -0.002540929023      0.01283109      0.00181543      0.08558186      0.00977139  ~
      4    -577.724217439591     -0.001370426475      0.00859982      0.00104657      0.08596503      0.00975991  ~
      5    -577.725024829971     -0.000807390379      0.00530530      0.00061075      0.08173239      0.00975807  ~
      6    -577.725480674500     -0.000455844530      0.00264959      0.00033913      0.06783156      0.00978749  ~
      7    -577.725691007642     -0.000210333142      0.00080792      0.00017194      0.02960379      0.00579213  ~
      8    -577.725728638307     -0.000037630665      0.00050112      0.00009450      0.00455849      0.00088078  ~
      9    -577.725724048270      0.000004590038      0.00036169      0.00005885      0.00141319      0.00031883  ~
     10    -577.725722973197      0.000001075073      0.00039897      0.00006060      0.00106112      0.00033619  ~
  --------------------------------------------------------------------------------------------------------------- ~

	Writing optimization data to binary file.
	Final energy is   -577.7257229731968
	Final (previous) structure:
	Cartesian Geometry (in Angstrom)
	    C    -1.4091343976   0.9710248191  -2.5963201692
	    C    -2.5154621517   1.4694455494  -1.9232889945
	    C    -0.3761294499   0.3826398023  -1.8882764520
	    C    -2.5732800767   1.3632103455  -0.5442591430
	    C     1.6041054123  -1.2181418992  -0.4716269642
	    C     0.9767339577  -0.2037595279   1.5704970670
	    C     2.6712322727  -1.7948330198   0.1949124816
	    C     2.0745630753  -0.8204621151   2.1500370857
	    C    -0.3881878759   0.2731638056  -0.4930358324
	    C     0.7055000498  -0.4012792903   0.2158170005
	    C    -1.5286258723   0.7705492620   0.1358073636
	    N     2.9238706742  -1.6115867937   1.4927960202
	    F    -1.6683919492   0.6548847563   1.4715969836
	    H    -1.3457744570   1.0448188200  -3.6704049000
	    H    -3.3269420078   1.9327139023  -2.4622468768
	    H     0.4871957250   0.0314460444  -2.4293863141
	    H    -3.4185628944   1.7222671755   0.0201967220
	    H     1.4656076234  -1.4447015088  -1.5162727408
	    H     0.3586186677   0.4351319048   2.1746646596
	    H     3.3569460804  -2.4357001607  -0.3415135560
	    H     2.2818413692  -0.6641304450   3.1994008512
	Saving final (previous) structure.
			--------------------------
			 OPTKING Finished Execution 
			--------------------------

    Final optimized geometry and variables:
    Molecular point group: c1
    Full point group: C1

    Geometry (in Angstrom), charge = 0, multiplicity = 1:

    C           -1.409134397587     0.971024819052    -2.596320169162
    C           -2.515462151658     1.469445549359    -1.923288994549
    C           -0.376129449864     0.382639802268    -1.888276451975
    C           -2.573280076718     1.363210345528    -0.544259143036
    C            1.604105412345    -1.218141899181    -0.471626964235
    C            0.976733957669    -0.203759527857     1.570497067015
    C            2.671232272738    -1.794833019848     0.194912481610
    C            2.074563075349    -0.820462115132     2.150037085687
    C           -0.388187875923     0.273163805621    -0.493035832403
    C            0.705500049779    -0.401279290286     0.215817000548
    C           -1.528625872321     0.770549261967     0.135807363561
    N            2.923870674194    -1.611586793737     1.492796020225
    F           -1.668391949215     0.654884756271     1.471596983617
    H           -1.345774456973     1.044818819959    -3.670404900041
    H           -3.326942007801     1.932713902272    -2.462246876794
    H            0.487195724975     0.031446044383    -2.429386314111
    H           -3.418562894450     1.722267175455     0.020196721990
    H            1.465607623364    -1.444701508757    -1.516272740790
    H            0.358618667720     0.435131904752     2.174664659622
    H            3.356946080419    -2.435700160750    -0.341513556015
    H            2.281841369201    -0.664130445046     3.199400851228

	Cleaning optimization helper files.

*** Psi4 exiting successfully. Buy a developer a beer!
