
    -----------------------------------------------------------------------
          Psi4: An Open-Source Ab Initio Electronic Structure Package
                               Psi4 1.1 release

                         Git: Rev {HEAD} add49b9 


    R. M. Parrish, L. A. Burns, D. G. A. Smith, A. C. Simmonett,
    A. E. DePrince III, E. G. Hohenstein, U. Bozkaya, A. Yu. Sokolov,
    R. Di Remigio, R. M. Richard, J. F. Gonthier, A. M. James,
    H. R. McAlexander, A. Kumar, M. Saitow, X. Wang, B. P. Pritchard,
    P. Verma, H. F. Schaefer III, K. Patkowski, R. A. King, E. F. Valeev,
    F. A. Evangelista, J. M. Turney, T. D. Crawford, and C. D. Sherrill,
    J. Chem. Theory Comput. in press (2017).
    (doi: 10.1021/acs.jctc.7b00174)

    -----------------------------------------------------------------------


    Psi4 started on: Monday, 13 November 2017 07:27PM

    Process ID:  26308
    PSIDATADIR: /cbio/jclab/home/chayas/anaconda/envs/py35/share/psi4
    Memory:     500.0 MiB
    Threads:    8
    
  ==> Input File <==

--------------------------------------------------------------------------

memory 8 Gb

molecule phepyrFOH_neutral {
  symmetry C1
  0 1 
  C      1.885   -1.036   -0.112
  C      0.807   -0.463   0.561
  C      4.246   -1.941   -1.440
  C      4.907   -3.080   0.573
  C      1.800   -1.079   2.676
  C      5.330   -2.534   -2.067
  C      5.962   -3.622   -0.144
  C      2.921   -1.631   0.608
  C      4.038   -2.225   -0.095
  C      0.764   -0.484   1.955
  C      2.878   -1.652   2.002
  N      6.197   -3.370   -1.452
  O      -0.289   0.076   2.612
  F      3.866   -2.220   2.709
  H      1.904   -1.012   -1.199
  H      0.002   -0.002   -0.006
  H      3.590   -1.278   -1.994
  H      4.776   -3.325   1.622
  H      1.772   -1.099   3.762
  H      5.538   -2.344   -3.115
  H      6.667   -4.295   0.330
  H      -0.175   -0.018   3.571
  units Angstrom
}

dih_string = "1 8 9 3 15"
set optking { fixed_dihedral = $dih_string
              opt_coordinates = cartesian
              dynamic_level = 1
              geom_maxiter = 250
              print_trajectory_xyz_file = True }

optimize('MP2/aug-cc-PVTZ')
--------------------------------------------------------------------------

  Memory set to   7.451 GiB by Python driver.
gradient() will perform analytic gradient computation.

*** tstart() called on gpu-2-11.local
*** at Mon Nov 13 19:27:44 2017

    SCF Algorithm Type (re)set to DF.

*** tstart() called on gpu-2-11.local
*** at Mon Nov 13 19:27:44 2017

   => Loading Basis Set <=

    Name: AUG-CC-PVTZ
    Role: ORBITAL
    Keyword: BASIS
    atoms 1-11  entry C          line   221 file /cbio/jclab/home/chayas/anaconda/envs/py35/share/psi4/basis/aug-cc-pvtz.gbs 
    atoms 12    entry N          line   267 file /cbio/jclab/home/chayas/anaconda/envs/py35/share/psi4/basis/aug-cc-pvtz.gbs 
    atoms 13    entry O          line   313 file /cbio/jclab/home/chayas/anaconda/envs/py35/share/psi4/basis/aug-cc-pvtz.gbs 
    atoms 14    entry F          line   359 file /cbio/jclab/home/chayas/anaconda/envs/py35/share/psi4/basis/aug-cc-pvtz.gbs 
    atoms 15-22 entry H          line    34 file /cbio/jclab/home/chayas/anaconda/envs/py35/share/psi4/basis/aug-cc-pvtz.gbs 


         ---------------------------------------------------------
                                   SCF
            by Justin Turney, Rob Parrish, and Andy Simmonett
                              RHF Reference
                        8 Threads,   7629 MiB Core
         ---------------------------------------------------------

  ==> Geometry <==

    Molecular point group: c1
    Full point group: C1

    Geometry (in Angstrom), charge = 0, multiplicity = 1:

       Center              X                  Y                   Z               Mass       
    ------------   -----------------  -----------------  -----------------  -----------------
           C         -1.322045162032     0.754937534504    -0.800204113366    12.000000000000
           C         -2.400045162032     1.327937534504    -0.127204113366    12.000000000000
           C          1.038954837968    -0.150062465496    -2.128204113366    12.000000000000
           C          1.699954837968    -1.289062465496    -0.115204113366    12.000000000000
           C         -1.407045162032     0.711937534504     1.987795886634    12.000000000000
           C          2.122954837968    -0.743062465496    -2.755204113366    12.000000000000
           C          2.754954837968    -1.831062465496    -0.832204113366    12.000000000000
           C         -0.286045162032     0.159937534504    -0.080204113366    12.000000000000
           C          0.830954837968    -0.434062465496    -0.783204113366    12.000000000000
           C         -2.443045162032     1.306937534504     1.266795886634    12.000000000000
           C         -0.329045162032     0.138937534504     1.313795886634    12.000000000000
           N          2.989954837968    -1.579062465496    -2.140204113366    14.003074004780
           O         -3.496045162032     1.866937534504     1.923795886634    15.994914619560
           F          0.658954837968    -0.429062465496     2.020795886634    18.998403224000
           H         -1.303045162032     0.778937534504    -1.887204113366     1.007825032070
           H         -3.205045162032     1.788937534504    -0.694204113366     1.007825032070
           H          0.382954837968     0.512937534504    -2.682204113366     1.007825032070
           H          1.568954837968    -1.534062465496     0.933795886634     1.007825032070
           H         -1.435045162032     0.691937534504     3.073795886634     1.007825032070
           H          2.330954837968    -0.553062465496    -3.803204113366     1.007825032070
           H          3.459954837968    -2.504062465496    -0.358204113366     1.007825032070
           H         -3.382045162032     1.772937534504     2.882795886634     1.007825032070

  Running in c1 symmetry.

  Rotational constants: A =      0.06327  B =      0.01361  C =      0.01126 [cm^-1]
  Rotational constants: A =   1896.84661  B =    407.96623  C =    337.50176 [MHz]
  Nuclear repulsion =  817.631221960719131

  Charge       = 0
  Multiplicity = 1
  Electrons    = 98
  Nalpha       = 49
  Nbeta        = 49

  ==> Algorithm <==

  SCF Algorithm Type is DF.
  DIIS enabled.
  MOM disabled.
  Fractional occupation disabled.
  Guess Type is SAD.
  Energy threshold   = 1.00e-10
  Density threshold  = 1.00e-10
  Integral threshold = 0.00e+00

  ==> Primary Basis <==

  Basis Set: AUG-CC-PVTZ
    Blend: AUG-CC-PVTZ
    Number of shells: 268
    Number of basis function: 828
    Number of Cartesian functions: 970
    Spherical Harmonics?: true
    Max angular momentum: 3

   => Loading Basis Set <=

    Name: (AUG-CC-PVTZ AUX)
    Role: JKFIT
    Keyword: DF_BASIS_SCF
    atoms 1-11  entry C          line   161 file /cbio/jclab/home/chayas/anaconda/envs/py35/share/psi4/basis/aug-cc-pvtz-jkfit.gbs 
    atoms 12    entry N          line   223 file /cbio/jclab/home/chayas/anaconda/envs/py35/share/psi4/basis/aug-cc-pvtz-jkfit.gbs 
    atoms 13    entry O          line   285 file /cbio/jclab/home/chayas/anaconda/envs/py35/share/psi4/basis/aug-cc-pvtz-jkfit.gbs 
    atoms 14    entry F          line   347 file /cbio/jclab/home/chayas/anaconda/envs/py35/share/psi4/basis/aug-cc-pvtz-jkfit.gbs 
    atoms 15-22 entry H          line    69 file /cbio/jclab/home/chayas/anaconda/envs/py35/share/psi4/basis/aug-cc-pvtz-jkfit.gbs 

  ==> Pre-Iterations <==

   -------------------------------------------------------
    Irrep   Nso     Nmo     Nalpha   Nbeta   Ndocc  Nsocc
   -------------------------------------------------------
     A        828     828       0       0       0       0
   -------------------------------------------------------
    Total     828     828      49      49      49       0
   -------------------------------------------------------

  ==> Integral Setup <==

  ==> DFJK: Density-Fitted J/K Matrices <==

    J tasked:                  Yes
    K tasked:                  Yes
    wK tasked:                  No
    OpenMP threads:              8
    Integrals threads:           8
    Memory (MB):              5722
    Algorithm:                Core
    Integral Cache:           NONE
    Schwarz Cutoff:          1E-12
    Fitting Condition:       1E-12

   => Auxiliary Basis Set <=

  Basis Set: (AUG-CC-PVTZ AUX)
    Blend: AUG-CC-PVTZ-JKFIT
    Number of shells: 532
    Number of basis function: 1824
    Number of Cartesian functions: 2274
    Spherical Harmonics?: true
    Max angular momentum: 4

  Minimum eigenvalue in the overlap matrix is 5.9040731673E-07.
  Using Symmetric Orthogonalization.

  SCF Guess: Superposition of Atomic Densities via on-the-fly atomic UHF.

  ==> Iterations <==

                           Total Energy        Delta E     RMS |[F,P]|

   @DF-RHF iter   0:  -655.58286805496687   -6.55583e+02   1.65354e-02 
   @DF-RHF iter   1:  -649.74754843565916    5.83532e+00   2.13054e-03 
   @DF-RHF iter   2:  -650.09812612213693   -3.50578e-01   6.85859e-04 DIIS
   @DF-RHF iter   3:  -650.14661557511920   -4.84895e-02   2.84467e-04 DIIS
   @DF-RHF iter   4:  -650.15909643383793   -1.24809e-02   9.96518e-05 DIIS
   @DF-RHF iter   5:  -650.16032886463620   -1.23243e-03   2.50083e-05 DIIS
   @DF-RHF iter   6:  -650.16053202571857   -2.03161e-04   1.05320e-05 DIIS
   @DF-RHF iter   7:  -650.16055656169101   -2.45360e-05   3.10973e-06 DIIS
   @DF-RHF iter   8:  -650.16055823503257   -1.67334e-06   1.93686e-06 DIIS
   @DF-RHF iter   9:  -650.16055856807782   -3.33045e-07   4.74796e-07 DIIS
   @DF-RHF iter  10:  -650.16055865433373   -8.62559e-08   2.40128e-07 DIIS
   @DF-RHF iter  11:  -650.16055867916452   -2.48308e-08   1.13244e-07 DIIS
   @DF-RHF iter  12:  -650.16055868439321   -5.22869e-09   4.28973e-08 DIIS
   @DF-RHF iter  13:  -650.16055868504986   -6.56655e-10   1.47063e-08 DIIS
   @DF-RHF iter  14:  -650.16055868512899   -7.91260e-11   5.98098e-09 DIIS
   @DF-RHF iter  15:  -650.16055868513990   -1.09139e-11   2.42425e-09 DIIS
   @DF-RHF iter  16:  -650.16055868514286   -2.95586e-12   7.08204e-10 DIIS
   @DF-RHF iter  17:  -650.16055868513331    9.54969e-12   5.21542e-10 DIIS
   @DF-RHF iter  18:  -650.16055868513763   -4.32010e-12   2.38139e-10 DIIS
   @DF-RHF iter  19:  -650.16055868513638    1.25056e-12   7.48123e-11 DIIS

  ==> Post-Iterations <==

    Orbital Energies (a.u.)
    -----------------------

    Doubly Occupied:                                                      

       1A    -26.335839     2A    -20.612635     3A    -15.559361  
       4A    -11.354386     5A    -11.332045     6A    -11.271645  
       7A    -11.268940     8A    -11.267691     9A    -11.264032  
      10A    -11.258006    11A    -11.255755    12A    -11.249414  
      13A    -11.236017    14A    -11.226366    15A     -1.659476  
      16A     -1.427126    17A     -1.245515    18A     -1.184890  
      19A     -1.110521    20A     -1.045978    21A     -1.030782  
      22A     -1.020264    23A     -0.897483    24A     -0.882138  
      25A     -0.852375    26A     -0.827195    27A     -0.775186  
      28A     -0.757538    29A     -0.726447    30A     -0.720863  
      31A     -0.709143    32A     -0.677564    33A     -0.652984  
      34A     -0.641202    35A     -0.628866    36A     -0.612493  
      37A     -0.610326    38A     -0.589919    39A     -0.577923  
      40A     -0.547184    41A     -0.542765    42A     -0.535061  
      43A     -0.507102    44A     -0.500566    45A     -0.413777  
      46A     -0.404551    47A     -0.363123    48A     -0.345389  
      49A     -0.310380  

    Virtual:                                                              

      50A      0.020773    51A      0.027898    52A      0.034952  
      53A      0.039898    54A      0.044456    55A      0.049247  
      56A      0.057282    57A      0.060509    58A      0.071976  
      59A      0.076600    60A      0.080797    61A      0.083460  
      62A      0.089644    63A      0.091463    64A      0.097854  
      65A      0.101388    66A      0.104251    67A      0.109413  
      68A      0.110979    69A      0.112018    70A      0.116638  
      71A      0.119270    72A      0.126801    73A      0.130666  
      74A      0.133681    75A      0.136785    76A      0.138614  
      77A      0.141295    78A      0.143767    79A      0.144573  
      80A      0.151409    81A      0.152228    82A      0.156838  
      83A      0.164760    84A      0.166305    85A      0.171627  
      86A      0.176976    87A      0.181284    88A      0.186251  
      89A      0.188639    90A      0.194643    91A      0.201941  
      92A      0.207428    93A      0.211816    94A      0.220302  
      95A      0.224352    96A      0.228005    97A      0.228892  
      98A      0.233644    99A      0.239413   100A      0.243976  
     101A      0.246933   102A      0.248036   103A      0.254698  
     104A      0.257752   105A      0.262343   106A      0.263689  
     107A      0.268706   108A      0.271223   109A      0.276075  
     110A      0.279233   111A      0.283656   112A      0.288486  
     113A      0.292951   114A      0.298289   115A      0.303275  
     116A      0.304450   117A      0.306859   118A      0.314189  
     119A      0.317786   120A      0.321527   121A      0.326208  
     122A      0.327742   123A      0.333907   124A      0.340674  
     125A      0.345084   126A      0.345820   127A      0.349587  
     128A      0.356142   129A      0.363394   130A      0.372333  
     131A      0.372546   132A      0.383358   133A      0.387187  
     134A      0.390701   135A      0.395214   136A      0.400850  
     137A      0.405483   138A      0.408815   139A      0.412976  
     140A      0.423366   141A      0.423818   142A      0.426298  
     143A      0.431111   144A      0.433426   145A      0.434312  
     146A      0.438204   147A      0.447117   148A      0.448514  
     149A      0.449044   150A      0.455644   151A      0.456898  
     152A      0.465681   153A      0.467567   154A      0.470272  
     155A      0.473581   156A      0.478424   157A      0.480826  
     158A      0.487315   159A      0.490392   160A      0.491955  
     161A      0.499206   162A      0.500502   163A      0.503034  
     164A      0.506358   165A      0.509598   166A      0.510525  
     167A      0.513634   168A      0.514970   169A      0.522513  
     170A      0.525174   171A      0.528998   172A      0.536267  
     173A      0.538095   174A      0.543855   175A      0.548343  
     176A      0.551557   177A      0.558366   178A      0.560969  
     179A      0.569333   180A      0.570212   181A      0.575454  
     182A      0.576947   183A      0.591985   184A      0.594571  
     185A      0.595596   186A      0.599863   187A      0.604839  
     188A      0.618286   189A      0.623124   190A      0.625541  
     191A      0.636054   192A      0.638463   193A      0.646875  
     194A      0.652770   195A      0.659712   196A      0.662210  
     197A      0.676172   198A      0.683662   199A      0.688871  
     200A      0.692128   201A      0.695238   202A      0.699349  
     203A      0.703486   204A      0.709327   205A      0.715081  
     206A      0.723182   207A      0.726008   208A      0.729742  
     209A      0.742202   210A      0.745962   211A      0.749823  
     212A      0.751913   213A      0.759277   214A      0.768735  
     215A      0.771372   216A      0.780466   217A      0.784362  
     218A      0.789463   219A      0.792473   220A      0.804632  
     221A      0.808981   222A      0.811721   223A      0.816752  
     224A      0.822516   225A      0.827023   226A      0.830477  
     227A      0.843574   228A      0.843918   229A      0.855759  
     230A      0.859869   231A      0.862877   232A      0.864873  
     233A      0.867701   234A      0.876285   235A      0.885423  
     236A      0.890034   237A      0.894186   238A      0.895665  
     239A      0.900215   240A      0.902091   241A      0.907558  
     242A      0.915700   243A      0.921143   244A      0.923214  
     245A      0.931633   246A      0.935276   247A      0.938801  
     248A      0.944136   249A      0.949885   250A      0.951871  
     251A      0.959057   252A      0.962419   253A      0.969310  
     254A      0.970250   255A      0.972624   256A      0.977341  
     257A      0.978818   258A      0.981778   259A      0.990363  
     260A      0.993268   261A      0.995594   262A      1.005923  
     263A      1.008433   264A      1.013859   265A      1.016503  
     266A      1.025443   267A      1.029395   268A      1.033087  
     269A      1.034689   270A      1.039833   271A      1.044643  
     272A      1.045751   273A      1.052999   274A      1.055399  
     275A      1.062003   276A      1.067003   277A      1.070970  
     278A      1.076946   279A      1.079582   280A      1.089436  
     281A      1.091799   282A      1.095808   283A      1.099443  
     284A      1.102411   285A      1.114084   286A      1.117940  
     287A      1.120196   288A      1.125796   289A      1.131905  
     290A      1.135772   291A      1.139724   292A      1.144145  
     293A      1.147687   294A      1.151098   295A      1.166396  
     296A      1.169147   297A      1.174003   298A      1.181311  
     299A      1.182649   300A      1.183325   301A      1.187653  
     302A      1.194512   303A      1.198614   304A      1.204818  
     305A      1.207185   306A      1.211384   307A      1.214367  
     308A      1.223765   309A      1.230728   310A      1.231984  
     311A      1.239991   312A      1.251497   313A      1.258630  
     314A      1.265680   315A      1.268481   316A      1.272610  
     317A      1.277577   318A      1.279237   319A      1.294163  
     320A      1.300563   321A      1.303328   322A      1.308422  
     323A      1.316726   324A      1.319178   325A      1.322075  
     326A      1.330440   327A      1.335012   328A      1.337169  
     329A      1.355179   330A      1.365740   331A      1.368771  
     332A      1.378027   333A      1.382563   334A      1.388844  
     335A      1.392974   336A      1.399795   337A      1.406045  
     338A      1.421917   339A      1.423090   340A      1.436364  
     341A      1.441791   342A      1.453374   343A      1.454561  
     344A      1.467072   345A      1.472671   346A      1.479951  
     347A      1.486958   348A      1.496974   349A      1.507726  
     350A      1.514265   351A      1.527867   352A      1.531606  
     353A      1.537678   354A      1.559096   355A      1.562553  
     356A      1.568814   357A      1.577958   358A      1.585580  
     359A      1.587136   360A      1.601975   361A      1.608626  
     362A      1.612217   363A      1.620246   364A      1.627015  
     365A      1.633067   366A      1.643925   367A      1.650715  
     368A      1.663513   369A      1.669485   370A      1.673081  
     371A      1.674987   372A      1.689592   373A      1.697357  
     374A      1.704408   375A      1.709994   376A      1.722537  
     377A      1.726882   378A      1.734627   379A      1.736584  
     380A      1.739911   381A      1.748023   382A      1.758595  
     383A      1.768223   384A      1.777634   385A      1.786196  
     386A      1.799508   387A      1.802661   388A      1.805362  
     389A      1.811928   390A      1.817141   391A      1.826814  
     392A      1.834087   393A      1.838490   394A      1.850389  
     395A      1.855535   396A      1.862035   397A      1.868281  
     398A      1.880190   399A      1.889258   400A      1.898236  
     401A      1.910140   402A      1.917574   403A      1.928337  
     404A      1.930355   405A      1.939220   406A      1.950021  
     407A      1.956795   408A      1.966350   409A      1.973482  
     410A      1.975470   411A      1.986395   412A      1.989242  
     413A      2.000415   414A      2.006329   415A      2.011928  
     416A      2.020656   417A      2.028769   418A      2.032763  
     419A      2.038434   420A      2.043865   421A      2.051065  
     422A      2.051769   423A      2.063479   424A      2.070544  
     425A      2.075995   426A      2.090448   427A      2.104887  
     428A      2.112424   429A      2.115385   430A      2.121926  
     431A      2.132524   432A      2.133019   433A      2.147375  
     434A      2.153807   435A      2.164000   436A      2.169314  
     437A      2.182717   438A      2.186680   439A      2.193906  
     440A      2.196522   441A      2.204062   442A      2.212979  
     443A      2.223342   444A      2.225242   445A      2.233955  
     446A      2.243955   447A      2.245553   448A      2.257999  
     449A      2.284370   450A      2.291232   451A      2.296351  
     452A      2.301393   453A      2.309125   454A      2.318385  
     455A      2.332285   456A      2.340908   457A      2.345723  
     458A      2.358485   459A      2.362336   460A      2.380383  
     461A      2.403419   462A      2.404960   463A      2.418179  
     464A      2.422406   465A      2.439291   466A      2.448318  
     467A      2.455939   468A      2.464927   469A      2.473451  
     470A      2.485562   471A      2.499245   472A      2.514257  
     473A      2.516176   474A      2.533651   475A      2.546117  
     476A      2.550926   477A      2.561044   478A      2.575236  
     479A      2.585381   480A      2.596523   481A      2.613957  
     482A      2.614847   483A      2.646136   484A      2.648801  
     485A      2.656154   486A      2.692907   487A      2.705593  
     488A      2.718632   489A      2.741712   490A      2.749156  
     491A      2.769466   492A      2.782217   493A      2.787789  
     494A      2.812650   495A      2.836351   496A      2.837544  
     497A      2.850581   498A      2.856648   499A      2.871945  
     500A      2.886951   501A      2.894695   502A      2.923907  
     503A      2.948672   504A      2.973865   505A      3.004863  
     506A      3.016943   507A      3.033585   508A      3.039498  
     509A      3.061593   510A      3.083915   511A      3.096135  
     512A      3.107647   513A      3.113080   514A      3.127561  
     515A      3.156965   516A      3.165004   517A      3.182775  
     518A      3.192108   519A      3.202495   520A      3.215546  
     521A      3.224953   522A      3.236838   523A      3.251691  
     524A      3.266576   525A      3.271944   526A      3.301308  
     527A      3.303217   528A      3.322409   529A      3.333978  
     530A      3.343830   531A      3.345886   532A      3.360352  
     533A      3.364616   534A      3.373068   535A      3.379044  
     536A      3.392873   537A      3.405789   538A      3.412158  
     539A      3.428552   540A      3.442498   541A      3.443895  
     542A      3.456634   543A      3.464759   544A      3.468872  
     545A      3.474548   546A      3.491978   547A      3.497208  
     548A      3.504675   549A      3.508564   550A      3.523180  
     551A      3.530061   552A      3.539052   553A      3.546926  
     554A      3.552284   555A      3.559391   556A      3.572450  
     557A      3.576027   558A      3.594893   559A      3.598684  
     560A      3.607096   561A      3.618354   562A      3.622931  
     563A      3.630788   564A      3.640087   565A      3.646720  
     566A      3.665522   567A      3.670687   568A      3.683195  
     569A      3.693345   570A      3.700364   571A      3.703137  
     572A      3.710504   573A      3.727939   574A      3.743651  
     575A      3.750827   576A      3.753946   577A      3.761952  
     578A      3.767600   579A      3.780992   580A      3.786294  
     581A      3.802098   582A      3.806747   583A      3.810099  
     584A      3.826024   585A      3.841122   586A      3.844868  
     587A      3.857152   588A      3.859993   589A      3.862027  
     590A      3.871482   591A      3.882542   592A      3.894864  
     593A      3.899866   594A      3.913887   595A      3.918988  
     596A      3.922910   597A      3.935402   598A      3.940817  
     599A      3.951813   600A      3.955010   601A      3.966333  
     602A      3.975144   603A      3.976661   604A      3.983664  
     605A      3.992132   606A      4.006154   607A      4.011132  
     608A      4.023365   609A      4.028482   610A      4.036975  
     611A      4.053059   612A      4.056350   613A      4.070062  
     614A      4.073885   615A      4.094189   616A      4.101225  
     617A      4.106025   618A      4.118168   619A      4.135073  
     620A      4.139998   621A      4.153141   622A      4.164939  
     623A      4.174381   624A      4.180469   625A      4.188141  
     626A      4.191579   627A      4.208466   628A      4.211665  
     629A      4.213443   630A      4.227146   631A      4.241040  
     632A      4.246886   633A      4.253098   634A      4.260846  
     635A      4.277616   636A      4.286180   637A      4.297641  
     638A      4.306465   639A      4.309631   640A      4.317568  
     641A      4.329978   642A      4.334399   643A      4.336982  
     644A      4.345811   645A      4.357857   646A      4.371893  
     647A      4.373392   648A      4.380987   649A      4.400269  
     650A      4.406413   651A      4.412368   652A      4.426508  
     653A      4.435402   654A      4.452102   655A      4.456568  
     656A      4.465803   657A      4.469623   658A      4.477514  
     659A      4.499191   660A      4.505395   661A      4.513238  
     662A      4.516278   663A      4.524818   664A      4.543156  
     665A      4.549878   666A      4.553722   667A      4.574816  
     668A      4.590365   669A      4.593007   670A      4.609862  
     671A      4.619664   672A      4.629556   673A      4.639843  
     674A      4.644203   675A      4.666663   676A      4.675040  
     677A      4.683200   678A      4.706828   679A      4.720682  
     680A      4.738839   681A      4.744448   682A      4.766478  
     683A      4.779246   684A      4.786747   685A      4.793178  
     686A      4.810649   687A      4.827381   688A      4.832188  
     689A      4.870672   690A      4.881050   691A      4.886811  
     692A      4.897554   693A      4.914471   694A      4.921973  
     695A      4.949668   696A      4.959086   697A      4.965545  
     698A      4.990006   699A      4.993716   700A      5.001352  
     701A      5.020700   702A      5.034236   703A      5.036970  
     704A      5.055590   705A      5.062583   706A      5.079623  
     707A      5.095514   708A      5.108970   709A      5.116308  
     710A      5.119535   711A      5.125492   712A      5.131948  
     713A      5.149257   714A      5.164676   715A      5.173054  
     716A      5.178010   717A      5.197422   718A      5.199956  
     719A      5.219480   720A      5.233997   721A      5.258914  
     722A      5.273387   723A      5.282203   724A      5.308339  
     725A      5.330804   726A      5.340578   727A      5.345462  
     728A      5.357264   729A      5.373099   730A      5.410473  
     731A      5.426767   732A      5.436964   733A      5.461698  
     734A      5.466612   735A      5.484016   736A      5.512055  
     737A      5.543164   738A      5.551056   739A      5.564816  
     740A      5.573817   741A      5.592623   742A      5.611835  
     743A      5.625723   744A      5.673499   745A      5.699021  
     746A      5.726463   747A      5.754006   748A      5.777424  
     749A      5.796169   750A      5.804669   751A      5.807464  
     752A      5.838775   753A      5.850058   754A      5.866332  
     755A      5.887369   756A      5.911929   757A      5.937734  
     758A      5.992291   759A      6.011492   760A      6.087618  
     761A      6.096749   762A      6.168500   763A      6.176748  
     764A      6.215918   765A      6.253018   766A      6.283797  
     767A      6.314664   768A      6.359608   769A      6.382448  
     770A      6.419389   771A      6.459061   772A      6.486500  
     773A      6.511961   774A      6.584809   775A      6.592027  
     776A      6.647986   777A      6.698634   778A      6.720964  
     779A      6.736297   780A      6.744874   781A      6.762346  
     782A      6.880447   783A      6.882041   784A      6.888221  
     785A      6.932053   786A      6.969309   787A      6.989804  
     788A      7.044856   789A      7.085651   790A      7.100809  
     791A      7.201705   792A      7.248119   793A      7.399373  
     794A      7.413251   795A      7.444988   796A      7.500140  
     797A      7.670707   798A      7.688691   799A      7.743919  
     800A      7.999227   801A      8.375625   802A      8.628060  
     803A      9.139425   804A      9.204972   805A      9.295620  
     806A      9.348514   807A      9.431128   808A      9.542204  
     809A      9.560856   810A      9.618747   811A      9.708301  
     812A      9.736951   813A     10.084038   814A     10.106114  
     815A     15.581507   816A     16.250749   817A     16.590778  
     818A     16.879398   819A     16.941647   820A     17.283852  
     821A     18.568531   822A     18.923783   823A     19.657791  
     824A     19.924648   825A     20.430267   826A     20.519809  
     827A     20.912266   828A     21.411355  

    Final Occupation by Irrep:
              A 
    DOCC [    49 ]

  Energy converged.

  @DF-RHF Final Energy:  -650.16055868513638

   => Energetics <=

    Nuclear Repulsion Energy =            817.6312219607191309
    One-Electron Energy =               -2509.9311064951953085
    Two-Electron Energy =                1042.1393258493396843
    DFT Exchange-Correlation Energy =       0.0000000000000000
    Empirical Dispersion Energy =           0.0000000000000000
    PCM Polarization Energy =               0.0000000000000000
    EFP Energy =                            0.0000000000000000
    Total Energy =                       -650.1605586851364933



Properties will be evaluated at   0.000000,   0.000000,   0.000000 Bohr

Properties computed using the SCF density matrix

  Nuclear Dipole Moment: (a.u.)
     X:    -2.1305      Y:     1.3131      Z:    -4.2670

  Electronic Dipole Moment: (a.u.)
     X:     0.9853      Y:    -0.7157      Z:     5.0764

  Dipole Moment: (a.u.)
     X:    -1.1452      Y:     0.5975      Z:     0.8093     Total:     1.5243

  Dipole Moment: (Debye)
     X:    -2.9108      Y:     1.5186      Z:     2.0571     Total:     3.8744


*** tstop() called on gpu-2-11.local at Mon Nov 13 19:35:21 2017
Module time:
	user time   =    1378.93 seconds =      22.98 minutes
	system time =       9.25 seconds =       0.15 minutes
	total time  =        457 seconds =       7.62 minutes
Total time:
	user time   =    1378.93 seconds =      22.98 minutes
	system time =       9.25 seconds =       0.15 minutes
	total time  =        457 seconds =       7.62 minutes

  //>>>>>>>>>>>>>>>>>>>>>>>>>>>>>>>>>>>//
  //               DFMP2               //
  //<<<<<<<<<<<<<<<<<<<<<<<<<<<<<<<<<<<//

   => Loading Basis Set <=

    Name: (AUG-CC-PVTZ AUX)
    Role: RIFIT
    Keyword: DF_BASIS_MP2
    atoms 1-11  entry C          line   147 file /cbio/jclab/home/chayas/anaconda/envs/py35/share/psi4/basis/aug-cc-pvtz-ri.gbs 
    atoms 12    entry N          line   205 file /cbio/jclab/home/chayas/anaconda/envs/py35/share/psi4/basis/aug-cc-pvtz-ri.gbs 
    atoms 13    entry O          line   263 file /cbio/jclab/home/chayas/anaconda/envs/py35/share/psi4/basis/aug-cc-pvtz-ri.gbs 
    atoms 14    entry F          line   321 file /cbio/jclab/home/chayas/anaconda/envs/py35/share/psi4/basis/aug-cc-pvtz-ri.gbs 
    atoms 15-22 entry H          line    29 file /cbio/jclab/home/chayas/anaconda/envs/py35/share/psi4/basis/aug-cc-pvtz-ri.gbs 

	 --------------------------------------------------------
	                          DF-MP2                         
	      2nd-Order Density-Fitted Moller-Plesset Theory     
	              RMP2 Wavefunction,   8 Threads             
	                                                         
	        Rob Parrish, Justin Turney, Andy Simmonett,      
	           Ed Hohenstein, and C. David Sherrill          
	 --------------------------------------------------------

   => Auxiliary Basis Set <=

  Basis Set: (AUG-CC-PVTZ AUX)
    Blend: AUG-CC-PVTZ-RI
    Number of shells: 504
    Number of basis function: 1852
    Number of Cartesian functions: 2344
    Spherical Harmonics?: true
    Max angular momentum: 4

	 --------------------------------------------------------
	                 NBF =   828, NAUX =  1852
	 --------------------------------------------------------
	   CLASS    FOCC     OCC    AOCC    AVIR     VIR    FVIR
	   PAIRS       0      49      49     779     779       0
	 --------------------------------------------------------


         ------------------------------------------------------------
                                     CPHF                           
                                  Rob Parrish                       
         ------------------------------------------------------------

  ==> Geometry <==

    Molecular point group: c1
    Full point group: C1

    Geometry (in Angstrom), charge = 0, multiplicity = 1:

       Center              X                  Y                   Z               Mass       
    ------------   -----------------  -----------------  -----------------  -----------------
           C         -1.322045162032     0.754937534504    -0.800204113366    12.000000000000
           C         -2.400045162032     1.327937534504    -0.127204113366    12.000000000000
           C          1.038954837968    -0.150062465496    -2.128204113366    12.000000000000
           C          1.699954837968    -1.289062465496    -0.115204113366    12.000000000000
           C         -1.407045162032     0.711937534504     1.987795886634    12.000000000000
           C          2.122954837968    -0.743062465496    -2.755204113366    12.000000000000
           C          2.754954837968    -1.831062465496    -0.832204113366    12.000000000000
           C         -0.286045162032     0.159937534504    -0.080204113366    12.000000000000
           C          0.830954837968    -0.434062465496    -0.783204113366    12.000000000000
           C         -2.443045162032     1.306937534504     1.266795886634    12.000000000000
           C         -0.329045162032     0.138937534504     1.313795886634    12.000000000000
           N          2.989954837968    -1.579062465496    -2.140204113366    14.003074004780
           O         -3.496045162032     1.866937534504     1.923795886634    15.994914619560
           F          0.658954837968    -0.429062465496     2.020795886634    18.998403224000
           H         -1.303045162032     0.778937534504    -1.887204113366     1.007825032070
           H         -3.205045162032     1.788937534504    -0.694204113366     1.007825032070
           H          0.382954837968     0.512937534504    -2.682204113366     1.007825032070
           H          1.568954837968    -1.534062465496     0.933795886634     1.007825032070
           H         -1.435045162032     0.691937534504     3.073795886634     1.007825032070
           H          2.330954837968    -0.553062465496    -3.803204113366     1.007825032070
           H          3.459954837968    -2.504062465496    -0.358204113366     1.007825032070
           H         -3.382045162032     1.772937534504     2.882795886634     1.007825032070

  Nuclear repulsion =  817.631221960719131
  Reference energy  = -650.160558685136380

  ==> Basis Set <==

  Basis Set: AUG-CC-PVTZ
    Blend: AUG-CC-PVTZ
    Number of shells: 268
    Number of basis function: 828
    Number of Cartesian functions: 970
    Spherical Harmonics?: true
    Max angular momentum: 3

  ==> CGRSolver (by Rob Parrish) <==

   Number of roots    =         1
   Preconditioning    =    JACOBI
   Convergence cutoff =     1E-06
   Maximum iterations =       100

  ==> CPHFRHamiltonian (by Rob Parrish) <== 

  ==> DFJK: Density-Fitted J/K Matrices <==

    J tasked:                  Yes
    K tasked:                  Yes
    wK tasked:                  No
    OpenMP threads:              8
    Integrals threads:           8
    Memory (MB):              5722
    Algorithm:                Core
    Integral Cache:           NONE
    Schwarz Cutoff:          1E-12
    Fitting Condition:       1E-12

   => Auxiliary Basis Set <=

  Basis Set: (AUG-CC-PVTZ AUX)
    Blend: AUG-CC-PVTZ-JKFIT
    Number of shells: 532
    Number of basis function: 1824
    Number of Cartesian functions: 2274
    Spherical Harmonics?: true
    Max angular momentum: 4

  ==> CPHF Iterations <==

  => Iterations <=

             Iter  Converged  Remaining    Residual
  CGR           1          0          1   1.054E-01
  CGR           2          0          1   3.696E-02
  CGR           3          0          1   2.561E-02
  CGR           4          0          1   1.082E-02
  CGR           5          0          1   4.593E-03
  CGR           6          0          1   1.745E-03
  CGR           7          0          1   5.018E-04
  CGR           8          0          1   1.663E-04
  CGR           9          0          1   5.692E-05
  CGR          10          0          1   1.987E-05
  CGR          11          0          1   1.034E-05
  CGR          12          0          1   4.331E-06
  CGR          13          0          1   1.886E-06
  CGR          14          1          0   6.068E-07

    CGRSolver converged.

  ==> DFCorrGrad: Density-Fitted Correlated Gradients <==

    OpenMP threads:              8
    Integrals threads:           8
    Memory (MB):              5722
    Schwarz Cutoff:          0E+00
    Fitting Condition:       1E-12

   => Auxiliary Basis Set <=

  Basis Set: (AUG-CC-PVTZ AUX)
    Blend: AUG-CC-PVTZ-JKFIT
    Number of shells: 532
    Number of basis function: 1824
    Number of Cartesian functions: 2274
    Spherical Harmonics?: true
    Max angular momentum: 4

	-----------------------------------------------------------
	 ==================> DF-MP2 Energies <==================== 
	-----------------------------------------------------------
	 Reference Energy          =    -650.1605586851363796 [Eh]
	 Singles Energy            =      -0.0000000000000007 [Eh]
	 Same-Spin Energy          =      -0.6795665786030055 [Eh]
	 Opposite-Spin Energy      =      -2.0220369649984193 [Eh]
	 Correlation Energy        =      -2.7016035436014252 [Eh]
	 Total Energy              =    -652.8621622287378159 [Eh]
	-----------------------------------------------------------
	 ================> DF-SCS-MP2 Energies <================== 
	-----------------------------------------------------------
	 SCS Same-Spin Scale       =       0.3333333333333333 [-]
	 SCS Opposite-Spin Scale   =       1.2000000000000000 [-]
	 SCS Same-Spin Energy      =      -0.2265221928676685 [Eh]
	 SCS Opposite-Spin Energy  =      -2.4264443579981032 [Eh]
	 SCS Correlation Energy    =      -2.6529665508657723 [Eh]
	 SCS Total Energy          =    -652.8135252360021923 [Eh]
	-----------------------------------------------------------


  -Total Gradient:
     Atom            X                  Y                   Z
    ------   -----------------  -----------------  -----------------
       1        0.012868216778    -0.007501302561    -0.017327684898
       2        0.002162227627    -0.001419260400     0.005483344857
       3       -0.009670549709     0.006761391405     0.003011454388
       4       -0.013262513711     0.010354033483     0.007793636560
       5       -0.008868756131     0.004561789592     0.000907884435
       6       -0.009061057977     0.007472702628    -0.001660024383
       7       -0.003863600950    -0.001183216372     0.015517936667
       8       -0.007790098839     0.004559331108     0.002149657103
       9        0.004399993080    -0.003170711516    -0.004153467903
      10       -0.008470820232     0.004514005551    -0.006112777148
      11        0.028853412199    -0.014105987903     0.005923944259
      12        0.011439613854    -0.006379237839    -0.008575918584
      13        0.002541235167    -0.001270391056     0.000745212311
      14        0.010600815404    -0.011905887243    -0.015363380920
      15        0.001139950957     0.001423059360    -0.009125888067
      16       -0.003064156806     0.001990163977    -0.005425981218
      17       -0.005870181946     0.003093590308    -0.002446523704
      18       -0.005012825524     0.002782659720     0.017415757581
      19       -0.001003023261     0.000355832809     0.004290562410
      20        0.001311803796    -0.000005598620    -0.002634836929
      21        0.001749647509    -0.001233215821     0.000262418315
      22       -0.001129331281     0.000306249389     0.009324674875


*** tstop() called on gpu-2-11.local at Mon Nov 13 20:11:44 2017
Module time:
	user time   =    6241.75 seconds =     104.03 minutes
	system time =      43.06 seconds =       0.72 minutes
	total time  =       2640 seconds =      44.00 minutes
Total time:
	user time   =    6241.75 seconds =     104.03 minutes
	system time =      43.06 seconds =       0.72 minutes
	total time  =       2640 seconds =      44.00 minutes

			-----------------------------------------
			 OPTKING 2.0: for geometry optimizations 
			  - R.A. King,  Bethel University        
			-----------------------------------------
	At level 1: Red. Int., RFO, no backsteps, dynamic trust

	Internal coordinates to be generated automatically.
	Detected frag 1 with atoms:  1 2 3 4 5 6 7 8 9 10 11 12 13 14 15 16 17 18 19 20
	 21 22
	---Fragment 1 Bond Connectivity---
	 1 : 2 8 15
	 2 : 1 10 16
	 3 : 6 9 17
	 4 : 7 9 18
	 5 : 10 11 19
	 6 : 3 12 20
	 7 : 4 12 21
	 8 : 1 9 11
	 9 : 3 4 8
	 10 : 2 5 13
	 11 : 5 8 14
	 12 : 6 7
	 13 : 10 22
	 14 : 11
	 15 : 1
	 16 : 2
	 17 : 3
	 18 : 4
	 19 : 5
	 20 : 6
	 21 : 7
	 22 : 13

	Assuming in current code that numbering for constraints corresponds to unified fragment.
	Fixed dihedral atom list: 
	     1     8     9     3
	---Fragment 1 Geometry and Gradient---
	 C          -2.4983032915        1.4266251876       -1.5121666247
	 C          -4.5354280628        2.5094382618       -0.2403809372
	 C           1.9633401082       -0.2835769626       -4.0217229291
	 C           3.2124490820       -2.4359750280       -0.2177042236
	 C          -2.6589300128        1.3453669639        3.7563898338
	 C           4.0118032362       -1.4041845594       -5.2065812145
	 C           5.2061101522       -3.4602065920       -1.5726378609
	 C          -0.5405470179        0.3022381386       -0.1515638090
	 C           1.5702770726       -0.8202591844       -1.4800412804
	 C          -4.6166862865        2.4697540130        2.3938972920
	 C          -0.6218052416        0.2625538898        2.4827144202
	 N           5.6501957935       -2.9839956065       -4.0443996427
	 O          -6.6065679044        3.5280006474        3.6354473613
	 F           1.2452441777       -0.8108105537        3.8187507962
	 H          -2.4623984950        1.4719786148       -3.5662989311
	 H          -6.0566575998        3.3806020091       -1.3118556546
	 H           0.7236797650        0.9693114635       -5.0686312068
	 H           2.9648949586       -2.8989579305        1.7646184898
	 H          -2.7118423446        1.3075724413        5.8086324141
	 H           4.4048662719       -1.0451365942       -7.1870142017
	 H           6.5383670759       -4.7319922794       -0.6769076739
	 H          -6.3911391253        3.3503663909        5.4476947227
	             0.0128682168       -0.0075013026       -0.0173276849
	             0.0021622276       -0.0014192604        0.0054833449
	            -0.0096705497        0.0067613914        0.0030114544
	            -0.0132625137        0.0103540335        0.0077936366
	            -0.0088687561        0.0045617896        0.0009078844
	            -0.0090610580        0.0074727026       -0.0016600244
	            -0.0038636010       -0.0011832164        0.0155179367
	            -0.0077900988        0.0045593311        0.0021496571
	             0.0043999931       -0.0031707115       -0.0041534679
	            -0.0084708202        0.0045140056       -0.0061127771
	             0.0288534122       -0.0141059879        0.0059239443
	             0.0114396139       -0.0063792378       -0.0085759186
	             0.0025412352       -0.0012703911        0.0007452123
	             0.0106008154       -0.0119058872       -0.0153633809
	             0.0011399510        0.0014230594       -0.0091258881
	            -0.0030641568        0.0019901640       -0.0054259812
	            -0.0058701819        0.0030935903       -0.0024465237
	            -0.0050128255        0.0027826597        0.0174157576
	            -0.0010030233        0.0003558328        0.0042905624
	             0.0013118038       -0.0000055986       -0.0026348369
	             0.0017496475       -0.0012332158        0.0002624183
	            -0.0011293313        0.0003062494        0.0093246749

	Previous optimization step data not found.  Starting new optimization.

	---Fragment 1 Intrafragment Coordinates---
	 - Coordinate -           - BOHR/RAD -       - ANG/DEG -
	 R(1,2)           =         2.634350	       1.394038
	 R(1,8)           =         2.635962	       1.394891
	 R(1,15)          =         2.054947	       1.087431
	 R(2,10)          =         2.635830	       1.394821
	 R(2,16)          =         2.054537	       1.087214
	 R(3,6)           =         2.618368	       1.385581
	 R(3,9)           =         2.627294	       1.390304
	 R(3,17)          =         2.050001	       1.084814
	 R(4,7)           =         2.619080	       1.385957
	 R(4,9)           =         2.626930	       1.390112
	 R(4,18)          =         2.050668	       1.085167
	 R(5,10)          =         2.636938	       1.395407
	 R(5,11)          =         2.635263	       1.394521
	 R(5,19)          =         2.053272	       1.086545
	 R(6,12)          =         2.555543	       1.352335
	 R(6,20)          =         2.050739	       1.085204
	 R(7,12)          =         2.556090	       1.352624
	 R(7,21)          =         2.048092	       1.083803
	 R(8,9)           =         2.735038	       1.447320
	 R(8,11)          =         2.635830	       1.394821
	 R(10,13)         =         2.573123	       1.361638
	 R(11,14)         =         2.534359	       1.341125
	 R(13,22)         =         1.833631	       0.970316
	 B(1,2,10)        =         2.094553	     120.009056
	 B(1,2,16)        =         2.088723	     119.675016
	 B(1,8,9)         =         2.091569	     119.838095
	 B(1,8,11)        =         2.093692	     119.959722
	 B(2,1,8)         =         2.094940	     120.031219
	 B(2,1,15)        =         2.079469	     119.144799
	 B(2,10,5)        =         2.094306	     119.994870
	 B(2,10,13)       =         2.094247	     119.991510
	 B(3,6,12)        =         2.165607	     124.080166
	 B(3,6,20)        =         2.108335	     120.798710
	 B(3,9,4)         =         2.090927	     119.801285
	 B(3,9,8)         =         2.096157	     120.100922
	 B(4,7,12)        =         2.164768	     124.032052
	 B(4,7,21)        =         2.108002	     120.779602
	 B(4,9,8)         =         2.096101	     120.097751
	 B(5,10,13)       =         2.094633	     120.013619
	 B(5,11,8)        =         2.095181	     120.045019
	 B(5,11,14)       =         2.081414	     119.256220
	 B(6,3,9)         =         2.057135	     117.865178
	 B(6,3,17)        =         2.098515	     120.236047
	 B(6,12,7)        =         2.030355	     116.330769
	 B(7,4,9)         =         2.057578	     117.890540
	 B(7,4,18)        =         2.098662	     120.244464
	 B(8,1,15)        =         2.108776	     120.823969
	 B(8,11,14)       =         2.106591	     120.698759
	 B(9,3,17)        =         2.127535	     121.898759
	 B(9,4,18)        =         2.126945	     121.864988
	 B(9,8,11)        =         2.097924	     120.202184
	 B(10,2,16)       =         2.099909	     120.315896
	 B(10,5,11)       =         2.093699	     119.960108
	 B(10,5,19)       =         2.100355	     120.341451
	 B(10,13,22)      =         1.924294	     110.253909
	 B(11,5,19)       =         2.089132	     119.698439
	 B(12,6,20)       =         2.009240	     115.120958
	 B(12,7,21)       =         2.010415	     115.188314
	 D(1,2,10,5)      =        -0.000325	      -0.018609
	 D(1,2,10,13)     =         3.141388	     179.988267
	 D(1,8,9,3)       =         0.261708	      14.994763
	 D(1,8,9,4)       =        -2.881178	    -165.079350
	 D(1,8,11,5)      =         0.000325	       0.018608
	 D(1,8,11,14)     =        -3.141528	    -179.996269
	 D(2,1,8,9)       =         3.141277	     179.981897
	 D(2,1,8,11)      =        -0.000348	      -0.019945
	 D(2,10,5,11)     =         0.000301	       0.017261
	 D(2,10,5,19)     =        -3.141029	    -179.967685
	 D(2,10,13,22)    =         3.141285	     179.982383
	 D(3,6,12,7)      =         0.000539	       0.030876
	 D(3,9,4,7)       =        -0.000091	      -0.005202
	 D(3,9,4,18)      =        -3.141108	    -179.972206
	 D(3,9,8,11)      =        -2.879852	    -165.003391
	 D(4,7,12,6)      =        -0.000196	      -0.011227
	 D(4,9,3,6)       =         0.000398	       0.022782
	 D(4,9,3,17)      =        -3.140391	    -179.931126
	 D(4,9,8,11)      =         0.260447	      14.922496
	 D(5,10,2,16)     =         3.140149	     179.917291
	 D(5,10,13,22)    =        -0.000187	      -0.010740
	 D(5,11,8,9)      =        -3.141300	    -179.983240
	 D(6,3,9,8)       =         3.140701	     179.948889
	 D(6,12,7,21)     =         3.140262	     179.923743
	 D(7,4,9,8)       =        -3.140394	    -179.931311
	 D(7,12,6,20)     =         3.139560	     179.883513
	 D(8,1,2,10)      =         0.000348	       0.019955
	 D(8,1,2,16)      =        -3.140133	    -179.916358
	 D(8,9,3,17)      =        -0.000088	      -0.005018
	 D(8,9,4,18)      =         0.001775	       0.101685
	 D(8,11,5,10)     =        -0.000301	      -0.017270
	 D(8,11,5,19)     =         3.141030	     179.967774
	 D(9,3,6,12)      =        -0.000648	      -0.037115
	 D(9,3,6,20)      =        -3.139529	    -179.881784
	 D(9,4,7,12)      =        -0.000015	      -0.000842
	 D(9,4,7,21)      =        -3.140412	    -179.932347
	 D(9,8,1,15)      =         0.000403	       0.023110
	 D(9,8,11,14)     =         0.000033	       0.001883
	 D(10,2,1,15)     =         3.141234	     179.979432
	 D(10,5,11,14)    =         3.141547	     179.997392
	 D(11,5,10,13)    =        -3.141411	    -179.989616
	 D(11,8,1,15)     =        -3.141221	    -179.978731
	 D(12,6,3,17)     =         3.140154	     179.917592
	 D(12,7,4,18)     =         3.141012	     179.966719
	 D(13,10,2,16)    =        -0.001324	      -0.075833
	 D(13,10,5,19)    =         0.000444	       0.025437
	 D(14,11,5,19)    =        -0.000307	      -0.017564
	 D(15,1,2,16)     =         0.000753	       0.043120
	 D(17,3,6,20)     =         0.001273	       0.072923
	 D(18,4,7,21)     =         0.000615	       0.035214
	 R(4,14)          =         4.775356	       2.527009

	Current energy   :      -652.8621622287

	Using model Hessian from Lindh (1995).
	 - Coordinate -           - BOHR/RAD -       - ANG/DEG -
	 R(1,2)           =         2.634350	       1.394038
	 R(1,8)           =         2.635962	       1.394891
	 R(1,15)          =         2.054947	       1.087431
	 R(2,10)          =         2.635830	       1.394821
	 R(2,16)          =         2.054537	       1.087214
	 R(3,6)           =         2.618368	       1.385581
	 R(3,9)           =         2.627294	       1.390304
	 R(3,17)          =         2.050001	       1.084814
	 R(4,7)           =         2.619080	       1.385957
	 R(4,9)           =         2.626930	       1.390112
	 R(4,18)          =         2.050668	       1.085167
	 R(5,10)          =         2.636938	       1.395407
	 R(5,11)          =         2.635263	       1.394521
	 R(5,19)          =         2.053272	       1.086545
	 R(6,12)          =         2.555543	       1.352335
	 R(6,20)          =         2.050739	       1.085204
	 R(7,12)          =         2.556090	       1.352624
	 R(7,21)          =         2.048092	       1.083803
	 R(8,9)           =         2.735038	       1.447320
	 R(8,11)          =         2.635830	       1.394821
	 R(10,13)         =         2.573123	       1.361638
	 R(10,22)         =         3.640033	       1.926222
	 R(11,14)         =         2.534359	       1.341125
	 R(12,20)         =         3.896928	       2.062165
	 R(12,21)         =         3.896709	       2.062050
	 R(13,22)         =         1.833631	       0.970316
	 R(14,18)         =         3.396619	       1.797413
	 R(15,17)         =         3.558198	       1.882917
	 B(1,2,10)        =         2.094553	     120.009056
	 B(1,2,16)        =         2.088723	     119.675016
	 B(1,8,9)         =         2.091569	     119.838095
	 B(1,8,11)        =         2.093692	     119.959722
	 B(1,15,17)       =         2.020365	     115.758387
	 B(2,1,8)         =         2.094940	     120.031219
	 B(2,1,15)        =         2.079469	     119.144799
	 B(2,10,5)        =         2.094306	     119.994870
	 B(2,10,13)       =         2.094247	     119.991510
	 B(2,10,22)       =         2.586478	     148.194248
	 B(3,6,12)        =         2.165607	     124.080166
	 B(3,6,20)        =         2.108335	     120.798710
	 B(3,9,4)         =         2.090927	     119.801285
	 B(3,9,8)         =         2.096157	     120.100922
	 B(3,17,15)       =         1.995652	     114.342442
	 B(4,7,12)        =         2.164768	     124.032052
	 B(4,7,21)        =         2.108002	     120.779602
	 B(4,9,8)         =         2.096101	     120.097751
	 B(4,18,14)       =         2.102407	     120.459027
	 B(5,10,13)       =         2.094633	     120.013619
	 B(5,10,22)       =         1.602402	      91.810879
	 B(5,11,8)        =         2.095181	     120.045019
	 B(5,11,14)       =         2.081414	     119.256220
	 B(6,3,9)         =         2.057135	     117.865178
	 B(6,3,17)        =         2.098515	     120.236047
	 B(6,12,7)        =         2.030355	     116.330769
	 B(6,12,20)       =         0.496635	      28.455061
	 B(6,12,21)       =         2.526021	     144.730355
	 B(6,20,12)       =         0.635718	      36.423981
	 B(7,4,9)         =         2.057578	     117.890540
	 B(7,4,18)        =         2.098662	     120.244464
	 B(7,12,20)       =         2.526988	     144.785743
	 B(7,12,21)       =         0.495667	      28.399623
	 B(7,21,12)       =         0.635510	      36.412063
	 B(8,1,15)        =         2.108776	     120.823969
	 B(8,11,14)       =         2.106591	     120.698759
	 B(9,3,17)        =         2.127535	     121.898759
	 B(9,4,18)        =         2.126945	     121.864988
	 B(9,8,11)        =         2.097924	     120.202184
	 B(10,2,16)       =         2.099909	     120.315896
	 B(10,5,11)       =         2.093699	     119.960108
	 B(10,5,19)       =         2.100355	     120.341451
	 B(10,13,22)      =         1.924294	     110.253909
	 B(10,22,13)      =         0.725068	      41.543351
	 B(11,5,19)       =         2.089132	     119.698439
	 B(11,14,18)      =         1.890766	     108.332912
	 B(12,6,20)       =         2.009240	     115.120958
	 B(12,7,21)       =         2.010415	     115.188314
	 B(13,10,22)      =         0.492231	      28.202740
	 B(20,12,21)      =         3.022655	     173.185357
	 D(1,2,10,5)      =        -0.000325	      -0.018609
	 D(1,2,10,13)     =         3.141388	     179.988267
	 D(1,2,10,22)     =        -3.141522	    -179.995936
	 D(1,8,9,3)       =         0.261708	      14.994763
	 D(1,8,9,4)       =        -2.881178	    -165.079350
	 D(1,8,11,5)      =         0.000325	       0.018608
	 D(1,8,11,14)     =        -3.141528	    -179.996269
	 D(1,15,17,3)     =         0.566150	      32.438032
	 D(2,1,8,9)       =         3.141277	     179.981897
	 D(2,1,8,11)      =        -0.000348	      -0.019945
	 D(2,1,15,17)     =         2.805804	     160.760727
	 D(2,10,5,11)     =         0.000301	       0.017261
	 D(2,10,5,19)     =        -3.141029	    -179.967685
	 D(2,10,13,22)    =         3.141285	     179.982383
	 D(2,10,22,13)    =        -0.000505	      -0.028950
	 D(3,6,12,7)      =         0.000539	       0.030876
	 D(3,6,12,20)     =        -3.139021	    -179.852636
	 D(3,6,12,21)     =         0.001635	       0.093689
	 D(3,6,20,12)     =         3.139113	     179.857906
	 D(3,9,4,7)       =        -0.000091	      -0.005202
	 D(3,9,4,18)      =        -3.141108	    -179.972206
	 D(3,9,8,11)      =        -2.879852	    -165.003391
	 D(4,7,12,6)      =        -0.000196	      -0.011227
	 D(4,7,12,20)     =         0.001484	       0.085025
	 D(4,7,12,21)     =        -3.140458	    -179.934970
	 D(4,7,21,12)     =         3.140498	     179.937272
	 D(4,9,3,6)       =         0.000398	       0.022782
	 D(4,9,3,17)      =        -3.140391	    -179.931126
	 D(4,9,8,11)      =         0.260447	      14.922496
	 D(4,18,14,11)    =         0.599114	      34.326715
	 D(5,10,2,16)     =         3.140149	     179.917291
	 D(5,10,13,22)    =        -0.000187	      -0.010740
	 D(5,10,22,13)    =         3.141430	     179.990696
	 D(5,11,8,9)      =        -3.141300	    -179.983240
	 D(5,11,14,18)    =         2.808150	     160.895138
	 D(6,3,9,8)       =         3.140701	     179.948889
	 D(6,3,17,15)     =         2.810830	     161.048710
	 D(6,12,7,21)     =         3.140262	     179.923743
	 D(6,12,21,7)     =        -0.002066	      -0.118362
	 D(6,20,12,7)     =        -0.003160	      -0.181053
	 D(6,20,12,21)    =        -0.004559	      -0.261201
	 D(7,4,9,8)       =        -3.140394	    -179.931311
	 D(7,4,18,14)     =         2.732898	     156.583515
	 D(7,12,6,20)     =         3.139560	     179.883513
	 D(7,21,12,20)    =         0.001696	       0.097170
	 D(8,1,2,10)      =         0.000348	       0.019955
	 D(8,1,2,16)      =        -3.140133	    -179.916358
	 D(8,1,15,17)     =        -0.336502	     -19.280126
	 D(8,9,3,17)      =        -0.000088	      -0.005018
	 D(8,9,4,18)      =         0.001775	       0.101685
	 D(8,11,5,10)     =        -0.000301	      -0.017270
	 D(8,11,5,19)     =         3.141030	     179.967774
	 D(8,11,14,18)    =        -0.333185	     -19.090101
	 D(9,3,6,12)      =        -0.000648	      -0.037115
	 D(9,3,6,20)      =        -3.139529	    -179.881784
	 D(9,3,17,15)     =        -0.331586	     -18.998455
	 D(9,4,7,12)      =        -0.000015	      -0.000842
	 D(9,4,7,21)      =        -3.140412	    -179.932347
	 D(9,4,18,14)     =        -0.409284	     -23.450243
	 D(9,8,1,15)      =         0.000403	       0.023110
	 D(9,8,11,14)     =         0.000033	       0.001883
	 D(10,2,1,15)     =         3.141234	     179.979432
	 D(10,5,11,14)    =         3.141547	     179.997392
	 D(11,5,10,13)    =        -3.141411	    -179.989616
	 D(11,5,10,22)    =        -3.141500	    -179.994694
	 D(11,8,1,15)     =        -3.141221	    -179.978731
	 D(12,6,3,17)     =         3.140154	     179.917592
	 D(12,7,4,18)     =         3.141012	     179.966719
	 D(13,10,2,16)    =        -0.001324	      -0.075833
	 D(13,10,5,19)    =         0.000444	       0.025437
	 D(14,11,5,19)    =        -0.000307	      -0.017564
	 D(15,1,2,16)     =         0.000753	       0.043120
	 D(16,2,10,22)    =        -0.001048	      -0.060036
	 D(17,3,6,20)     =         0.001273	       0.072923
	 D(18,4,7,21)     =         0.000615	       0.035214
	 D(19,5,10,22)    =         0.000355	       0.020359
	 D(20,6,12,21)    =         3.140656	     179.946325
	 D(20,12,7,21)    =        -3.141244	    -179.980005

	Adding user-defined constraint: Fragment 1; Coordinate 61:
		Value =     0.261708; Fixed value    =     0.261799
		Force =     0.000046; Force constant =     0.500000
	Removing off-diagonal coupling between coordinate 61 and others.
	Taking RFO optimization step.
	Going to follow RFO solution 1.
	Using RFO vector 1.

	Determining step-restricting scale parameter for RS-RFO.
	Maximum step size allowed    0.10000

	 Iter      |step|        alpha        rfo_root  
	------------------------------------------------
	    0     0.39678       1.00000           1
	    1     0.26245       3.91605           1
	    2     0.18151      10.98974           1
	    3     0.13505      24.47254           1
	    4     0.11067      41.49895           1
	    5     0.10150      51.98351           1
	    6     0.10004      53.97062           1
	    7     0.10000      54.02206           1
	------------------------------------------------
	Norm of target step-size    0.10000
	Projected energy change by RFO approximation:        -0.0062679132

	Back-transformation to cartesian coordinates...
	Could not converge backtransformation.
	Using first guess instead.

	--- Internal Coordinate Step in ANG or DEG, aJ/ANG or AJ/DEG ---
	 ---------------------------------------------------------------------------
	   Coordinate                Previous        Force       Change         New 
	   ----------                --------       ------       ------       ------
	    1 R(1,2)          =      1.394038    -0.068324    -0.004407     1.389631
	    2 R(1,8)          =      1.394891     0.013188     0.001436     1.396327
	    3 R(1,15)         =      1.087431    -0.075578    -0.005618     1.081813
	    4 R(2,10)         =      1.394821    -0.086353    -0.005731     1.389090
	    5 R(2,16)         =      1.087214    -0.048957    -0.003646     1.083568
	    6 R(3,6)          =      1.385581    -0.016294    -0.000966     1.384614
	    7 R(3,9)          =      1.390304     0.035271     0.002815     1.393119
	    8 R(3,17)         =      1.084814    -0.055117    -0.004050     1.080763
	    9 R(4,7)          =      1.385957     0.011340     0.000630     1.386588
	   10 R(4,9)          =      1.390112     0.065785     0.003884     1.393996
	   11 R(4,18)         =      1.085167    -0.138510    -0.009382     1.075785
	   12 R(5,10)         =      1.395407    -0.064738    -0.004248     1.391160
	   13 R(5,11)         =      1.394521    -0.112491    -0.006945     1.387576
	   14 R(5,19)         =      1.086545    -0.035491    -0.002609     1.083936
	   15 R(6,12)         =      1.352335    -0.137739    -0.008318     1.344017
	   16 R(6,20)         =      1.085204    -0.023028    -0.001682     1.083522
	   17 R(7,12)         =      1.352624    -0.136678    -0.008298     1.344327
	   18 R(7,21)         =      1.083803    -0.016631    -0.001179     1.082624
	   19 R(8,9)          =      1.447320     0.170516     0.012367     1.459687
	   20 R(8,11)         =      1.394821    -0.071915    -0.003065     1.391756
	   21 R(10,13)        =      1.361638    -0.027767    -0.001481     1.360157
	   22 R(11,14)        =      1.341125    -0.038770    -0.001606     1.339519
	   23 R(13,22)        =      0.970316    -0.074591    -0.004476     0.965840
	   24 B(1,2,10)       =    120.009056    -0.000080    -0.096862   119.912194
	   25 B(1,2,16)       =    119.675016     0.000254     0.318025   119.993041
	   26 B(1,8,9)        =    119.838095     0.001308     1.312789   121.150884
	   27 B(1,8,11)       =    119.959722    -0.001525    -1.720749   118.238972
	   28 B(2,1,8)        =    120.031219     0.000753     0.943002   120.974221
	   29 B(2,1,15)       =    119.144799    -0.000397    -0.507437   118.637363
	   30 B(2,10,5)       =    119.994870    -0.000127    -0.168816   119.826055
	   31 B(2,10,13)      =    119.991510    -0.000704    -0.739837   119.251674
	   32 B(3,6,12)       =    124.080166     0.000073     0.019289   124.099455
	   33 B(3,6,20)       =    120.798710    -0.000108    -0.101472   120.697238
	   34 B(3,9,4)        =    119.801285    -0.001373    -1.441124   118.360162
	   35 B(3,9,8)        =    120.100922     0.000587     0.648757   120.749679
	   36 B(4,7,12)       =    124.032052     0.000339     0.291210   124.323262
	   37 B(4,7,21)       =    120.779602    -0.000228    -0.227624   120.551977
	   38 B(4,9,8)        =    120.097751     0.000786     0.792387   120.890138
	   39 B(5,10,13)      =    120.013619     0.000832     0.908652   120.922270
	   40 B(5,11,8)       =    120.045019     0.001191     1.270439   121.315458
	   41 B(5,11,14)      =    119.256220    -0.000369    -0.571545   118.684675
	   42 B(6,3,9)        =    117.865178     0.000687     0.819752   118.684930
	   43 B(6,3,17)       =    120.236047    -0.000473    -0.579790   119.656258
	   44 B(6,12,7)       =    116.330769     0.000019    -0.146424   116.184346
	   45 B(7,4,9)        =    117.890540     0.000256     0.457241   118.347781
	   46 B(7,4,18)       =    120.244464    -0.000620    -0.627487   119.616977
	   47 B(8,1,15)       =    120.823969    -0.000355    -0.435807   120.388162
	   48 B(8,11,14)      =    120.698759    -0.000822    -0.699268   119.999491
	   49 B(9,3,17)       =    121.898759    -0.000213    -0.240214   121.658544
	   50 B(9,4,18)       =    121.864988     0.000364     0.169698   122.034686
	   51 B(9,8,11)       =    120.202184     0.000217     0.407810   120.609994
	   52 B(10,2,16)      =    120.315896    -0.000173    -0.221168   120.094729
	   53 B(10,5,11)      =    119.960108    -0.000212    -0.227075   119.733033
	   54 B(10,5,19)      =    120.341451     0.000183     0.211276   120.552728
	   55 B(10,13,22)     =    110.253909    -0.000352    -0.341760   109.912149
	   56 B(11,5,19)      =    119.698439     0.000028     0.015797   119.714236
	   57 B(12,6,20)      =    115.120958     0.000035     0.082161   115.203119
	   58 B(12,7,21)      =    115.188314    -0.000111    -0.063614   115.124700
	   59 D(1,2,10,5)     =     -0.018609    -0.000000    -0.005449    -0.024058
	   60 D(1,2,10,13)    =    179.988267    -0.000002    -0.023954   179.964313
	   61 D(1,8,9,3)      =     14.994763     0.000036     0.180632    15.175395
	   62 D(1,8,9,4)      =   -165.079350     0.000046     0.308285  -164.771065
	   63 D(1,8,11,5)     =      0.018608     0.000004     0.033318     0.051926
	   64 D(1,8,11,14)    =   -179.996269     0.000036     0.274245  -179.722024
	   65 D(2,1,8,9)      =    179.981897     0.000005     0.060022   180.041919
	   66 D(2,1,8,11)     =     -0.019945    -0.000010    -0.078120    -0.098065
	   67 D(2,10,5,11)    =      0.017261    -0.000005    -0.038743    -0.021482
	   68 D(2,10,5,19)    =   -179.967685    -0.000010    -0.075140  -180.042825
	   69 D(2,10,13,22)   =    179.982383     0.000001     0.013160   179.995543
	   70 D(3,6,12,7)     =      0.030876     0.000003     0.021075     0.051952
	   71 D(3,9,4,7)      =     -0.005202     0.000003     0.027818     0.022616
	   72 D(3,9,4,18)     =   -179.972206     0.000038     0.267283  -179.704923
	   73 D(3,9,8,11)     =   -165.003391     0.000051     0.322076  -164.681315
	   74 D(4,7,12,6)     =     -0.011227    -0.000010    -0.077790    -0.089017
	   75 D(4,9,3,6)      =      0.022782    -0.000009    -0.078635    -0.055853
	   76 D(4,9,3,17)     =   -179.931126     0.000009     0.064410  -179.866716
	   77 D(4,9,8,11)     =     14.922496     0.000061     0.449729    15.372225
	   78 D(5,10,2,16)    =    179.917291    -0.000001    -0.010580   179.906711
	   79 D(5,10,13,22)   =     -0.010740    -0.000001    -0.005478    -0.016217
	   80 D(5,11,8,9)     =   -179.983240    -0.000011    -0.104030  -180.087270
	   81 D(6,3,9,8)      =    179.948889     0.000002     0.047469   179.996359
	   82 D(6,12,7,21)    =    179.923743    -0.000014    -0.101878   179.821865
	   83 D(7,4,9,8)      =   -179.931311    -0.000008    -0.098361  -180.029672
	   84 D(7,12,6,20)    =    179.883513     0.000001     0.011059   179.894572
	   85 D(8,1,2,10)     =      0.019955     0.000008     0.065274     0.085229
	   86 D(8,1,2,16)     =   -179.916358     0.000008     0.070746  -179.845612
	   87 D(8,9,3,17)     =     -0.005018     0.000019     0.190515     0.185496
	   88 D(8,9,4,18)     =      0.101685     0.000027     0.141105     0.242789
	   89 D(8,11,5,10)    =     -0.017270     0.000003     0.024281     0.007010
	   90 D(8,11,5,19)    =    179.967774     0.000008     0.060399   180.028173
	   91 D(9,3,6,12)     =     -0.037115     0.000006     0.055962     0.018846
	   92 D(9,3,6,20)     =   -179.881784     0.000008     0.066233  -179.815551
	   93 D(9,4,7,12)     =     -0.000842     0.000007     0.054000     0.053158
	   94 D(9,4,7,21)     =   -179.932347     0.000012     0.079199  -179.853148
	   95 D(9,8,1,15)     =      0.023110     0.000022     0.204762     0.227873
	   96 D(9,8,11,14)    =      0.001883     0.000021     0.136897     0.138780
	   97 D(10,2,1,15)    =    179.979432    -0.000009    -0.076968   179.902464
	   98 D(10,5,11,14)   =    179.997392    -0.000028    -0.213535   179.783858
	   99 D(11,5,10,13)   =   -179.989616    -0.000003    -0.020039  -180.009655
	  100 D(11,8,1,15)    =   -179.978731     0.000008     0.066620  -179.912111
	  101 D(12,6,3,17)    =    179.917592    -0.000011    -0.084005   179.833587
	  102 D(12,7,4,18)    =    179.966719    -0.000027    -0.179246   179.787473
	  103 D(13,10,2,16)   =     -0.075833    -0.000003    -0.029085    -0.104918
	  104 D(13,10,5,19)   =      0.025437    -0.000008    -0.056435    -0.030998
	  105 D(14,11,5,19)   =     -0.017564    -0.000024    -0.177416    -0.194980
	  106 D(15,1,2,16)    =      0.043120    -0.000009    -0.071496    -0.028376
	  107 D(17,3,6,20)    =      0.072923    -0.000009    -0.073734    -0.000811
	  108 D(18,4,7,21)    =      0.035214    -0.000022    -0.154047    -0.118833
	  109 R(4,14)         =      2.527009     0.192581     0.027979     2.554989
	 ---------------------------------------------------------------------------
	Successfully symmetrized geometry.
	 Forces used to impose fixed constraints are not included.
	  Forces zeroed: 61 

  ==> Convergence Check <==

  Measures of convergence in internal coordinates in au.
  Criteria marked as inactive (o), active & met (*), and active & unmet ( ).
  --------------------------------------------------------------------------------------------- ~
   Step     Total Energy     Delta E     MAX Force     RMS Force      MAX Disp      RMS Disp    ~
  --------------------------------------------------------------------------------------------- ~
    Convergence Criteria    1.00e-06 *    3.00e-04 *             o    1.20e-03 *             o  ~
  --------------------------------------------------------------------------------------------- ~
      1    -652.86216223   -6.53e+02      2.34e-02      6.79e-03 o    5.29e-02      9.59e-03 o  ~
  ---------------------------------------------------------------------------------------------

	Writing optimization data to binary file.
	Structure for next step:
	Cartesian Geometry (in Angstrom)
	    C    -1.3441596093   0.7620861513  -0.7813121992
	    C    -2.4176948344   1.3324462771  -0.1080463761
	    C     1.0635209279  -0.1620126291  -2.1325247919
	    C     1.7123763364  -1.2983471610  -0.1283582898
	    C    -1.4155862428   0.7199472061   1.9914288376
	    C     2.1481879540  -0.7538444824  -2.7573363124
	    C     2.7677320110  -1.8385267255  -0.8474244032
	    C    -0.2942397876   0.1626855744  -0.0826592526
	    C     0.8357106368  -0.4367693647  -0.7859028993
	    C    -2.4543780619   1.3121382346   1.2804109884
	    C    -0.3494447042   0.1528585988   1.3079668058
	    N     3.0078144736  -1.5866843042  -2.1459427157
	    O    -3.5112088148   1.8749783234   1.9256610741
	    F     0.6415191282  -0.4077938222   2.0136376354
	    H    -1.3374611025   0.7880808124  -1.8627922223
	    H    -3.2252010160   1.7912042967  -0.6662534303
	    H     0.4188621228   0.4997162327  -2.6933987228
	    H     1.5894926394  -1.5548239474   0.9091540324
	    H    -1.4318318614   0.6980826089   3.0750227891
	    H     2.3575504452  -0.5605884461  -3.8027255099
	    H     3.4685886499  -2.5135677827  -0.3728777291
	    H    -3.3991428551   1.7853601080   2.8807821976
			--------------------------
			 OPTKING Finished Execution 
			--------------------------

    Structure for next step:
    Molecular point group: c1
    Full point group: C1

    Geometry (in Angstrom), charge = 0, multiplicity = 1:

    C           -1.342033049379     0.759986608597    -0.780936045400
    C           -2.415568274537     1.330346734445    -0.107670222277
    C            1.065647487822    -0.164112171808    -2.132148638109
    C            1.714502896273    -1.300446703638    -0.127982136054
    C           -1.413459682879     0.717847663477     1.991804991365
    C            2.150314513865    -0.755944025066    -2.756960158657
    C            2.769858570931    -1.840626268194    -0.847048249388
    C           -0.292113227643     0.160586031790    -0.082283098860
    C            0.837837196749    -0.438868907340    -0.785526745533
    C           -2.452251501958     1.310038691983     1.280787142180
    C           -0.347318144251     0.150759056173     1.308342959615
    N            3.009941033506    -1.588783846892    -2.145566561950
    O           -3.509082254849     1.872878780728     1.926037227860
    F            0.643645688123    -0.409893364837     2.014013789207
    H           -1.335334542551     0.785981269742    -1.862416068495
    H           -3.223074456123     1.789104754027    -0.665877276526
    H            0.420988682666     0.497616690086    -2.693022569015
    H            1.591619199297    -1.556923490093     0.909530186189
    H           -1.429705301449     0.695983066208     3.075398942863
    H            2.359677005074    -0.562687988750    -3.802349356082
    H            3.470715209761    -2.515667325341    -0.372501575328
    H           -3.397016295185     1.783260565305     2.881158351364

gradient() will perform analytic gradient computation.

*** tstart() called on gpu-2-11.local
*** at Mon Nov 13 20:11:45 2017

    SCF Algorithm Type (re)set to DF.

*** tstart() called on gpu-2-11.local
*** at Mon Nov 13 20:11:45 2017

   => Loading Basis Set <=

    Name: AUG-CC-PVTZ
    Role: ORBITAL
    Keyword: BASIS
    atoms 1-11  entry C          line   221 file /cbio/jclab/home/chayas/anaconda/envs/py35/share/psi4/basis/aug-cc-pvtz.gbs 
    atoms 12    entry N          line   267 file /cbio/jclab/home/chayas/anaconda/envs/py35/share/psi4/basis/aug-cc-pvtz.gbs 
    atoms 13    entry O          line   313 file /cbio/jclab/home/chayas/anaconda/envs/py35/share/psi4/basis/aug-cc-pvtz.gbs 
    atoms 14    entry F          line   359 file /cbio/jclab/home/chayas/anaconda/envs/py35/share/psi4/basis/aug-cc-pvtz.gbs 
    atoms 15-22 entry H          line    34 file /cbio/jclab/home/chayas/anaconda/envs/py35/share/psi4/basis/aug-cc-pvtz.gbs 


         ---------------------------------------------------------
                                   SCF
            by Justin Turney, Rob Parrish, and Andy Simmonett
                              RHF Reference
                        8 Threads,   7629 MiB Core
         ---------------------------------------------------------

  ==> Geometry <==

    Molecular point group: c1
    Full point group: C1

    Geometry (in Angstrom), charge = 0, multiplicity = 1:

       Center              X                  Y                   Z               Mass       
    ------------   -----------------  -----------------  -----------------  -----------------
           C         -1.342033049379     0.759986608597    -0.780936045400    12.000000000000
           C         -2.415568274537     1.330346734445    -0.107670222277    12.000000000000
           C          1.065647487822    -0.164112171808    -2.132148638109    12.000000000000
           C          1.714502896273    -1.300446703638    -0.127982136054    12.000000000000
           C         -1.413459682879     0.717847663477     1.991804991365    12.000000000000
           C          2.150314513865    -0.755944025066    -2.756960158657    12.000000000000
           C          2.769858570931    -1.840626268194    -0.847048249388    12.000000000000
           C         -0.292113227643     0.160586031790    -0.082283098860    12.000000000000
           C          0.837837196749    -0.438868907340    -0.785526745533    12.000000000000
           C         -2.452251501958     1.310038691983     1.280787142180    12.000000000000
           C         -0.347318144251     0.150759056173     1.308342959615    12.000000000000
           N          3.009941033506    -1.588783846892    -2.145566561950    14.003074004780
           O         -3.509082254849     1.872878780728     1.926037227860    15.994914619560
           F          0.643645688123    -0.409893364837     2.014013789207    18.998403224000
           H         -1.335334542551     0.785981269742    -1.862416068495     1.007825032070
           H         -3.223074456123     1.789104754027    -0.665877276526     1.007825032070
           H          0.420988682666     0.497616690086    -2.693022569015     1.007825032070
           H          1.591619199297    -1.556923490093     0.909530186189     1.007825032070
           H         -1.429705301449     0.695983066208     3.075398942863     1.007825032070
           H          2.359677005074    -0.562687988750    -3.802349356082     1.007825032070
           H          3.470715209761    -2.515667325341    -0.372501575328     1.007825032070
           H         -3.397016295185     1.783260565305     2.881158351364     1.007825032070

  Running in c1 symmetry.

  Rotational constants: A =      0.06411  B =      0.01343  C =      0.01117 [cm^-1]
  Rotational constants: A =   1922.04996  B =    402.75125  C =    334.76938 [MHz]
  Nuclear repulsion =  816.802227179380452

  Charge       = 0
  Multiplicity = 1
  Electrons    = 98
  Nalpha       = 49
  Nbeta        = 49

  ==> Algorithm <==

  SCF Algorithm Type is DF.
  DIIS enabled.
  MOM disabled.
  Fractional occupation disabled.
  Guess Type is READ.
  Energy threshold   = 1.00e-10
  Density threshold  = 1.00e-10
  Integral threshold = 0.00e+00

  ==> Primary Basis <==

  Basis Set: AUG-CC-PVTZ
    Blend: AUG-CC-PVTZ
    Number of shells: 268
    Number of basis function: 828
    Number of Cartesian functions: 970
    Spherical Harmonics?: true
    Max angular momentum: 3

   => Loading Basis Set <=

    Name: (AUG-CC-PVTZ AUX)
    Role: JKFIT
    Keyword: DF_BASIS_SCF
    atoms 1-11  entry C          line   161 file /cbio/jclab/home/chayas/anaconda/envs/py35/share/psi4/basis/aug-cc-pvtz-jkfit.gbs 
    atoms 12    entry N          line   223 file /cbio/jclab/home/chayas/anaconda/envs/py35/share/psi4/basis/aug-cc-pvtz-jkfit.gbs 
    atoms 13    entry O          line   285 file /cbio/jclab/home/chayas/anaconda/envs/py35/share/psi4/basis/aug-cc-pvtz-jkfit.gbs 
    atoms 14    entry F          line   347 file /cbio/jclab/home/chayas/anaconda/envs/py35/share/psi4/basis/aug-cc-pvtz-jkfit.gbs 
    atoms 15-22 entry H          line    69 file /cbio/jclab/home/chayas/anaconda/envs/py35/share/psi4/basis/aug-cc-pvtz-jkfit.gbs 

  Reading orbitals from file 180, no projection.

  ==> Pre-Iterations <==

   -------------------------------------------------------
    Irrep   Nso     Nmo     Nalpha   Nbeta   Ndocc  Nsocc
   -------------------------------------------------------
     A        828     828       0       0       0       0
   -------------------------------------------------------
    Total     828     828      49      49      49       0
   -------------------------------------------------------

  ==> Integral Setup <==

  ==> DFJK: Density-Fitted J/K Matrices <==

    J tasked:                  Yes
    K tasked:                  Yes
    wK tasked:                  No
    OpenMP threads:              8
    Integrals threads:           8
    Memory (MB):              5722
    Algorithm:                Core
    Integral Cache:           NONE
[...]
	 D(3,6,12,21)     =         0.000603	       0.034532
	 D(3,6,20,12)     =        -3.139479	    -179.878925
	 D(3,9,4,7)       =         0.009056	       0.518878
	 D(3,9,4,18)      =        -3.120322	    -178.781296
	 D(3,9,8,11)      =        -2.808237	    -160.900100
	 D(4,7,12,6)      =         0.001172	       0.067157
	 D(4,7,12,20)     =         0.001309	       0.075012
	 D(4,7,12,21)     =        -3.136719	    -179.720735
	 D(4,7,21,12)     =         3.136963	     179.734712
	 D(4,9,3,6)       =        -0.010211	      -0.585027
	 D(4,9,3,17)      =        -3.116736	    -178.575795
	 D(4,9,8,11)      =         0.406638	      23.298614
	 D(5,10,2,15)     =         0.030920	       1.771570
	 D(5,10,2,16)     =         3.137062	     179.740396
	 D(5,10,13,22)    =        -0.000943	      -0.054009
	 D(5,10,22,13)    =         3.140800	     179.954574
	 D(5,11,8,9)      =         3.105050	     177.906274
	 D(6,3,9,8)       =        -3.083836	    -176.690764
	 D(6,3,17,15)     =         2.696074	     154.473659
	 D(6,12,7,21)     =         3.137891	     179.787891
	 D(6,12,21,7)     =        -0.005683	      -0.325588
	 D(6,20,12,7)     =        -0.000262	      -0.014988
	 D(6,20,12,21)    =         0.012230	       0.700726
	 D(7,4,9,8)       =         3.080747	     176.513780
	 D(7,12,6,20)     =         3.141422	     179.990225
	 D(7,21,12,20)    =        -0.015521	      -0.889309
	 D(8,1,2,10)      =         0.008937	       0.512064
	 D(8,1,2,15)      =        -3.100664	    -177.654964
	 D(8,1,2,16)      =        -3.123158	    -178.943787
	 D(8,1,15,17)     =        -0.480777	     -27.546499
	 D(8,9,3,17)      =         0.092825	       5.318468
	 D(8,9,4,18)      =        -0.048632	      -2.786394
	 D(8,11,5,10)     =        -0.011487	      -0.658143
	 D(8,11,5,19)     =         3.139974	     179.907282
	 D(9,3,6,12)      =         0.007283	       0.417268
	 D(9,3,6,20)      =        -3.136591	    -179.713427
	 D(9,3,17,15)     =        -0.479994	     -27.501626
	 D(9,4,7,12)      =        -0.004851	      -0.277939
	 D(9,4,7,21)      =        -3.141422	    -179.990224
	 D(9,8,1,15)      =         0.077118	       4.418520
	 D(9,8,11,14)     =        -0.012081	      -0.692177
	 D(10,2,1,15)     =         3.109601	     178.167028
	 D(10,2,15,17)    =        -0.775129	     -44.411593
	 D(10,5,11,14)    =         3.106661	     177.998547
	 D(11,5,10,13)    =         3.136203	     179.691168
	 D(11,5,10,22)    =         3.135752	     179.665372
	 D(11,8,1,15)     =        -3.122547	    -178.908766
	 D(12,6,3,17)     =         3.114742	     178.461578
	 D(12,7,4,18)     =         3.124789	     179.037209
	 D(13,10,2,15)    =        -3.109028	    -178.134161
	 D(13,10,2,16)    =        -0.002886	      -0.165336
	 D(13,10,5,19)    =        -0.015614	      -0.894601
	 D(14,11,5,19)    =        -0.025063	      -1.436028
	 D(15,1,2,16)     =        -0.022494	      -1.288823
	 D(15,2,10,22)    =        -3.106755	    -178.003945
	 D(16,2,10,22)    =        -0.000613	      -0.035120
	 D(16,2,15,17)    =         2.397464	     137.364541
	 D(17,3,6,20)     =        -0.029132	      -1.669118
	 D(18,4,7,21)     =        -0.011782	      -0.675076
	 D(19,5,10,22)    =        -0.016064	      -0.920397
	 D(20,6,12,21)    =        -3.138781	    -179.838880
	 D(20,12,7,21)    =         3.138028	     179.795747

	Adding user-defined constraint: Fragment 1; Coordinate 61:
		Value =     0.269627; Fixed value    =     0.261799
		Force =    -0.003914; Force constant =     0.500000
	Removing off-diagonal coupling between coordinate 61 and others.
	Taking RFO optimization step.
	Going to follow RFO solution 1.
	Using RFO vector 1.

	Determining step-restricting scale parameter for RS-RFO.
	Maximum step size allowed    0.10000

	 Iter      |step|        alpha        rfo_root  
	------------------------------------------------
	    0     0.11832       1.00000           1
	    1     0.10913       3.48904           1
	    2     0.10131       6.89927           1
	    3     0.10003       7.55905           1
	    4     0.10000       7.57478           1
	------------------------------------------------
	Norm of target step-size    0.10000
	Projected energy change by RFO approximation:        -0.0002254550

	Back-transformation to cartesian coordinates...
	Successfully converged to displaced geometry.

	--- Internal Coordinate Step in ANG or DEG, aJ/ANG or AJ/DEG ---
	 ---------------------------------------------------------------------------
	   Coordinate                Previous        Force       Change         New 
	   ----------                --------       ------       ------       ------
	    1 R(1,2)          =      1.380103     0.000484     0.000012     1.380115
	    2 R(1,8)          =      1.400101    -0.000034     0.000009     1.400110
	    3 R(1,15)         =      1.077903    -0.000384    -0.000136     1.077767
	    4 R(2,10)         =      1.387750    -0.000896    -0.000254     1.387496
	    5 R(2,16)         =      1.078074    -0.000229    -0.000047     1.078027
	    6 R(3,6)          =      1.384253    -0.000887    -0.000187     1.384066
	    7 R(3,9)          =      1.395737    -0.000268    -0.000037     1.395700
	    8 R(3,17)         =      1.078139    -0.000393    -0.000145     1.077994
	    9 R(4,7)          =      1.386383    -0.001154    -0.000206     1.386177
	   10 R(4,9)          =      1.395568     0.000397     0.000101     1.395669
	   11 R(4,18)         =      1.075666    -0.002611    -0.000518     1.075148
	   12 R(5,10)         =      1.384507     0.000479    -0.000022     1.384485
	   13 R(5,11)         =      1.380421    -0.001001    -0.000157     1.380265
	   14 R(5,19)         =      1.079531    -0.000485    -0.000111     1.079420
	   15 R(6,12)         =      1.335284    -0.001075    -0.000213     1.335070
	   16 R(6,20)         =      1.081276    -0.000394    -0.000098     1.081178
	   17 R(7,12)         =      1.333972    -0.000072    -0.000080     1.333892
	   18 R(7,21)         =      1.081173    -0.000162    -0.000055     1.081118
	   19 R(8,9)          =      1.464857     0.001848     0.000434     1.465290
	   20 R(8,11)         =      1.391520     0.000419     0.000053     1.391573
	   21 R(10,13)        =      1.358659    -0.000714    -0.000204     1.358455
	   22 R(11,14)        =      1.348993    -0.002677    -0.000375     1.348618
	   23 R(13,22)        =      0.962446    -0.001543    -0.000250     0.962196
	   24 B(1,2,10)       =    119.714742    -0.000001    -0.012877   119.701865
	   25 B(1,2,16)       =    120.989895    -0.000005    -0.006470   120.983425
	   26 B(1,8,9)        =    121.026886    -0.000004    -0.027792   120.999094
	   27 B(1,8,11)       =    114.742459     0.000004    -0.001366   114.741093
	   28 B(2,1,8)        =    123.159610    -0.000003     0.007424   123.167035
	   29 B(2,1,15)       =    117.959322     0.000003     0.004885   117.964206
	   30 B(2,10,5)       =    119.200495     0.000001     0.010535   119.211030
	   31 B(2,10,13)      =    117.768872    -0.000000    -0.007234   117.761637
	   32 B(3,6,12)       =    123.882029    -0.000003    -0.010917   123.871112
	   33 B(3,6,20)       =    119.774511     0.000001     0.012730   119.787241
	   34 B(3,9,4)        =    115.759905     0.000005    -0.002258   115.757647
	   35 B(3,9,8)        =    120.777400    -0.000001    -0.025527   120.751873
	   36 B(4,7,12)       =    124.228212    -0.000001    -0.003934   124.224278
	   37 B(4,7,21)       =    119.498800     0.000004     0.020604   119.519404
	   38 B(4,9,8)        =    123.340079    -0.000003     0.026394   123.366473
	   39 B(5,10,13)      =    123.030562    -0.000001    -0.003473   123.027089
	   40 B(5,11,8)       =    123.747325    -0.000005    -0.010304   123.737021
	   41 B(5,11,14)      =    115.846244     0.000007     0.002822   115.849066
	   42 B(6,3,9)        =    120.247678    -0.000002     0.003860   120.251538
	   43 B(6,3,17)       =    118.514498     0.000004     0.003731   118.518229
	   44 B(6,12,7)       =    116.028278     0.000007     0.017641   116.045919
	   45 B(7,4,9)        =    119.851321    -0.000006    -0.008318   119.843002
	   46 B(7,4,18)       =    119.002695     0.000002    -0.026230   118.976465
	   47 B(8,1,15)       =    118.840556    -0.000000    -0.014815   118.825741
	   48 B(8,11,14)      =    120.392769    -0.000002    -0.010973   120.381797
	   49 B(9,3,17)       =    121.208200    -0.000002    -0.018991   121.189209
	   50 B(9,4,18)       =    121.142357     0.000004     0.021562   121.163919
	   51 B(9,8,11)       =    124.139789     0.000001     0.025590   124.165379
	   52 B(10,2,16)      =    119.293157     0.000006     0.020885   119.314042
	   53 B(10,5,11)      =    119.421343     0.000004     0.007760   119.429103
	   54 B(10,5,19)      =    122.021095    -0.000005    -0.024678   121.996417
	   55 B(10,13,22)     =    109.342988     0.000002    -0.014369   109.328619
	   56 B(11,5,19)      =    118.555045     0.000001     0.016421   118.571466
	   57 B(12,6,20)      =    116.343340     0.000002    -0.002307   116.341033
	   58 B(12,7,21)      =    116.272409    -0.000002    -0.017497   116.254911
	   59 D(1,2,10,5)     =      0.275267     0.000000    -0.047383     0.227883
	   60 D(1,2,10,13)    =   -179.630465    -0.000000    -0.315604  -179.946069
	   61 D(1,8,9,3)      =     15.448470     0.000007     0.279326    15.727795
	   62 D(1,8,9,4)      =   -160.352816     0.000002     0.303177  -160.049639
	   63 D(1,8,11,5)     =      1.351305    -0.000003    -0.213238     1.138068
	   64 D(1,8,11,14)    =   -177.247146    -0.000002     0.533846  -176.713300
	   65 D(2,1,8,9)      =   -177.946111    -0.000002     0.026978  -177.919133
	   66 D(2,1,8,11)     =     -1.273397     0.000003    -0.036668    -1.310064
	   67 D(2,10,5,11)    =     -0.209340     0.000000    -0.187383    -0.396723
	   68 D(2,10,5,19)    =    179.204891     0.000001    -0.242521   178.962370
	   69 D(2,10,13,22)   =    179.847839    -0.000000     0.161491   180.009330
	   70 D(3,6,12,7)     =     -0.136363     0.000001     0.174886     0.038523
	   71 D(3,9,4,7)      =      0.518878    -0.000002     0.277354     0.796232
	   72 D(3,9,4,18)     =   -178.781296    -0.000001     1.075527  -177.705769
	   73 D(3,9,8,11)     =   -160.900100     0.000001     0.350359  -160.549741
	   74 D(4,7,12,6)     =      0.067157     0.000000    -0.268291    -0.201134
	   75 D(4,9,3,6)      =     -0.585027     0.000003    -0.363661    -0.948688
	   76 D(4,9,3,17)     =   -178.575795     0.000001    -0.008712  -178.584508
	   77 D(4,9,8,11)     =     23.298614    -0.000005     0.374210    23.672824
	   78 D(5,10,2,16)    =    179.740396     0.000001     0.193185   179.933580
	   79 D(5,10,13,22)   =     -0.054009    -0.000001    -0.117754    -0.171763
	   80 D(5,11,8,9)     =    177.906274     0.000003    -0.281233   177.625042
	   81 D(6,3,9,8)      =   -176.690764    -0.000002    -0.342808  -177.033572
	   82 D(6,12,7,21)    =    179.787891    -0.000000    -0.424003   179.363888
	   83 D(7,4,9,8)      =    176.513780     0.000004     0.253613   176.767393
	   84 D(7,12,6,20)    =    179.990225    -0.000001    -0.238107   179.752118
	   85 D(8,1,2,10)     =      0.512064    -0.000002     0.163650     0.675714
	   86 D(8,1,2,16)     =   -178.943787    -0.000003    -0.081173  -179.024960
	   87 D(8,9,3,17)     =      5.318468    -0.000004     0.012140     5.330608
	   88 D(8,9,4,18)     =     -2.786394     0.000005     1.051785    -1.734608
	   89 D(8,11,5,10)    =     -0.658143     0.000001     0.330188    -0.327955
	   90 D(8,11,5,19)    =    179.907282     0.000001     0.383674   180.290956
	   91 D(9,3,6,12)     =      0.417268    -0.000002     0.145807     0.563076
	   92 D(9,3,6,20)     =   -179.713427    -0.000001     0.572244  -179.141183
	   93 D(9,4,7,12)     =     -0.277939     0.000000     0.039609    -0.238330
	   94 D(9,4,7,21)     =   -179.990224     0.000001     0.200191  -179.790033
	   95 D(9,8,1,15)     =      4.418520    -0.000005     0.098877     4.517396
	   96 D(9,8,11,14)    =     -0.692177     0.000004     0.465851    -0.226325
	   97 D(10,2,1,15)    =    178.167028     0.000000     0.091894   178.258922
	   98 D(10,5,11,14)   =    177.998547     0.000000    -0.386109   177.612438
	   99 D(11,5,10,13)   =    179.691168     0.000001     0.095705   179.786873
	  100 D(11,8,1,15)    =   -178.908766     0.000001     0.035231  -178.873536
	  101 D(12,6,3,17)    =    178.461578    -0.000001    -0.200217   178.261361
	  102 D(12,7,4,18)    =    179.037209    -0.000001    -0.740775   178.296434
	  103 D(13,10,2,16)   =     -0.165336     0.000000    -0.075036    -0.240372
	  104 D(13,10,5,19)   =     -0.894601     0.000001     0.040567    -0.854034
	  105 D(14,11,5,19)   =     -1.436028    -0.000000    -0.332624    -1.768652
	  106 D(15,1,2,16)    =     -1.288823    -0.000000    -0.152928    -1.441751
	  107 D(17,3,6,20)    =     -1.669118     0.000001     0.226220    -1.442897
	  108 D(18,4,7,21)    =     -0.675076    -0.000000    -0.580193    -1.255270
	  109 R(4,14)         =      2.793791     0.000255     0.005697     2.799488
	  110 R(1,X)          =     -1.339726    -0.000708    -0.003135    -1.342861
	  111 R(1,Y)          =      0.687754    -0.000622    -0.006860     0.680894
	  112 R(1,Z)          =     -0.736673     0.000308     0.000449    -0.736224
	  113 R(2,X)          =     -2.423654    -0.000861    -0.003548    -2.427202
	  114 R(2,Y)          =      1.268409    -0.000327    -0.006933     1.261476
	  115 R(2,Z)          =     -0.110076     0.000836    -0.000171    -0.110247
	  116 R(3,X)          =      1.098962     0.000938    -0.000333     1.098630
	  117 R(3,Y)          =     -0.156470     0.000218    -0.000159    -0.156629
	  118 R(3,Z)          =     -2.099858    -0.000172     0.001410    -2.098448
	  119 R(4,X)          =      1.766045     0.000052    -0.002536     1.763509
	  120 R(4,Y)          =     -1.361527    -0.001239    -0.005999    -1.367526
	  121 R(4,Z)          =     -0.178505     0.000257    -0.001469    -0.179974
	  122 R(5,X)          =     -1.430962     0.000651     0.001292    -1.429670
	  123 R(5,Y)          =      0.771995     0.000137     0.003861     0.775856
	  124 R(5,Z)          =      2.007841    -0.000009    -0.000066     2.007775
	  125 R(6,X)          =      2.148360     0.000033     0.003759     2.152119
	  126 R(6,Y)          =     -0.749412     0.000159     0.006414    -0.742999
	  127 R(6,Z)          =     -2.780548     0.000288     0.002418    -2.778131
	  128 R(7,X)          =      2.787743    -0.000603     0.000562     2.788305
	  129 R(7,Y)          =     -1.905211     0.000040    -0.000473    -1.905685
	  130 R(7,Z)          =     -0.941787     0.000567    -0.000857    -0.942644
	  131 R(8,X)          =     -0.268241     0.000278    -0.001916    -0.270157
	  132 R(8,Y)          =      0.115990     0.001801    -0.004031     0.111959
	  133 R(8,Z)          =     -0.040048     0.000712     0.000908    -0.039140
	  134 R(9,X)          =      0.880455    -0.000008    -0.001355     0.879101
	  135 R(9,Y)          =     -0.448427    -0.001458    -0.003477    -0.451904
	  136 R(9,Z)          =     -0.752603    -0.000966     0.000482    -0.752121
	  137 R(10,X)         =     -2.475538    -0.000100    -0.000937    -2.476475
	  138 R(10,Y)         =      1.310711    -0.000130    -0.001161     1.309550
	  139 R(10,Z)         =      1.276059    -0.000039    -0.000518     1.275541
	  140 R(11,X)         =     -0.362881     0.000387    -0.000736    -0.363617
	  141 R(11,Y)         =      0.200787     0.000648    -0.000563     0.200224
	  142 R(11,Z)         =      1.345658     0.001211     0.000824     1.346482
	  143 R(12,X)         =      2.997008    -0.001165     0.005230     3.002238
	  144 R(12,Y)         =     -1.619698     0.000931     0.007829    -1.611869
	  145 R(12,Z)         =     -2.227933     0.000748     0.001867    -2.226066
	  146 R(13,X)         =     -3.564308     0.000776     0.001863    -3.562445
	  147 R(13,Y)         =      1.884609    -0.000283     0.004284     1.888894
	  148 R(13,Z)         =      1.851536     0.000086    -0.001166     1.850371
	  149 R(14,X)         =      0.633404    -0.000803     0.004989     0.638393
	  150 R(14,Y)         =     -0.263903     0.001713     0.012244    -0.251659
	  151 R(14,Z)         =      2.127491    -0.001259     0.000368     2.127859
	  152 R(15,X)         =     -1.342654    -0.000425    -0.004138    -1.346792
	  153 R(15,Y)         =      0.643322    -0.001096    -0.010252     0.633070
	  154 R(15,Z)         =     -1.813656     0.000711     0.000734    -1.812922
	  155 R(16,X)         =     -3.238191    -0.000267    -0.003709    -3.241899
	  156 R(16,Y)         =      1.683672    -0.000639    -0.008097     1.675574
	  157 R(16,Z)         =     -0.681331     0.000194    -0.000698    -0.682028
	  158 R(17,X)         =      0.481140     0.001036     0.000505     0.481645
	  159 R(17,Y)         =      0.554258     0.000384     0.001735     0.555993
	  160 R(17,Z)         =     -2.624782     0.000746     0.003293    -2.621489
	  161 R(18,X)         =      1.665345    -0.000274    -0.013211     1.652134
	  162 R(18,Y)         =     -1.663393    -0.001282    -0.021720    -1.685113
	  163 R(18,Z)         =      0.849013    -0.002521    -0.007871     0.841142
	  164 R(19,X)         =     -1.418318    -0.000145     0.004572    -1.413746
	  165 R(19,Y)         =      0.791508     0.000573     0.012182     0.803691
	  166 R(19,Z)         =      3.087122    -0.000493    -0.000403     3.086719
	  167 R(20,X)         =      2.313420     0.000723     0.010208     2.323628
	  168 R(20,Y)         =     -0.514172     0.000470     0.015924    -0.498248
	  169 R(20,Z)         =     -3.822938     0.000877     0.005755    -3.817182
	  170 R(21,X)         =      3.470487    -0.000142    -0.002164     3.468323
	  171 R(21,Y)         =     -2.612205    -0.000037    -0.004882    -2.617087
	  172 R(21,Z)         =     -0.491280    -0.000641    -0.003818    -0.495098
	  173 R(22,X)         =     -3.476073     0.000627     0.004737    -3.471336
	  174 R(22,Y)         =      1.846433     0.000039     0.010136     1.856568
	  175 R(22,Z)         =      2.809168    -0.001439    -0.001471     2.807698
	 ---------------------------------------------------------------------------
	Successfully symmetrized geometry.
	 Forces used to impose fixed constraints are not included.
	  Forces zeroed: 61 

  ==> Convergence Check <==

  Measures of convergence in internal coordinates in au.
  Criteria marked as inactive (o), active & met (*), and active & unmet ( ).
  --------------------------------------------------------------------------------------------- ~
   Step     Total Energy     Delta E     MAX Force     RMS Force      MAX Disp      RMS Disp    ~
  --------------------------------------------------------------------------------------------- ~
    Convergence Criteria    1.00e-06 *    3.00e-04 *             o    1.20e-03 *             o  ~
  --------------------------------------------------------------------------------------------- ~
      1    -652.87394649   -6.53e+02      3.25e-04      9.99e-05 o    4.10e-02      7.56e-03 o  ~
  ---------------------------------------------------------------------------------------------

	Writing optimization data to binary file.
	
Fatal Error: PSIO Error
Error occurred in file: /scratch/psilocaluser/conda-builds/psi4_1495011512596/work/psi4/src/psi4/libpsio/error.cc on line: 129
The most recent 5 function calls were:

psi::PsiException::PsiException(std::__cxx11::basic_string<char, std::char_traits<char>, std::allocator<char> >, char const*, int)
psi::psio_error(unsigned int, unsigned int)
psi::PSIO::write(unsigned int, char const*, char*, unsigned long, psi::psio_address, psi::psio_address*)
psi::PSIO::write_entry(unsigned int, char const*, char*, unsigned long)
psi::psio_write_entry(unsigned int, char const*, char*, unsigned long)
