
    -----------------------------------------------------------------------
          Psi4: An Open-Source Ab Initio Electronic Structure Package
                               Psi4 1.1 release

                         Git: Rev {HEAD} add49b9 


    R. M. Parrish, L. A. Burns, D. G. A. Smith, A. C. Simmonett,
    A. E. DePrince III, E. G. Hohenstein, U. Bozkaya, A. Yu. Sokolov,
    R. Di Remigio, R. M. Richard, J. F. Gonthier, A. M. James,
    H. R. McAlexander, A. Kumar, M. Saitow, X. Wang, B. P. Pritchard,
    P. Verma, H. F. Schaefer III, K. Patkowski, R. A. King, E. F. Valeev,
    F. A. Evangelista, J. M. Turney, T. D. Crawford, and C. D. Sherrill,
    J. Chem. Theory Comput. in press (2017).
    (doi: 10.1021/acs.jctc.7b00174)

    -----------------------------------------------------------------------


    Psi4 started on: Sunday, 12 November 2017 01:20PM

    Process ID:   4319
    PSIDATADIR: /cbio/jclab/home/chayas/anaconda/envs/py35/share/psi4
    Memory:     500.0 MiB
    Threads:    8
    
  ==> Input File <==

--------------------------------------------------------------------------

memory 5 Gb

molecule phepyrOH_neutral {
  symmetry C1
  0 1 
  C      1.885   -1.036   -0.112
  C      2.878   -1.652   2.002
  C      0.807   -0.463   0.561
  C      1.800   -1.079   2.676
  C      3.862   -2.773   -1.356
  C      5.298   -2.250   0.501
  C      4.965   -3.329   -1.983
  C      6.337   -2.829   -0.209
  C      2.921   -1.631   0.608
  C      4.040   -2.225   -0.090
  C      0.764   -0.484   1.955
  N      6.202   -3.372   -1.440
  O      -0.288   0.076   2.612
  H      1.904   -1.012   -1.199
  H      3.678   -2.112   2.578
  H      0.003   -0.001   -0.006
  H      1.772   -1.098   3.762
  H      2.895   -2.772   -1.850
  H      5.475   -1.833   1.487
  H      4.879   -3.768   -2.972
  H      7.337   -2.875   0.208
  H      -0.301   -0.216   3.537
  units Angstrom
}

dih_string = "3 11 13 22 165"
set optking fixed_dihedral = $dih_string

optimize('MP2/aug-cc-PVTZ')
--------------------------------------------------------------------------

  Memory set to   4.657 GiB by Python driver.
gradient() will perform analytic gradient computation.

*** tstart() called on gpu-2-12.local
*** at Sun Nov 12 13:20:52 2017

    SCF Algorithm Type (re)set to DF.

*** tstart() called on gpu-2-12.local
*** at Sun Nov 12 13:20:52 2017

   => Loading Basis Set <=

    Name: AUG-CC-PVTZ
    Role: ORBITAL
    Keyword: BASIS
    atoms 1-11  entry C          line   221 file /cbio/jclab/home/chayas/anaconda/envs/py35/share/psi4/basis/aug-cc-pvtz.gbs 
    atoms 12    entry N          line   267 file /cbio/jclab/home/chayas/anaconda/envs/py35/share/psi4/basis/aug-cc-pvtz.gbs 
    atoms 13    entry O          line   313 file /cbio/jclab/home/chayas/anaconda/envs/py35/share/psi4/basis/aug-cc-pvtz.gbs 
    atoms 14-22 entry H          line    34 file /cbio/jclab/home/chayas/anaconda/envs/py35/share/psi4/basis/aug-cc-pvtz.gbs 


         ---------------------------------------------------------
                                   SCF
            by Justin Turney, Rob Parrish, and Andy Simmonett
                              RHF Reference
                        8 Threads,   4768 MiB Core
         ---------------------------------------------------------

  ==> Geometry <==

    Molecular point group: c1
    Full point group: C1

    Geometry (in Angstrom), charge = 0, multiplicity = 1:

       Center              X                  Y                   Z               Mass       
    ------------   -----------------  -----------------  -----------------  -----------------
           C         -1.252825486456     0.710812848006    -0.590397375356    12.000000000000
           C         -0.259825486456     0.094812848006     1.523602624644    12.000000000000
           C         -2.330825486456     1.283812848006     0.082602624644    12.000000000000
           C         -1.337825486456     0.667812848006     2.197602624644    12.000000000000
           C          0.724174513544    -1.026187151994    -1.834397375356    12.000000000000
           C          2.160174513544    -0.503187151994     0.022602624644    12.000000000000
           C          1.827174513544    -1.582187151994    -2.461397375356    12.000000000000
           C          3.199174513544    -1.082187151994    -0.687397375356    12.000000000000
           C         -0.216825486456     0.115812848006     0.129602624644    12.000000000000
           C          0.902174513544    -0.478187151994    -0.568397375356    12.000000000000
           C         -2.373825486456     1.262812848006     1.476602624644    12.000000000000
           N          3.064174513544    -1.625187151994    -1.918397375356    14.003074004780
           O         -3.425825486456     1.822812848006     2.133602624644    15.994914619560
           H         -1.233825486456     0.734812848006    -1.677397375356     1.007825032070
           H          0.540174513544    -0.365187151994     2.099602624644     1.007825032070
           H         -3.134825486456     1.745812848006    -0.484397375356     1.007825032070
           H         -1.365825486456     0.648812848006     3.283602624644     1.007825032070
           H         -0.242825486456    -1.025187151994    -2.328397375356     1.007825032070
           H          2.337174513544    -0.086187151994     1.008602624644     1.007825032070
           H          1.741174513544    -2.021187151994    -3.450397375356     1.007825032070
           H          4.199174513544    -1.128187151994    -0.270397375356     1.007825032070
           H         -3.438825486456     1.530812848006     3.058602624644     1.007825032070

  Running in c1 symmetry.

  Rotational constants: A =      0.09694  B =      0.01355  C =      0.01209 [cm^-1]
  Rotational constants: A =   2906.05734  B =    406.09274  C =    362.33334 [MHz]
  Nuclear repulsion =  698.583156192278921

  Charge       = 0
  Multiplicity = 1
  Electrons    = 90
  Nalpha       = 45
  Nbeta        = 45

  ==> Algorithm <==

  SCF Algorithm Type is DF.
  DIIS enabled.
  MOM disabled.
  Fractional occupation disabled.
  Guess Type is SAD.
  Energy threshold   = 1.00e-10
  Density threshold  = 1.00e-10
  Integral threshold = 0.00e+00

  ==> Primary Basis <==

  Basis Set: AUG-CC-PVTZ
    Blend: AUG-CC-PVTZ
    Number of shells: 263
    Number of basis function: 805
    Number of Cartesian functions: 940
    Spherical Harmonics?: true
    Max angular momentum: 3

   => Loading Basis Set <=

    Name: (AUG-CC-PVTZ AUX)
    Role: JKFIT
    Keyword: DF_BASIS_SCF
    atoms 1-11  entry C          line   161 file /cbio/jclab/home/chayas/anaconda/envs/py35/share/psi4/basis/aug-cc-pvtz-jkfit.gbs 
    atoms 12    entry N          line   223 file /cbio/jclab/home/chayas/anaconda/envs/py35/share/psi4/basis/aug-cc-pvtz-jkfit.gbs 
    atoms 13    entry O          line   285 file /cbio/jclab/home/chayas/anaconda/envs/py35/share/psi4/basis/aug-cc-pvtz-jkfit.gbs 
    atoms 14-22 entry H          line    69 file /cbio/jclab/home/chayas/anaconda/envs/py35/share/psi4/basis/aug-cc-pvtz-jkfit.gbs 

  ==> Pre-Iterations <==

   -------------------------------------------------------
    Irrep   Nso     Nmo     Nalpha   Nbeta   Ndocc  Nsocc
   -------------------------------------------------------
     A        805     805       0       0       0       0
   -------------------------------------------------------
    Total     805     805      45      45      45       0
   -------------------------------------------------------

  ==> Integral Setup <==

  ==> DFJK: Density-Fitted J/K Matrices <==

    J tasked:                  Yes
    K tasked:                  Yes
    wK tasked:                  No
    OpenMP threads:              8
    Integrals threads:           8
    Memory (MB):              3576
    Algorithm:                Disk
    Integral Cache:           NONE
    Schwarz Cutoff:          1E-12
    Fitting Condition:       1E-12

   => Auxiliary Basis Set <=

  Basis Set: (AUG-CC-PVTZ AUX)
    Blend: AUG-CC-PVTZ-JKFIT
    Number of shells: 516
    Number of basis function: 1766
    Number of Cartesian functions: 2198
    Spherical Harmonics?: true
    Max angular momentum: 4

  Minimum eigenvalue in the overlap matrix is 5.7899432057E-07.
  Using Symmetric Orthogonalization.

  SCF Guess: Superposition of Atomic Densities via on-the-fly atomic UHF.

  ==> Iterations <==

                           Total Energy        Delta E     RMS |[F,P]|

   @DF-RHF iter   0:  -556.49400161345159   -5.56494e+02   2.27569e-02 
   @DF-RHF iter   1:  -550.96588037293225    5.52812e+00   1.35665e-03 
   @DF-RHF iter   2:  -551.24172797603831   -2.75848e-01   6.77221e-04 DIIS
   @DF-RHF iter   3:  -551.27533502974961   -3.36071e-02   3.42006e-04 DIIS
   @DF-RHF iter   4:  -551.28422946955880   -8.89444e-03   5.48434e-05 DIIS
   @DF-RHF iter   5:  -551.28499519466493   -7.65725e-04   3.54066e-05 DIIS
   @DF-RHF iter   6:  -551.28516278952316   -1.67595e-04   1.41523e-05 DIIS
   @DF-RHF iter   7:  -551.28519416669144   -3.13772e-05   5.81264e-06 DIIS
   @DF-RHF iter   8:  -551.28519858435345   -4.41766e-06   2.37079e-06 DIIS
   @DF-RHF iter   9:  -551.28520006414897   -1.47980e-06   1.17304e-06 DIIS
   @DF-RHF iter  10:  -551.28520054859268   -4.84444e-07   6.98359e-07 DIIS
   @DF-RHF iter  11:  -551.28520066384669   -1.15254e-07   1.83577e-07 DIIS
   @DF-RHF iter  12:  -551.28520067218301   -8.33631e-09   6.08547e-08 DIIS
   @DF-RHF iter  13:  -551.28520067271006   -5.27052e-10   2.14632e-08 DIIS
   @DF-RHF iter  14:  -551.28520067279328   -8.32188e-11   6.73777e-09 DIIS
   @DF-RHF iter  15:  -551.28520067277441    1.88720e-11   3.09546e-09 DIIS
   @DF-RHF iter  16:  -551.28520067278703   -1.26192e-11   1.22789e-09 DIIS
   @DF-RHF iter  17:  -551.28520067277043    1.65983e-11   6.17889e-10 DIIS
   @DF-RHF iter  18:  -551.28520067280704   -3.66072e-11   3.46074e-10 DIIS
   @DF-RHF iter  19:  -551.28520067278657    2.04636e-11   1.54063e-10 DIIS
   @DF-RHF iter  20:  -551.28520067280283   -1.62572e-11   6.18785e-11 DIIS

  ==> Post-Iterations <==

    Orbital Energies (a.u.)
    -----------------------

    Doubly Occupied:                                                      

       1A    -20.600687     2A    -15.561110     3A    -11.315963  
       4A    -11.273720     5A    -11.273653     6A    -11.262947  
       7A    -11.255161     8A    -11.253908     9A    -11.246027  
      10A    -11.244477    11A    -11.242747    12A    -11.235652  
      13A    -11.235612    14A     -1.416137    15A     -1.248055  
      16A     -1.174214    17A     -1.103940    18A     -1.039521  
      19A     -1.028492    20A     -1.009512    21A     -0.881883  
      22A     -0.873337    23A     -0.838768    24A     -0.810540  
      25A     -0.749051    26A     -0.724952    27A     -0.684325  
      28A     -0.665038    29A     -0.650422    30A     -0.632414  
      31A     -0.616350    32A     -0.610006    33A     -0.600768  
      34A     -0.591812    35A     -0.573587    36A     -0.542691  
      37A     -0.530454    38A     -0.522812    39A     -0.499584  
      40A     -0.496226    41A     -0.417042    42A     -0.395974  
      43A     -0.355820    44A     -0.348764    45A     -0.306295  

    Virtual:                                                              

      46A      0.021521    47A      0.029483    48A      0.032062  
      49A      0.039452    50A      0.043074    51A      0.044632  
      52A      0.055014    53A      0.056784    54A      0.063312  
      55A      0.077177    56A      0.078688    57A      0.083476  
      58A      0.087665    59A      0.094081    60A      0.096303  
      61A      0.102802    62A      0.103836    63A      0.108450  
      64A      0.110836    65A      0.111748    66A      0.114688  
      67A      0.120210    68A      0.121436    69A      0.126321  
      70A      0.129562    71A      0.132777    72A      0.134595  
      73A      0.136681    74A      0.143138    75A      0.147248  
      76A      0.148908    77A      0.151060    78A      0.154144  
      79A      0.158642    80A      0.164094    81A      0.168449  
      82A      0.174036    83A      0.175925    84A      0.183117  
      85A      0.184416    86A      0.186827    87A      0.201402  
      88A      0.203996    89A      0.214493    90A      0.216879  
      91A      0.221072    92A      0.224186    93A      0.226031  
      94A      0.236639    95A      0.241394    96A      0.241765  
      97A      0.246515    98A      0.251101    99A      0.252491  
     100A      0.255885   101A      0.258168   102A      0.264211  
     103A      0.265847   104A      0.272638   105A      0.274417  
     106A      0.276293   107A      0.285237   108A      0.288923  
     109A      0.291332   110A      0.298051   111A      0.299838  
     112A      0.301616   113A      0.306421   114A      0.312291  
     115A      0.316795   116A      0.320210   117A      0.326311  
     118A      0.328087   119A      0.328597   120A      0.333620  
     121A      0.339473   122A      0.343774   123A      0.352301  
     124A      0.357026   125A      0.361414   126A      0.366017  
     127A      0.370297   128A      0.374537   129A      0.386469  
     130A      0.390640   131A      0.395429   132A      0.398723  
     133A      0.401005   134A      0.410876   135A      0.418312  
     136A      0.419457   137A      0.424323   138A      0.428093  
     139A      0.430619   140A      0.434027   141A      0.438880  
     142A      0.440264   143A      0.445584   144A      0.448443  
     145A      0.449549   146A      0.452479   147A      0.456596  
     148A      0.460481   149A      0.464998   150A      0.466761  
     151A      0.473056   152A      0.475609   153A      0.484115  
     154A      0.486332   155A      0.488775   156A      0.492729  
     157A      0.500216   158A      0.501314   159A      0.504496  
     160A      0.508038   161A      0.509060   162A      0.512313  
     163A      0.514533   164A      0.518764   165A      0.520677  
     166A      0.526008   167A      0.528616   168A      0.532949  
     169A      0.534000   170A      0.540653   171A      0.545138  
     172A      0.548391   173A      0.550522   174A      0.555194  
     175A      0.556862   176A      0.563989   177A      0.568737  
     178A      0.579108   179A      0.582557   180A      0.588317  
     181A      0.593235   182A      0.598959   183A      0.604361  
     184A      0.613073   185A      0.614343   186A      0.623785  
     187A      0.627494   188A      0.636606   189A      0.639419  
     190A      0.643967   191A      0.655208   192A      0.655801  
     193A      0.669435   194A      0.677320   195A      0.686571  
     196A      0.691755   197A      0.696968   198A      0.701289  
     199A      0.705065   200A      0.707282   201A      0.711683  
     202A      0.719441   203A      0.726493   204A      0.731230  
     205A      0.734597   206A      0.740580   207A      0.742693  
     208A      0.750517   209A      0.755612   210A      0.763255  
     211A      0.765654   212A      0.771999   213A      0.777198  
     214A      0.788408   215A      0.797776   216A      0.801841  
     217A      0.804423   218A      0.808479   219A      0.819012  
     220A      0.823974   221A      0.831256   222A      0.835075  
     223A      0.837241   224A      0.845386   225A      0.851446  
     226A      0.854104   227A      0.855921   228A      0.865253  
     229A      0.875439   230A      0.876546   231A      0.879712  
     232A      0.882325   233A      0.884188   234A      0.890801  
     235A      0.894139   236A      0.897218   237A      0.907716  
     238A      0.909292   239A      0.911281   240A      0.918173  
     241A      0.928481   242A      0.930738   243A      0.937324  
     244A      0.942240   245A      0.946904   246A      0.953853  
     247A      0.959174   248A      0.963877   249A      0.968484  
     250A      0.970637   251A      0.973523   252A      0.978030  
     253A      0.982473   254A      0.987098   255A      0.989710  
     256A      0.998352   257A      1.000233   258A      1.004501  
     259A      1.012723   260A      1.014784   261A      1.019831  
     262A      1.021787   263A      1.026179   264A      1.029756  
     265A      1.036919   266A      1.038580   267A      1.042052  
     268A      1.046705   269A      1.049027   270A      1.054571  
     271A      1.057298   272A      1.064693   273A      1.069998  
     274A      1.079458   275A      1.082509   276A      1.087616  
     277A      1.089604   278A      1.092456   279A      1.097996  
     280A      1.099018   281A      1.103555   282A      1.108169  
     283A      1.113931   284A      1.118364   285A      1.120403  
     286A      1.121895   287A      1.130552   288A      1.139101  
     289A      1.144979   290A      1.151178   291A      1.159323  
     292A      1.161996   293A      1.166758   294A      1.169632  
     295A      1.173718   296A      1.179442   297A      1.184176  
     298A      1.187930   299A      1.194379   300A      1.199857  
     301A      1.203221   302A      1.210837   303A      1.214490  
     304A      1.216169   305A      1.220693   306A      1.224680  
     307A      1.228662   308A      1.240340   309A      1.245977  
     310A      1.246958   311A      1.259613   312A      1.266350  
     313A      1.273969   314A      1.277977   315A      1.284291  
     316A      1.286376   317A      1.298158   318A      1.301660  
     319A      1.305666   320A      1.310514   321A      1.317950  
     322A      1.329286   323A      1.333680   324A      1.340938  
     325A      1.346596   326A      1.348735   327A      1.356505  
     328A      1.370142   329A      1.373279   330A      1.386086  
     331A      1.390775   332A      1.398011   333A      1.408708  
     334A      1.419636   335A      1.421505   336A      1.435976  
     337A      1.448085   338A      1.451752   339A      1.454595  
     340A      1.460149   341A      1.461332   342A      1.469338  
     343A      1.495791   344A      1.498028   345A      1.501584  
     346A      1.515923   347A      1.520659   348A      1.522013  
     349A      1.531490   350A      1.533692   351A      1.536324  
     352A      1.549128   353A      1.557076   354A      1.580022  
     355A      1.590690   356A      1.592328   357A      1.605044  
     358A      1.608643   359A      1.609666   360A      1.615865  
     361A      1.631997   362A      1.643974   363A      1.647999  
     364A      1.655663   365A      1.663002   366A      1.676176  
     367A      1.681688   368A      1.692251   369A      1.695800  
     370A      1.697693   371A      1.705292   372A      1.712613  
     373A      1.722436   374A      1.726504   375A      1.730702  
     376A      1.735510   377A      1.742141   378A      1.745092  
     379A      1.752105   380A      1.775126   381A      1.780422  
     382A      1.784295   383A      1.789502   384A      1.801042  
     385A      1.814445   386A      1.820747   387A      1.822401  
     388A      1.830318   389A      1.840084   390A      1.842644  
     391A      1.846750   392A      1.861968   393A      1.864256  
     394A      1.873856   395A      1.875162   396A      1.890432  
     397A      1.905133   398A      1.910666   399A      1.914239  
     400A      1.929909   401A      1.939701   402A      1.944745  
     403A      1.952212   404A      1.961896   405A      1.966024  
     406A      1.970598   407A      1.974644   408A      1.986590  
     409A      1.991960   410A      2.002263   411A      2.009447  
     412A      2.015690   413A      2.021867   414A      2.036291  
     415A      2.043884   416A      2.049099   417A      2.056248  
     418A      2.061153   419A      2.069795   420A      2.074738  
     421A      2.078373   422A      2.092050   423A      2.096908  
     424A      2.105820   425A      2.107535   426A      2.120449  
     427A      2.123891   428A      2.133500   429A      2.137349  
     430A      2.141408   431A      2.145999   432A      2.153458  
     433A      2.172213   434A      2.182605   435A      2.186788  
     436A      2.192653   437A      2.196495   438A      2.211891  
     439A      2.223209   440A      2.234601   441A      2.238243  
     442A      2.246622   443A      2.254153   444A      2.263887  
     445A      2.275377   446A      2.297065   447A      2.303057  
     448A      2.311754   449A      2.318292   450A      2.328640  
     451A      2.340309   452A      2.354785   453A      2.364364  
     454A      2.368320   455A      2.374040   456A      2.378914  
     457A      2.398649   458A      2.403541   459A      2.405832  
     460A      2.412771   461A      2.420499   462A      2.436145  
     463A      2.453912   464A      2.458062   465A      2.465577  
     466A      2.480915   467A      2.509059   468A      2.514652  
     469A      2.521542   470A      2.531514   471A      2.556288  
     472A      2.561819   473A      2.568790   474A      2.571073  
     475A      2.579414   476A      2.586693   477A      2.599655  
     478A      2.613435   479A      2.619892   480A      2.645421  
     481A      2.646674   482A      2.659203   483A      2.688847  
     484A      2.712943   485A      2.723978   486A      2.748755  
     487A      2.765016   488A      2.766159   489A      2.804063  
     490A      2.808805   491A      2.816488   492A      2.834294  
     493A      2.842027   494A      2.862490   495A      2.870715  
     496A      2.875960   497A      2.892968   498A      2.896990  
     499A      2.928011   500A      2.975824   501A      2.992469  
     502A      3.006578   503A      3.011093   504A      3.059822  
     505A      3.066707   506A      3.076846   507A      3.103830  
     508A      3.109868   509A      3.143228   510A      3.164676  
     511A      3.193885   512A      3.210159   513A      3.221178  
     514A      3.233104   515A      3.239047   516A      3.248126  
     517A      3.280328   518A      3.296466   519A      3.302395  
     520A      3.309321   521A      3.320531   522A      3.336541  
     523A      3.344903   524A      3.358120   525A      3.368649  
     526A      3.372773   527A      3.388453   528A      3.402917  
     529A      3.411963   530A      3.420932   531A      3.425827  
     532A      3.431949   533A      3.441267   534A      3.450262  
     535A      3.460179   536A      3.478430   537A      3.485369  
     538A      3.490793   539A      3.496191   540A      3.514528  
     541A      3.520041   542A      3.530699   543A      3.537307  
     544A      3.540979   545A      3.553798   546A      3.558115  
     547A      3.565728   548A      3.578086   549A      3.581379  
     550A      3.586380   551A      3.593365   552A      3.597052  
     553A      3.610366   554A      3.631240   555A      3.641935  
     556A      3.648851   557A      3.654304   558A      3.663894  
     559A      3.675703   560A      3.689603   561A      3.694285  
     562A      3.705193   563A      3.718472   564A      3.730552  
     565A      3.745067   566A      3.755398   567A      3.770603  
     568A      3.778906   569A      3.780738   570A      3.785956  
     571A      3.789851   572A      3.814610   573A      3.818176  
     574A      3.833952   575A      3.836716   576A      3.846221  
     577A      3.855329   578A      3.857059   579A      3.875241  
     580A      3.879783   581A      3.890194   582A      3.891478  
     583A      3.902475   584A      3.912477   585A      3.922268  
     586A      3.935427   587A      3.940703   588A      3.943126  
     589A      3.951148   590A      3.961671   591A      3.969238  
     592A      3.975099   593A      3.988173   594A      3.997061  
     595A      4.000411   596A      4.015041   597A      4.025505  
     598A      4.028113   599A      4.033731   600A      4.037804  
     601A      4.040760   602A      4.049437   603A      4.084028  
     604A      4.096583   605A      4.107725   606A      4.112114  
     607A      4.113771   608A      4.128501   609A      4.136286  
     610A      4.143690   611A      4.151245   612A      4.152436  
     613A      4.167302   614A      4.175160   615A      4.187635  
     616A      4.202603   617A      4.206367   618A      4.214947  
     619A      4.229788   620A      4.233025   621A      4.253193  
     622A      4.256114   623A      4.262517   624A      4.273394  
     625A      4.283485   626A      4.294072   627A      4.306299  
     628A      4.314308   629A      4.328485   630A      4.337140  
     631A      4.339285   632A      4.343974   633A      4.350698  
     634A      4.364378   635A      4.365823   636A      4.384899  
     637A      4.393459   638A      4.399704   639A      4.401529  
     640A      4.408737   641A      4.429557   642A      4.436772  
     643A      4.443544   644A      4.447352   645A      4.455606  
     646A      4.463142   647A      4.471838   648A      4.476469  
     649A      4.496573   650A      4.499421   651A      4.504496  
     652A      4.514508   653A      4.526210   654A      4.531663  
     655A      4.549521   656A      4.560501   657A      4.574037  
     658A      4.589708   659A      4.602096   660A      4.619202  
     661A      4.635198   662A      4.642730   663A      4.668847  
     664A      4.685008   665A      4.693518   666A      4.700861  
     667A      4.710367   668A      4.726617   669A      4.736313  
     670A      4.746317   671A      4.770943   672A      4.787301  
     673A      4.800782   674A      4.809965   675A      4.834070  
     676A      4.845330   677A      4.871248   678A      4.876909  
     679A      4.882211   680A      4.895848   681A      4.913269  
     682A      4.928764   683A      4.943384   684A      4.948741  
     685A      4.957609   686A      4.963644   687A      4.977156  
     688A      4.991938   689A      5.007122   690A      5.027612  
     691A      5.035564   692A      5.041968   693A      5.051474  
     694A      5.055136   695A      5.076476   696A      5.094400  
     697A      5.099980   698A      5.113957   699A      5.121010  
     700A      5.139431   701A      5.142768   702A      5.146577  
     703A      5.162382   704A      5.166558   705A      5.170052  
     706A      5.180612   707A      5.210373   708A      5.222916  
     709A      5.232787   710A      5.239740   711A      5.273138  
     712A      5.281351   713A      5.294822   714A      5.307626  
     715A      5.314097   716A      5.328859   717A      5.350197  
     718A      5.360308   719A      5.377709   720A      5.399319  
     721A      5.419864   722A      5.424355   723A      5.440462  
     724A      5.444265   725A      5.457139   726A      5.487901  
     727A      5.490315   728A      5.525090   729A      5.543258  
     730A      5.555361   731A      5.561951   732A      5.572333  
     733A      5.623006   734A      5.634147   735A      5.663007  
     736A      5.702719   737A      5.712473   738A      5.714137  
     739A      5.757745   740A      5.762299   741A      5.801451  
     742A      5.822820   743A      5.827208   744A      5.852598  
     745A      5.875004   746A      5.879523   747A      5.916575  
     748A      5.928312   749A      5.986471   750A      6.060728  
     751A      6.087270   752A      6.120639   753A      6.158064  
     754A      6.188475   755A      6.216642   756A      6.266142  
     757A      6.282304   758A      6.321897   759A      6.364549  
     760A      6.405803   761A      6.435544   762A      6.469930  
     763A      6.483697   764A      6.502888   765A      6.527318  
     766A      6.600122   767A      6.626518   768A      6.711521  
     769A      6.713542   770A      6.729640   771A      6.742950  
     772A      6.887091   773A      6.889987   774A      6.906308  
     775A      6.911740   776A      6.944784   777A      6.976581  
     778A      6.986945   779A      7.071122   780A      7.104102  
     781A      7.106922   782A      7.227195   783A      7.272894  
     784A      7.405221   785A      7.436140   786A      7.463956  
     787A      7.688735   788A      7.702510   789A      7.754527  
     790A      7.983955   791A      8.376733   792A      8.616878  
     793A     15.637101   794A     16.389003   795A     16.661866  
     796A     16.760254   797A     16.825861   798A     18.434269  
     799A     18.824129   800A     19.191779   801A     19.569234  
     802A     20.057991   803A     20.083927   804A     20.601753  
     805A     21.809474  

    Final Occupation by Irrep:
              A 
    DOCC [    45 ]

  Energy converged.

  @DF-RHF Final Energy:  -551.28520067280283

   => Energetics <=

    Nuclear Repulsion Energy =            698.5831561922789206
    One-Electron Energy =               -2133.8558106961872909
    Two-Electron Energy =                 883.9874538311055403
    DFT Exchange-Correlation Energy =       0.0000000000000000
    Empirical Dispersion Energy =           0.0000000000000000
    PCM Polarization Energy =               0.0000000000000000
    EFP Energy =                            0.0000000000000000
    Total Energy =                       -551.2852006728028300



Properties will be evaluated at   0.000000,   0.000000,   0.000000 Bohr

Properties computed using the SCF density matrix

  Nuclear Dipole Moment: (a.u.)
     X:    -0.5864      Y:     0.0456      Z:     1.1777

  Electronic Dipole Moment: (a.u.)
     X:    -0.1506      Y:     0.1611      Z:    -0.1929

  Dipole Moment: (a.u.)
     X:    -0.7370      Y:     0.2067      Z:     0.9848     Total:     1.2473

  Dipole Moment: (Debye)
     X:    -1.8732      Y:     0.5255      Z:     2.5032     Total:     3.1703


*** tstop() called on gpu-2-12.local at Sun Nov 12 13:29:32 2017
Module time:
	user time   =    1161.64 seconds =      19.36 minutes
	system time =      56.36 seconds =       0.94 minutes
	total time  =        520 seconds =       8.67 minutes
Total time:
	user time   =    1161.64 seconds =      19.36 minutes
	system time =      56.36 seconds =       0.94 minutes
	total time  =        520 seconds =       8.67 minutes

  //>>>>>>>>>>>>>>>>>>>>>>>>>>>>>>>>>>>//
  //               DFMP2               //
  //<<<<<<<<<<<<<<<<<<<<<<<<<<<<<<<<<<<//

   => Loading Basis Set <=

    Name: (AUG-CC-PVTZ AUX)
    Role: RIFIT
    Keyword: DF_BASIS_MP2
    atoms 1-11  entry C          line   147 file /cbio/jclab/home/chayas/anaconda/envs/py35/share/psi4/basis/aug-cc-pvtz-ri.gbs 
    atoms 12    entry N          line   205 file /cbio/jclab/home/chayas/anaconda/envs/py35/share/psi4/basis/aug-cc-pvtz-ri.gbs 
    atoms 13    entry O          line   263 file /cbio/jclab/home/chayas/anaconda/envs/py35/share/psi4/basis/aug-cc-pvtz-ri.gbs 
    atoms 14-22 entry H          line    29 file /cbio/jclab/home/chayas/anaconda/envs/py35/share/psi4/basis/aug-cc-pvtz-ri.gbs 

	 --------------------------------------------------------
	                          DF-MP2                         
	      2nd-Order Density-Fitted Moller-Plesset Theory     
	              RMP2 Wavefunction,   8 Threads             
	                                                         
	        Rob Parrish, Justin Turney, Andy Simmonett,      
	           Ed Hohenstein, and C. David Sherrill          
	 --------------------------------------------------------

   => Auxiliary Basis Set <=

  Basis Set: (AUG-CC-PVTZ AUX)
    Blend: AUG-CC-PVTZ-RI
    Number of shells: 490
    Number of basis function: 1792
    Number of Cartesian functions: 2263
    Spherical Harmonics?: true
    Max angular momentum: 4

	 --------------------------------------------------------
	                 NBF =   805, NAUX =  1792
	 --------------------------------------------------------
	   CLASS    FOCC     OCC    AOCC    AVIR     VIR    FVIR
	   PAIRS       0      45      45     760     760       0
	 --------------------------------------------------------


         ------------------------------------------------------------
                                     CPHF                           
                                  Rob Parrish                       
         ------------------------------------------------------------

  ==> Geometry <==

    Molecular point group: c1
    Full point group: C1

    Geometry (in Angstrom), charge = 0, multiplicity = 1:

       Center              X                  Y                   Z               Mass       
    ------------   -----------------  -----------------  -----------------  -----------------
           C         -1.252825486456     0.710812848006    -0.590397375356    12.000000000000
           C         -0.259825486456     0.094812848006     1.523602624644    12.000000000000
           C         -2.330825486456     1.283812848006     0.082602624644    12.000000000000
           C         -1.337825486456     0.667812848006     2.197602624644    12.000000000000
           C          0.724174513544    -1.026187151994    -1.834397375356    12.000000000000
           C          2.160174513544    -0.503187151994     0.022602624644    12.000000000000
           C          1.827174513544    -1.582187151994    -2.461397375356    12.000000000000
           C          3.199174513544    -1.082187151994    -0.687397375356    12.000000000000
           C         -0.216825486456     0.115812848006     0.129602624644    12.000000000000
           C          0.902174513544    -0.478187151994    -0.568397375356    12.000000000000
           C         -2.373825486456     1.262812848006     1.476602624644    12.000000000000
           N          3.064174513544    -1.625187151994    -1.918397375356    14.003074004780
           O         -3.425825486456     1.822812848006     2.133602624644    15.994914619560
           H         -1.233825486456     0.734812848006    -1.677397375356     1.007825032070
           H          0.540174513544    -0.365187151994     2.099602624644     1.007825032070
           H         -3.134825486456     1.745812848006    -0.484397375356     1.007825032070
           H         -1.365825486456     0.648812848006     3.283602624644     1.007825032070
           H         -0.242825486456    -1.025187151994    -2.328397375356     1.007825032070
           H          2.337174513544    -0.086187151994     1.008602624644     1.007825032070
           H          1.741174513544    -2.021187151994    -3.450397375356     1.007825032070
           H          4.199174513544    -1.128187151994    -0.270397375356     1.007825032070
           H         -3.438825486456     1.530812848006     3.058602624644     1.007825032070

  Nuclear repulsion =  698.583156192278921
  Reference energy  = -551.285200672802830

  ==> Basis Set <==

  Basis Set: AUG-CC-PVTZ
    Blend: AUG-CC-PVTZ
    Number of shells: 263
    Number of basis function: 805
    Number of Cartesian functions: 940
    Spherical Harmonics?: true
    Max angular momentum: 3

  ==> CGRSolver (by Rob Parrish) <==

   Number of roots    =         1
   Preconditioning    =    JACOBI
   Convergence cutoff =     1E-06
   Maximum iterations =       100

  ==> CPHFRHamiltonian (by Rob Parrish) <== 

  ==> DFJK: Density-Fitted J/K Matrices <==

    J tasked:                  Yes
    K tasked:                  Yes
    wK tasked:                  No
    OpenMP threads:              8
    Integrals threads:           8
    Memory (MB):              3576
    Algorithm:                Disk
    Integral Cache:           NONE
    Schwarz Cutoff:          1E-12
    Fitting Condition:       1E-12

   => Auxiliary Basis Set <=

  Basis Set: (AUG-CC-PVTZ AUX)
    Blend: AUG-CC-PVTZ-JKFIT
    Number of shells: 516
    Number of basis function: 1766
    Number of Cartesian functions: 2198
    Spherical Harmonics?: true
    Max angular momentum: 4

  ==> CPHF Iterations <==

  => Iterations <=

             Iter  Converged  Remaining    Residual
  CGR           1          0          1   9.140E-02
  CGR           2          0          1   3.791E-02
  CGR           3          0          1   2.643E-02
  CGR           4          0          1   1.054E-02
  CGR           5          0          1   4.197E-03
  CGR           6          0          1   1.771E-03
  CGR           7          0          1   5.002E-04
  CGR           8          0          1   1.597E-04
  CGR           9          0          1   7.907E-05
  CGR          10          0          1   3.703E-05
  CGR          11          0          1   1.408E-05
  CGR          12          0          1   5.042E-06
  CGR          13          0          1   1.492E-06
  CGR          14          1          0   4.852E-07

    CGRSolver converged.

  ==> DFCorrGrad: Density-Fitted Correlated Gradients <==

    OpenMP threads:              8
    Integrals threads:           8
    Memory (MB):              3576
    Schwarz Cutoff:          0E+00
    Fitting Condition:       1E-12

   => Auxiliary Basis Set <=

  Basis Set: (AUG-CC-PVTZ AUX)
    Blend: AUG-CC-PVTZ-JKFIT
    Number of shells: 516
    Number of basis function: 1766
    Number of Cartesian functions: 2198
    Spherical Harmonics?: true
    Max angular momentum: 4

	-----------------------------------------------------------
	 ==================> DF-MP2 Energies <==================== 
	-----------------------------------------------------------
	 Reference Energy          =    -551.2852006728028300 [Eh]
	 Singles Energy            =      -0.0000000000000002 [Eh]
	 Same-Spin Energy          =      -0.6052155252390434 [Eh]
	 Opposite-Spin Energy      =      -1.8310130527639827 [Eh]
	 Correlation Energy        =      -2.4362285780030266 [Eh]
	 Total Energy              =    -553.7214292508058406 [Eh]
	-----------------------------------------------------------
	 ================> DF-SCS-MP2 Energies <================== 
	-----------------------------------------------------------
	 SCS Same-Spin Scale       =       0.3333333333333333 [-]
	 SCS Opposite-Spin Scale   =       1.2000000000000000 [-]
	 SCS Same-Spin Energy      =      -0.2017385084130145 [Eh]
	 SCS Opposite-Spin Energy  =      -2.1972156633167792 [Eh]
	 SCS Correlation Energy    =      -2.3989541717297942 [Eh]
	 SCS Total Energy          =    -553.6841548445325998 [Eh]
	-----------------------------------------------------------


  -Total Gradient:
     Atom            X                  Y                   Z
    ------   -----------------  -----------------  -----------------
       1        0.008964742597    -0.003229018937    -0.009490659889
       2        0.008681190072    -0.006494553763    -0.005241804743
       3        0.001132864154    -0.001368748753     0.002529974356
       4       -0.006847040054     0.003426075596     0.006783377571
       5       -0.009915742246     0.001548126454     0.002169228893
       6       -0.005024264935     0.006312436827     0.007199320304
       7       -0.012684448698     0.002108884422    -0.000258503991
       8       -0.003041326092     0.006984869489     0.010982275234
       9        0.002420575658    -0.001353250986    -0.001901361913
      10        0.004382719180    -0.001969510035    -0.002210436009
      11       -0.006491447297     0.006255040560    -0.007190645263
      12        0.012418335995    -0.006962155001    -0.008112611463
      13        0.007704590811    -0.001208872924     0.000493318084
      14       -0.001026671495    -0.001180022145    -0.006635756096
      15        0.005281698310    -0.001005762056     0.004295848910
      16       -0.002745420741     0.001577299339    -0.005255643666
      17        0.000976614491    -0.000587467044     0.003821291612
      18       -0.004513234714     0.001209331152    -0.003930489139
      19        0.001089585735     0.000257022207     0.005502756796
      20        0.000491666333    -0.001028963080    -0.002848761739
      21        0.002295611560    -0.000748200921     0.000438087687
      22       -0.003550598628    -0.002542560391     0.008861194466


*** tstop() called on gpu-2-12.local at Sun Nov 12 13:59:38 2017
Module time:
	user time   =    4980.84 seconds =      83.01 minutes
	system time =     112.97 seconds =       1.88 minutes
	total time  =       2326 seconds =      38.77 minutes
Total time:
	user time   =    4980.84 seconds =      83.01 minutes
	system time =     112.97 seconds =       1.88 minutes
	total time  =       2326 seconds =      38.77 minutes

			-----------------------------------------
			 OPTKING 2.0: for geometry optimizations 
			  - R.A. King,  Bethel University        
			-----------------------------------------

	Internal coordinates to be generated automatically.
	Detected frag 1 with atoms:  1 2 3 4 5 6 7 8 9 10 11 12 13 14 15 16 17 18 19 20
	 21 22
	---Fragment 1 Bond Connectivity---
	 1 : 3 9 14
	 2 : 4 9 15
	 3 : 1 11 16
	 4 : 2 11 17
	 5 : 7 10 18
	 6 : 8 10 19
	 7 : 5 12 20
	 8 : 6 12 21
	 9 : 1 2 10
	 10 : 5 6 9
	 11 : 3 4 13
	 12 : 7 8
	 13 : 11 22
	 14 : 1
	 15 : 2
	 16 : 3
	 17 : 4
	 18 : 5
	 19 : 6
	 20 : 7
	 21 : 8
	 22 : 13

	Assuming in current code that numbering for constraints corresponds to unified fragment.
	Fixed dihedral atom list: 
	     3    11    13    22
	---Fragment 1 Geometry and Gradient---
	 C          -2.3674970617        1.3432416145       -1.1156893490
	 C          -0.4909990117        0.1791703166        2.8791916959
	 C          -4.4046218330        2.4260546886        0.1560963384
	 C          -2.5281237830        1.2619833908        4.1528671095
	 C           1.3684915030       -1.9392126784       -3.4665086583
	 C           4.0821382298       -0.9508859109        0.0427127705
	 C           3.4528594276       -2.9899004082       -4.6513669436
	 C           6.0455636819       -2.0450373418       -1.2989927839
	 C          -0.4097407880        0.2188545654        0.2449134667
	 C           1.7048627547       -0.9036427575       -1.0741153741
	 C          -4.4858800567        2.3863704398        2.7903745677
	 N           5.7904506540       -3.0711586320       -3.6252456535
	 O          -6.4738719485        3.4446170742        4.0319246370
	 H          -2.3315922652        1.3885950417       -3.1698216554
	 H           1.0207818946       -0.6901037045        3.9676739485
	 H          -5.9239616438        3.2991081620       -0.9153783789
	 H          -2.5810361147        1.2260785942        6.2051096898
	 H          -0.4588736675       -1.9373229522       -4.4000333680
	 H           4.4166197554       -0.1628701134        1.9059827375
	 H           3.2903429802       -3.8194901806       -6.5203060890
	 H           7.9352898148       -2.1319647439       -0.5109769865
	 H          -6.4984383882        2.8928170434        5.7799213099
	             0.0089647426       -0.0032290189       -0.0094906599
	             0.0086811901       -0.0064945538       -0.0052418047
	             0.0011328642       -0.0013687488        0.0025299744
	            -0.0068470401        0.0034260756        0.0067833776
	            -0.0099157422        0.0015481265        0.0021692289
	            -0.0050242649        0.0063124368        0.0071993203
	            -0.0126844487        0.0021088844       -0.0002585040
	            -0.0030413261        0.0069848695        0.0109822752
	             0.0024205757       -0.0013532510       -0.0019013619
	             0.0043827192       -0.0019695100       -0.0022104360
	            -0.0064914473        0.0062550406       -0.0071906453
	             0.0124183360       -0.0069621550       -0.0081126115
	             0.0077045908       -0.0012088729        0.0004933181
	            -0.0010266715       -0.0011800221       -0.0066357561
	             0.0052816983       -0.0010057621        0.0042958489
	            -0.0027454207        0.0015772993       -0.0052556437
	             0.0009766145       -0.0005874670        0.0038212916
	            -0.0045132347        0.0012093312       -0.0039304891
	             0.0010895857        0.0002570222        0.0055027568
	             0.0004916663       -0.0010289631       -0.0028487617
	             0.0022956116       -0.0007482009        0.0004380877
	            -0.0035505986       -0.0025425604        0.0088611945

	Previous optimization step data not found.  Starting new optimization.

	---Fragment 1 Intrafragment Coordinates---
	 - Coordinate -           - BOHR/RAD -       - ANG/DEG -
	 R(1,3)           =         2.634350	       1.394038
	 R(1,9)           =         2.635962	       1.394891
	 R(1,14)          =         2.054947	       1.087431
	 R(2,4)           =         2.635263	       1.394521
	 R(2,9)           =         2.635830	       1.394821
	 R(2,15)          =         2.055702	       1.087831
	 R(3,11)          =         2.635830	       1.394821
	 R(3,16)          =         2.053941	       1.086899
	 R(4,11)          =         2.636938	       1.395407
	 R(4,17)          =         2.053239	       1.086527
	 R(5,7)           =         2.617713	       1.385234
	 R(5,10)          =         2.628516	       1.390951
	 R(5,18)          =         2.052008	       1.085876
	 R(6,8)           =         2.617705	       1.385230
	 R(6,10)          =         2.626971	       1.390133
	 R(6,19)          =         2.050517	       1.085087
	 R(7,12)          =         2.554185	       1.351616
	 R(7,20)          =         2.051235	       1.085467
	 R(8,12)          =         2.555281	       1.352196
	 R(8,21)          =         2.049290	       1.084438
	 R(9,10)          =         2.733384	       1.446444
	 R(11,13)         =         2.571662	       1.360865
	 R(13,22)         =         1.833188	       0.970081
	 B(1,3,11)        =         2.094553	     120.009056
	 B(1,3,16)        =         2.088505	     119.662516
	 B(1,9,2)         =         2.093692	     119.959722
	 B(1,9,10)        =         2.095161	     120.043881
	 B(2,4,11)        =         2.093699	     119.960108
	 B(2,4,17)        =         2.089577	     119.723926
	 B(2,9,10)        =         2.094332	     119.996376
	 B(3,1,9)         =         2.094940	     120.031219
	 B(3,1,14)        =         2.079469	     119.144799
	 B(3,11,4)        =         2.094306	     119.994870
	 B(3,11,13)       =         2.094549	     120.008801
	 B(4,2,9)         =         2.095181	     120.045019
	 B(4,2,15)        =         2.078675	     119.099297
	 B(4,11,13)       =         2.094331	     119.996326
	 B(5,7,12)        =         2.164774	     124.032419
	 B(5,7,20)        =         2.107900	     120.773750
	 B(5,10,6)        =         2.089402	     119.713913
	 B(5,10,9)        =         2.096711	     120.132663
	 B(6,8,12)        =         2.164670	     124.026428
	 B(6,8,21)        =         2.108649	     120.816676
	 B(6,10,9)        =         2.097073	     120.153413
	 B(7,5,10)        =         2.058056	     117.917911
	 B(7,5,18)        =         2.098486	     120.234396
	 B(7,12,8)        =         2.031222	     116.380442
	 B(8,6,10)        =         2.058246	     117.928826
	 B(8,6,19)        =         2.099051	     120.266760
	 B(9,1,14)        =         2.108776	     120.823969
	 B(9,2,15)        =         2.109330	     120.855683
	 B(10,5,18)       =         2.126643	     121.847689
	 B(10,6,19)       =         2.125888	     121.804412
	 B(11,3,16)       =         2.100127	     120.328425
	 B(11,4,17)       =         2.099910	     120.315955
	 B(11,13,22)      =         1.924996	     110.294170
	 B(12,7,20)       =         2.010511	     115.193804
	 B(12,8,21)       =         2.009864	     115.156734
	 D(1,3,11,4)      =        -0.000325	      -0.018609
	 D(1,3,11,13)     =         3.140978	     179.964785
	 D(1,9,2,4)       =         0.000325	       0.018608
	 D(1,9,2,15)      =        -3.141497	    -179.994534
	 D(1,9,10,5)      =        -0.524224	     -30.035797
	 D(1,9,10,6)      =         2.616694	     149.925506
	 D(2,4,11,3)      =         0.000301	       0.017261
	 D(2,4,11,13)     =        -3.141002	    -179.966135
	 D(2,9,1,3)       =        -0.000348	      -0.019945
	 D(2,9,1,14)      =        -3.141221	    -179.978731
	 D(2,9,10,5)      =         2.618285	     150.016707
	 D(2,9,10,6)      =        -0.523983	     -30.021991
	 D(3,1,9,10)      =        -3.141025	    -179.967461
	 D(3,11,4,17)     =         3.141223	     179.978848
	 D(3,11,13,22)    =         2.879443	     164.979914
	 D(4,2,9,10)      =         3.141002	     179.966149
	 D(4,11,3,16)     =         3.141593	     180.000000
	 D(4,11,13,22)    =        -0.262440	     -15.036692
	 D(5,7,12,8)      =        -0.001332	      -0.076323
	 D(5,10,6,8)      =         0.000381	       0.021838
	 D(5,10,6,19)     =        -3.140989	    -179.965395
	 D(6,8,12,7)      =         0.001671	       0.095732
	 D(6,10,5,7)      =        -0.000077	      -0.004437
	 D(6,10,5,18)     =        -3.141299	    -179.983151
	 D(7,5,10,9)      =         3.140843	     179.957036
	 D(7,12,8,21)     =         3.140716	     179.949799
	 D(8,6,10,9)      =        -3.140539	    -179.939628
	 D(8,12,7,20)     =         3.139212	     179.863574
	 D(9,1,3,11)      =         0.000348	       0.019955
	 D(9,1,3,16)      =        -3.141571	    -179.998735
	 D(9,2,4,11)      =        -0.000301	      -0.017270
	 D(9,2,4,17)      =        -3.141228	    -179.979086
	 D(9,10,5,18)     =        -0.000378	      -0.021678
	 D(9,10,6,19)     =         0.001277	       0.073140
	 D(10,5,7,12)     =         0.000580	       0.033223
	 D(10,5,7,20)     =        -3.139908	    -179.903478
	 D(10,6,8,12)     =        -0.001235	      -0.070741
	 D(10,6,8,21)     =        -3.140143	    -179.916933
	 D(10,9,1,14)     =         0.001287	       0.073752
	 D(10,9,2,15)     =        -0.000820	      -0.046992
	 D(11,3,1,14)     =         3.141234	     179.979432
	 D(11,4,2,15)     =         3.141517	     179.995641
	 D(12,7,5,18)     =        -3.141378	    -179.987706
	 D(12,8,6,19)     =         3.140139	     179.916697
	 D(13,11,3,16)    =        -0.000286	      -0.016400
	 D(13,11,4,17)    =        -0.000079	      -0.004548
	 D(14,1,3,16)     =        -0.000685	      -0.039257
	 D(15,2,4,17)     =         0.000590	       0.033826
	 D(18,5,7,20)     =         0.001319	       0.075593
	 D(19,6,8,21)     =         0.001231	       0.070505

	Current energy   :      -553.7214292508

	Generating empirical Hessian (Schlegel '84) for each fragment.
	Adding user-defined constraint: Fragment 1; Coordinate 73:
		Value =     2.879443; Fixed value    =     2.879793
		Force =     0.000175; Force constant =     0.500000
	Removing off-diagonal coupling between coordinate 73 and others.
	Taking RFO optimization step.
	Going to follow RFO solution 1.
	Using RFO vector 1.

	Determining step-restricting scale parameter for RS-RFO.
	Maximum step size allowed    0.10000

	 Iter      |step|        alpha        rfo_root  
	------------------------------------------------
	    0     0.25516       1.00000           1
	    1     0.18329       3.71625           1
	    2     0.14250      10.29002           1
	    3     0.11624      22.88972           1
	    4     0.10334      34.66936           1
	    5     0.10019      38.46310           1
	    6     0.10000      38.69872           1
	------------------------------------------------
	Norm of target step-size    0.10000
	Projected energy change by RFO approximation:        -0.0048719107

	Back-transformation to cartesian coordinates...
	Could not converge backtransformation.
	Using first guess instead.

	--- Internal Coordinate Step in ANG or DEG, aJ/ANG or AJ/DEG ---
	 ---------------------------------------------------------------------------
	   Coordinate                Previous        Force       Change         New 
	   ----------                --------       ------       ------       ------
	    1 R(1,3)          =      1.394038    -0.059083    -0.005851     1.388188
	    2 R(1,9)          =      1.394891    -0.000364     0.000238     1.395129
	    3 R(1,14)         =      1.087431    -0.054287    -0.006448     1.080983
	    4 R(2,4)          =      1.394521    -0.062217    -0.006100     1.388421
	    5 R(2,9)          =      1.394821    -0.010812    -0.000848     1.393973
	    6 R(2,15)         =      1.087831    -0.054244    -0.006465     1.081366
	    7 R(3,11)         =      1.394821    -0.085335    -0.008564     1.386257
	    8 R(3,16)         =      1.086899    -0.044844    -0.005314     1.081584
	    9 R(4,11)         =      1.395407    -0.040276    -0.004077     1.391331
	   10 R(4,17)         =      1.086527    -0.031344    -0.003730     1.082797
	   11 R(5,7)          =      1.385234     0.001771     0.000161     1.385395
	   12 R(5,10)         =      1.390951     0.004013     0.000916     1.391867
	   13 R(5,18)         =      1.085876    -0.047853    -0.005659     1.080217
	   14 R(6,8)          =      1.385230     0.001532     0.000135     1.385365
	   15 R(6,10)         =      1.390133     0.009745     0.001589     1.391722
	   16 R(6,19)         =      1.085087    -0.043475    -0.005105     1.079982
	   17 R(7,12)         =      1.351616    -0.122753    -0.011057     1.340559
	   18 R(7,20)         =      1.085467    -0.024491    -0.002889     1.082578
	   19 R(8,12)         =      1.352196    -0.126594    -0.011425     1.340771
	   20 R(8,21)         =      1.084438    -0.019090    -0.002245     1.082193
	   21 R(9,10)         =      1.446444     0.154023     0.017265     1.463709
	   22 R(11,13)        =      1.360865     0.001967     0.000556     1.361420
	   23 R(13,22)        =      0.970081    -0.076308    -0.006776     0.963305
	   24 B(1,3,11)       =    120.009056    -0.000006    -0.063433   119.945624
	   25 B(1,3,16)       =    119.662516     0.000224     0.514931   120.177447
	   26 B(1,9,2)        =    119.959722    -0.000805    -1.364516   118.595205
	   27 B(1,9,10)       =    120.043881     0.000410     0.697029   120.740910
	   28 B(2,4,11)       =    119.960108     0.000132     0.209687   120.169795
	   29 B(2,4,17)       =    119.723926     0.000027     0.098180   119.822106
	   30 B(2,9,10)       =    119.996376     0.000395     0.667496   120.663872
	   31 B(3,1,9)        =    120.031219     0.000497     0.916964   120.948183
	   32 B(3,1,14)       =    119.144799    -0.000221    -0.400157   118.744642
	   33 B(3,11,4)       =    119.994870    -0.000121    -0.272650   119.722220
	   34 B(3,11,13)      =    120.008801    -0.000791    -1.335197   118.673605
	   35 B(4,2,9)        =    120.045019     0.000303     0.573939   120.618958
	   36 B(4,2,15)       =    119.099297    -0.000081    -0.136045   118.963252
	   37 B(4,11,13)      =    119.996326     0.000913     1.607829   121.604155
	   38 B(5,7,12)       =    124.032419     0.000046     0.009768   124.042186
	   39 B(5,7,20)       =    120.773750    -0.000075    -0.119111   120.654638
	   40 B(5,10,6)       =    119.713913    -0.001213    -1.987021   117.726892
	   41 B(5,10,9)       =    120.132663     0.000600     0.981181   121.113845
	   42 B(6,8,12)       =    124.026428     0.000041    -0.002423   124.024005
	   43 B(6,8,21)       =    120.816676    -0.000077    -0.122672   120.694004
	   44 B(6,10,9)       =    120.153413     0.000613     1.005842   121.159255
	   45 B(7,5,10)       =    117.917911     0.000532     1.034940   118.952851
	   46 B(7,5,18)       =    120.234396    -0.000209    -0.396666   119.837730
	   47 B(7,12,8)       =    116.380442     0.000060    -0.096298   116.284144
	   48 B(8,6,10)       =    117.928826     0.000535     1.041051   118.969877
	   49 B(8,6,19)       =    120.266760    -0.000218    -0.416927   119.849833
	   50 B(9,1,14)       =    120.823969    -0.000277    -0.517041   120.306928
	   51 B(9,2,15)       =    120.855683    -0.000221    -0.438381   120.417301
	   52 B(10,5,18)      =    121.847689    -0.000322    -0.638685   121.209004
	   53 B(10,6,19)      =    121.804412    -0.000317    -0.624567   121.179846
	   54 B(11,3,16)      =    120.328425    -0.000218    -0.451595   119.876830
	   55 B(11,4,17)      =    120.315955    -0.000159    -0.307856   120.008099
	   56 B(11,13,22)     =    110.294170    -0.000411    -0.890245   109.403925
	   57 B(12,7,20)      =    115.193804     0.000029     0.109338   115.303142
	   58 B(12,8,21)      =    115.156734     0.000036     0.125257   115.281991
	   59 D(1,3,11,4)     =     -0.018609    -0.000000    -0.020416    -0.039024
	   60 D(1,3,11,13)    =    179.964785    -0.000005    -0.054283   179.910503
	   61 D(1,9,2,4)      =      0.018608     0.000000     0.001723     0.020330
	   62 D(1,9,2,15)     =   -179.994534    -0.000015    -0.241949  -180.236483
	   63 D(1,9,10,5)     =    -30.035797    -0.000028    -0.462060   -30.497856
	   64 D(1,9,10,6)     =    149.925506    -0.000028    -0.457560   149.467946
	   65 D(2,4,11,3)     =      0.017261    -0.000000     0.016667     0.033928
	   66 D(2,4,11,13)    =   -179.966135     0.000005     0.052058  -179.914077
	   67 D(2,9,1,3)      =     -0.019945    -0.000000    -0.005690    -0.025635
	   68 D(2,9,1,14)     =   -179.978731    -0.000015    -0.230055  -180.208786
	   69 D(2,9,10,5)     =    150.016707    -0.000028    -0.473899   149.542807
	   70 D(2,9,10,6)     =    -30.021991    -0.000028    -0.469400   -30.491390
	   71 D(3,1,9,10)     =   -179.967461    -0.000001    -0.018337  -179.985798
	   72 D(3,11,4,17)    =    179.978848     0.000003     0.061808   180.040657
	   73 D(3,11,13,22)   =    164.979914     0.000015     0.095178   165.075092
	   74 D(4,2,9,10)     =    179.966149     0.000001     0.014376   179.980525
	   75 D(4,11,3,16)    =    180.000000     0.000006     0.075428   180.075428
	   76 D(4,11,13,22)   =    -15.036692     0.000010     0.060319   -14.976373
	   77 D(5,7,12,8)     =     -0.076323     0.000001     0.016861    -0.059462
	   78 D(5,10,6,8)     =      0.021838    -0.000000     0.000425     0.022263
	   79 D(5,10,6,19)    =   -179.965395    -0.000016    -0.255296  -180.220691
	   80 D(6,8,12,7)     =      0.095732    -0.000001    -0.013374     0.082358
	   81 D(6,10,5,7)     =     -0.004437     0.000000     0.002919    -0.001518
	   82 D(6,10,5,18)    =   -179.983151    -0.000016    -0.253060  -180.236211
	   83 D(7,5,10,9)     =    179.957036     0.000001     0.008386   179.965422
	   84 D(7,12,8,21)    =    179.949799     0.000008     0.133287   180.083086
	   85 D(8,6,10,9)     =   -179.939628    -0.000000    -0.005033  -179.944661
	   86 D(8,12,7,20)    =    179.863574     0.000009     0.143576   180.007150
	   87 D(9,1,3,11)     =      0.019955     0.000000     0.015354     0.035309
	   88 D(9,1,3,16)     =   -179.998735    -0.000005    -0.080756  -180.079491
	   89 D(9,2,4,11)     =     -0.017270     0.000000    -0.007524    -0.024794
	   90 D(9,2,4,17)     =   -179.979086    -0.000003    -0.052424  -180.031510
	   91 D(9,10,5,18)    =     -0.021678    -0.000016    -0.247594    -0.269272
	   92 D(9,10,6,19)    =      0.073140    -0.000017    -0.260754    -0.187615
	   93 D(10,5,7,12)    =      0.033223    -0.000001    -0.012075     0.021147
	   94 D(10,5,7,20)    =   -179.903478    -0.000009    -0.145377  -180.048856
	   95 D(10,6,8,12)    =     -0.070741     0.000000     0.004674    -0.066066
	   96 D(10,6,8,21)    =   -179.916933    -0.000009    -0.149898  -180.066831
	   97 D(10,9,1,14)    =      0.073752    -0.000015    -0.242701    -0.168949
	   98 D(10,9,2,15)    =     -0.046992    -0.000014    -0.229296    -0.276288
	   99 D(11,3,1,14)    =    179.979432     0.000014     0.236220   180.215653
	  100 D(11,4,2,15)    =    179.995641     0.000015     0.232689   180.228330
	  101 D(12,7,5,18)    =   -179.987706     0.000015     0.240258  -179.747448
	  102 D(12,8,6,19)    =    179.916697     0.000016     0.256889   180.173586
	  103 D(13,11,3,16)   =     -0.016400     0.000001     0.041355     0.024955
	  104 D(13,11,4,17)   =     -0.004548     0.000008     0.097199     0.092651
	  105 D(14,1,3,16)    =     -0.039257     0.000009     0.140110     0.100853
	  106 D(15,2,4,17)    =      0.033826     0.000012     0.187788     0.221614
	  107 D(18,5,7,20)    =      0.075593     0.000007     0.106956     0.182549
	  108 D(19,6,8,21)    =      0.070505     0.000006     0.102316     0.172821
	 ---------------------------------------------------------------------------
	Successfully symmetrized geometry.
	 Forces used to impose fixed constraints are not included.
	  Forces zeroed: 73 

  ==> Convergence Check <==

  Measures of convergence in internal coordinates in au.
  Criteria marked as inactive (o), active & met (*), and active & unmet ( ).
  --------------------------------------------------------------------------------------------- ~
   Step     Total Energy     Delta E     MAX Force     RMS Force      MAX Disp      RMS Disp    ~
  --------------------------------------------------------------------------------------------- ~
    Convergence Criteria    1.00e-06 *    3.00e-04 *             o    1.20e-03 *             o  ~
  --------------------------------------------------------------------------------------------- ~
      1    -553.72142925   -5.54e+02      1.87e-02      4.78e-03 o    3.47e-02      9.61e-03 o  ~
  ---------------------------------------------------------------------------------------------

	Writing optimization data to binary file.
	Structure for next step:
	Cartesian Geometry (in Angstrom)
	    C    -1.2660417486   0.7224087847  -0.5625758247
	    C    -0.2792439621   0.0997268871   1.5325737204
	    C    -2.3405906648   1.2929826722   0.1058960233
	    C    -1.3523115199   0.6694753790   2.2046044495
	    C     0.7497076050  -1.0382321446  -1.8351966616
	    C     2.1788365065  -0.5135540912  -0.0024444399
	    C     1.8508948663  -1.5935541104  -2.4663260092
	    C     3.2170207873  -1.0916388100  -0.7146431177
	    C    -0.2226650372   0.1188316704   0.1398800048
	    C     0.9083263318  -0.4811404180  -0.5695816195
	    C    -2.3859542861   1.2681585504   1.4911884358
	    N     3.0804518794  -1.6329528554  -1.9336574718
	    O    -3.4509553422   1.8370043602   2.1201976774
	    H    -1.2487593200   0.7558608881  -1.6429029472
	    H     0.5115913871  -0.3636588483   2.1063373817
	    H    -3.1421680194   1.7588038711  -0.4511581566
	    H    -1.3833439561   0.6468822969   3.2867208307
	    H    -0.2123575859  -1.0469633693  -2.3263405363
	    H     2.3656199745  -0.0943262876   0.9751651313
	    H     1.7586436686  -2.0349742757  -3.4505075781
	    H     4.2161719673  -1.1309810072  -0.3007711786
	    H    -3.4720342335   1.5477235136   3.0387996284
			--------------------------
			 OPTKING Finished Execution 
			--------------------------

    Structure for next step:
    Molecular point group: c1
    Full point group: C1

    Geometry (in Angstrom), charge = 0, multiplicity = 1:

    C           -1.266172825120     0.722428615056    -0.562346330828
    C           -0.279375038610     0.099746717447     1.532803214250
    C           -2.340721741372     1.293002502540     0.106125517156
    C           -1.352442596467     0.669495209383     2.204833943325
    C            0.749576528504    -1.038212314208    -1.834967167808
    C            2.178705429983    -0.513534260833    -0.002214946103
    C            1.850763789764    -1.593534280099    -2.466096515394
    C            3.216889710733    -1.091618979688    -0.714413623917
    C           -0.222796113728     0.118851500715     0.140109498660
    C            0.908195255266    -0.481120587674    -0.569352125660
    C           -2.386085362586     1.268178380738     1.491417929657
    N            3.080320802832    -1.632933025082    -1.933427977934
    O           -3.451086418743     1.837024190549     2.120427171222
    H           -1.248890396579     0.755880718431    -1.642673453372
    H            0.511460310588    -0.363639017941     2.106566875530
    H           -3.142299095948     1.758823701489    -0.450928662759
    H           -1.383475032605     0.646902127241     3.286950324524
    H           -0.212488662454    -1.046943538918    -2.326111042515
    H            2.365488897999    -0.094306457212     0.975394625121
    H            1.758512592047    -2.034954445384    -3.450278084303
    H            4.216040890735    -1.130961176820    -0.300541684728
    H           -3.472165310007     1.547743343916     3.039029122245

gradient() will perform analytic gradient computation.

*** tstart() called on gpu-2-12.local
*** at Sun Nov 12 13:59:40 2017

    SCF Algorithm Type (re)set to DF.

*** tstart() called on gpu-2-12.local
*** at Sun Nov 12 13:59:40 2017

   => Loading Basis Set <=

    Name: AUG-CC-PVTZ
    Role: ORBITAL
    Keyword: BASIS
    atoms 1-11  entry C          line   221 file /cbio/jclab/home/chayas/anaconda/envs/py35/share/psi4/basis/aug-cc-pvtz.gbs 
    atoms 12    entry N          line   267 file /cbio/jclab/home/chayas/anaconda/envs/py35/share/psi4/basis/aug-cc-pvtz.gbs 
    atoms 13    entry O          line   313 file /cbio/jclab/home/chayas/anaconda/envs/py35/share/psi4/basis/aug-cc-pvtz.gbs 
    atoms 14-22 entry H          line    34 file /cbio/jclab/home/chayas/anaconda/envs/py35/share/psi4/basis/aug-cc-pvtz.gbs 


         ---------------------------------------------------------
                                   SCF
            by Justin Turney, Rob Parrish, and Andy Simmonett
                              RHF Reference
                        8 Threads,   4768 MiB Core
         ---------------------------------------------------------

  ==> Geometry <==

    Molecular point group: c1
    Full point group: C1

    Geometry (in Angstrom), charge = 0, multiplicity = 1:

       Center              X                  Y                   Z               Mass       
    ------------   -----------------  -----------------  -----------------  -----------------
           C         -1.266172825120     0.722428615056    -0.562346330828    12.000000000000
           C         -0.279375038610     0.099746717447     1.532803214250    12.000000000000
           C         -2.340721741372     1.293002502540     0.106125517156    12.000000000000
           C         -1.352442596467     0.669495209383     2.204833943325    12.000000000000
           C          0.749576528504    -1.038212314208    -1.834967167808    12.000000000000
           C          2.178705429983    -0.513534260833    -0.002214946103    12.000000000000
           C          1.850763789764    -1.593534280099    -2.466096515394    12.000000000000
           C          3.216889710733    -1.091618979688    -0.714413623917    12.000000000000
           C         -0.222796113728     0.118851500715     0.140109498660    12.000000000000
           C          0.908195255266    -0.481120587674    -0.569352125660    12.000000000000
           C         -2.386085362586     1.268178380738     1.491417929657    12.000000000000
           N          3.080320802832    -1.632933025082    -1.933427977934    14.003074004780
           O         -3.451086418743     1.837024190549     2.120427171222    15.994914619560
           H         -1.248890396579     0.755880718431    -1.642673453372     1.007825032070
           H          0.511460310588    -0.363639017941     2.106566875530     1.007825032070
           H         -3.142299095948     1.758823701489    -0.450928662759     1.007825032070
           H         -1.383475032605     0.646902127241     3.286950324524     1.007825032070
           H         -0.212488662454    -1.046943538918    -2.326111042515     1.007825032070
           H          2.365488897999    -0.094306457212     0.975394625121     1.007825032070
           H          1.758512592047    -2.034954445384    -3.450278084303     1.007825032070
           H          4.216040890735    -1.130961176820    -0.300541684728     1.007825032070
           H         -3.472165310007     1.547743343916     3.039029122245     1.007825032070

  Running in c1 symmetry.

  Rotational constants: A =      0.09839  B =      0.01335  C =      0.01195 [cm^-1]
  Rotational constants: A =   2949.73019  B =    400.16397  C =    358.35905 [MHz]
  Nuclear repulsion =  697.761967875171422

  Charge       = 0
  Multiplicity = 1
  Electrons    = 90
  Nalpha       = 45
  Nbeta        = 45

  ==> Algorithm <==

  SCF Algorithm Type is DF.
  DIIS enabled.
  MOM disabled.
  Fractional occupation disabled.
  Guess Type is READ.
  Energy threshold   = 1.00e-10
  Density threshold  = 1.00e-10
  Integral threshold = 0.00e+00

  ==> Primary Basis <==

  Basis Set: AUG-CC-PVTZ
    Blend: AUG-CC-PVTZ
    Number of shells: 263
    Number of basis function: 805
    Number of Cartesian functions: 940
    Spherical Harmonics?: true
    Max angular momentum: 3

   => Loading Basis Set <=

    Name: (AUG-CC-PVTZ AUX)
    Role: JKFIT
    Keyword: DF_BASIS_SCF
    atoms 1-11  entry C          line   161 file /cbio/jclab/home/chayas/anaconda/envs/py35/share/psi4/basis/aug-cc-pvtz-jkfit.gbs 
    atoms 12    entry N          line   223 file /cbio/jclab/home/chayas/anaconda/envs/py35/share/psi4/basis/aug-cc-pvtz-jkfit.gbs 
    atoms 13    entry O          line   285 file /cbio/jclab/home/chayas/anaconda/envs/py35/share/psi4/basis/aug-cc-pvtz-jkfit.gbs 
    atoms 14-22 entry H          line    69 file /cbio/jclab/home/chayas/anaconda/envs/py35/share/psi4/basis/aug-cc-pvtz-jkfit.gbs 

  Reading orbitals from file 180, no projection.

  ==> Pre-Iterations <==

   -------------------------------------------------------
    Irrep   Nso     Nmo     Nalpha   Nbeta   Ndocc  Nsocc
   -------------------------------------------------------
     A        805     805       0       0       0       0
   -------------------------------------------------------
    Total     805     805      45      45      45       0
   -------------------------------------------------------

  ==> Integral Setup <==

  ==> DFJK: Density-Fitted J/K Matrices <==

    J tasked:                  Yes
    K tasked:                  Yes
    wK tasked:                  No
    OpenMP threads:              8
    Integrals threads:           8
    Memory (MB):              3576
    Algorithm:                Disk
    Integral Cache:           NONE
    Schwarz Cutoff:          1E-12
    Fitting Condition:       1E-12

   => Auxiliary Basis Set <=

  Basis Set: (AUG-CC-PVTZ AUX)
    Blend: AUG-CC-PVTZ-JKFIT
    Number of shells: 516
    Number of basis function: 1766
    Number of Cartesian functions: 2198
    Spherical Harmonics?: true
    Max angular momentum: 4

  Minimum eigenvalue in the overlap matrix is 5.6848113786E-07.
  Using Symmetric Orthogonalization.

  SCF Guess: Orbitals guess was supplied from a previous computation.

  ==> Iterations <==

                           Total Energy        Delta E     RMS |[F,P]|

   @DF-RHF iter   0:  -551.43569525064311   -5.51436e+02   5.77581e-04 
   @DF-RHF iter   1:  -551.28942618177439    1.46269e-01   1.80945e-04 
   @DF-RHF iter   2:  -551.29035468156826   -9.28500e-04   1.33592e-04 DIIS
   @DF-RHF iter   3:  -551.29122511310493   -8.70432e-04   1.74792e-05 DIIS
   @DF-RHF iter   4:  -551.29123950856786   -1.43955e-05   4.01776e-06 DIIS
   @DF-RHF iter   5:  -551.29124191038750   -2.40182e-06   1.61537e-06 DIIS
   @DF-RHF iter   6:  -551.29124222739006   -3.17003e-07   6.12173e-07 DIIS
   @DF-RHF iter   7:  -551.29124233997402   -1.12584e-07   2.75124e-07 DIIS
   @DF-RHF iter   8:  -551.29124237478823   -3.48142e-08   1.29323e-07 DIIS
   @DF-RHF iter   9:  -551.29124238080215   -6.01392e-09   5.44001e-08 DIIS
   @DF-RHF iter  10:  -551.29124238145607   -6.53927e-10   1.46709e-08 DIIS
   @DF-RHF iter  11:  -551.29124238152428   -6.82121e-11   6.36882e-09 DIIS
   @DF-RHF iter  12:  -551.29124238156612   -4.18368e-11   2.18132e-09 DIIS
   @DF-RHF iter  13:  -551.29124238156123    4.88853e-12   1.67903e-09 DIIS
   @DF-RHF iter  14:  -551.29124238157317   -1.19371e-11   7.84650e-10 DIIS
   @DF-RHF iter  15:  -551.29124238156874    4.43379e-12   3.39141e-10 DIIS
   @DF-RHF iter  16:  -551.29124238156578    2.95586e-12   8.64073e-11 DIIS

  ==> Post-Iterations <==

    Orbital Energies (a.u.)
    -----------------------

    Doubly Occupied:                                                      

       1A    -20.601007     2A    -15.559918     3A    -11.313883  
       4A    -11.271884     5A    -11.271789     6A    -11.265436  
       7A    -11.253984     8A    -11.252192     9A    -11.246892  
      10A    -11.244642    11A    -11.239256    12A    -11.235409  
      13A    -11.235259    14A     -1.418314    15A     -1.254238  
      16A     -1.174879    17A     -1.104842    18A     -1.039503  
      19A     -1.029615    20A     -1.012309    21A     -0.881875  
      22A     -0.873053    23A     -0.842054    24A     -0.812355  
      25A     -0.750211    26A     -0.725641    27A     -0.685145  
      28A     -0.664015    29A     -0.653269    30A     -0.634776  
      31A     -0.617633    32A     -0.608187    33A     -0.602428  
      34A     -0.591983    35A     -0.576366    36A     -0.544466  
      37A     -0.531916    38A     -0.524016    39A     -0.500231  
      40A     -0.497122    41A     -0.417338    42A     -0.397459  
      43A     -0.356369    44A     -0.347983    45A     -0.308910  

    Virtual:                                                              

      46A      0.021613    47A      0.029691    48A      0.032091  
      49A      0.039500    50A      0.042965    51A      0.044917  
      52A      0.055161    53A      0.056808    54A      0.063178  
      55A      0.077957    56A      0.078942    57A      0.083726  
      58A      0.088188    59A      0.094052    60A      0.096580  
      61A      0.102647    62A      0.104064    63A      0.108560  
      64A      0.110777    65A      0.111896    66A      0.114726  
      67A      0.120084    68A      0.121628    69A      0.126344  
      70A      0.129726    71A      0.132669    72A      0.134474  
      73A      0.136572    74A      0.143186    75A      0.147324  
      76A      0.148722    77A      0.150753    78A      0.153905  
      79A      0.158682    80A      0.163662    81A      0.168298  
      82A      0.174090    83A      0.175747    84A      0.182584  
      85A      0.184241    86A      0.186822    87A      0.201477  
      88A      0.204208    89A      0.214509    90A      0.216922  
      91A      0.220750    92A      0.224093    93A      0.226154  
      94A      0.236685    95A      0.241001    96A      0.242213  
      97A      0.246280    98A      0.251286    99A      0.252531  
     100A      0.256156   101A      0.257856   102A      0.264372  
     103A      0.265699   104A      0.272759   105A      0.275000  
     106A      0.276325   107A      0.284789   108A      0.288924  
     109A      0.292718   110A      0.298489   111A      0.300904  
     112A      0.302710   113A      0.306020   114A      0.312656  
     115A      0.317287   116A      0.320077   117A      0.326068  
     118A      0.327128   119A      0.328462   120A      0.332984  
     121A      0.339617   122A      0.343464   123A      0.351924  
     124A      0.357064   125A      0.361272   126A      0.365686  
     127A      0.370271   128A      0.375579   129A      0.386763  
     130A      0.390091   131A      0.395294   132A      0.399336  
     133A      0.400185   134A      0.410249   135A      0.417177  
     136A      0.419275   137A      0.424710   138A      0.427757  
     139A      0.431312   140A      0.434679   141A      0.438751  
     142A      0.440807   143A      0.444723   144A      0.448646  
     145A      0.449709   146A      0.452306   147A      0.456672  
     148A      0.460783   149A      0.466559   150A      0.466774  
     151A      0.472092   152A      0.475764   153A      0.484059  
     154A      0.486719   155A      0.489883   156A      0.493642  
     157A      0.500641   158A      0.501470   159A      0.504717  
     160A      0.509162   161A      0.509268   162A      0.512328  
     163A      0.515271   164A      0.518565   165A      0.520291  
     166A      0.526567   167A      0.529037   168A      0.533145  
     169A      0.534227   170A      0.540369   171A      0.544054  
     172A      0.548245   173A      0.550608   174A      0.553901  
     175A      0.555155   176A      0.562627   177A      0.567852  
     178A      0.578685   179A      0.581359   180A      0.587692  
     181A      0.592129   182A      0.595810   183A      0.603799  
     184A      0.612317   185A      0.613976   186A      0.624682  
     187A      0.627873   188A      0.635612   189A      0.637684  
     190A      0.643340   191A      0.653324   192A      0.658518  
     193A      0.671196   194A      0.678629   195A      0.688003  
     196A      0.691137   197A      0.697123   198A      0.701550  
     199A      0.706181   200A      0.707286   201A      0.712709  
     202A      0.719858   203A      0.725092   204A      0.730404  
     205A      0.734117   206A      0.739926   207A      0.743422  
     208A      0.749786   209A      0.755434   210A      0.763154  
     211A      0.763994   212A      0.771362   213A      0.777815  
     214A      0.787158   215A      0.797584   216A      0.802172  
     217A      0.803987   218A      0.809259   219A      0.818350  
     220A      0.822857   221A      0.830661   222A      0.834865  
     223A      0.838213   224A      0.846310   225A      0.851784  
     226A      0.855428   227A      0.856393   228A      0.867043  
     229A      0.875525   230A      0.877264   231A      0.878884  
     232A      0.882227   233A      0.885006   234A      0.890920  
     235A      0.893073   236A      0.898826   237A      0.907196  
     238A      0.908665   239A      0.912705   240A      0.918522  
     241A      0.928401   242A      0.931137   243A      0.938585  
     244A      0.939579   245A      0.946017   246A      0.953325  
     247A      0.959037   248A      0.962713   249A      0.967683  
     250A      0.970482   251A      0.972216   252A      0.979029  
     253A      0.981026   254A      0.984437   255A      0.989197  
     256A      0.997657   257A      1.000532   258A      1.004044  
     259A      1.013394   260A      1.013839   261A      1.020002  
     262A      1.020498   263A      1.025657   264A      1.029616  
     265A      1.036512   266A      1.037383   267A      1.041293  
     268A      1.046458   269A      1.047923   270A      1.052464  
     271A      1.054709   272A      1.065574   273A      1.068274  
     274A      1.077622   275A      1.080945   276A      1.086661  
     277A      1.089191   278A      1.091754   279A      1.096401  
     280A      1.098856   281A      1.102942   282A      1.107896  
     283A      1.112874   284A      1.116698   285A      1.118323  
     286A      1.119486   287A      1.130870   288A      1.137559  
     289A      1.144690   290A      1.151170   291A      1.160053  
     292A      1.162303   293A      1.165140   294A      1.170524  
     295A      1.175794   296A      1.179262   297A      1.185022  
     298A      1.186768   299A      1.193634   300A      1.198962  
     301A      1.202330   302A      1.209510   303A      1.214706  
     304A      1.216048   305A      1.219492   306A      1.222910  
     307A      1.230414   308A      1.241104   309A      1.245815  
     310A      1.247611   311A      1.258832   312A      1.268685  
     313A      1.273497   314A      1.277165   315A      1.284599  
     316A      1.288466   317A      1.297525   318A      1.301044  
     319A      1.304605   320A      1.309785   321A      1.318678  
     322A      1.328656   323A      1.334543   324A      1.339275  
     325A      1.345264   326A      1.347230   327A      1.356426  
     328A      1.368737   329A      1.373190   330A      1.387046  
     331A      1.390125   332A      1.397769   333A      1.408518  
     334A      1.418353   335A      1.421059   336A      1.433498  
     337A      1.444717   338A      1.450456   339A      1.451554  
     340A      1.455986   341A      1.462498   342A      1.468886  
     343A      1.493999   344A      1.497177   345A      1.500283  
[...]
	 R(9,10)          =         2.761401	       1.461271
	 R(11,13)         =         2.575864	       1.363088
	 R(13,22)         =         1.817589	       0.961827
	 B(1,3,11)        =         2.092407	     119.886110
	 B(1,3,16)        =         2.114690	     121.162801
	 B(1,9,2)         =         2.061593	     118.120557
	 B(1,9,10)        =         2.111626	     120.987267
	 B(2,4,11)        =         2.094439	     120.002524
	 B(2,4,17)        =         2.094798	     120.023064
	 B(2,9,10)        =         2.109964	     120.892054
	 B(3,1,9)         =         2.115828	     121.228041
	 B(3,1,14)        =         2.080276	     119.191007
	 B(3,11,4)        =         2.089476	     119.718134
	 B(3,11,13)       =         2.048807	     117.387976
	 B(4,2,9)         =         2.112599	     121.043010
	 B(4,2,15)        =         2.081330	     119.251442
	 B(4,11,13)       =         2.144903	     122.893888
	 B(5,7,12)        =         2.159500	     123.730215
	 B(5,7,20)        =         2.095003	     120.034819
	 B(5,10,6)        =         2.035087	     116.601879
	 B(5,10,9)        =         2.123946	     121.693169
	 B(6,8,12)        =         2.159339	     123.721032
	 B(6,8,21)        =         2.095103	     120.040582
	 B(6,10,9)        =         2.124152	     121.704951
	 B(7,5,10)        =         2.088814	     119.680246
	 B(7,5,18)        =         2.091011	     119.806103
	 B(7,12,8)        =         2.034608	     116.574437
	 B(8,6,10)        =         2.089019	     119.691947
	 B(8,6,19)        =         2.090955	     119.802905
	 B(9,1,14)        =         2.086840	     119.567151
	 B(9,2,15)        =         2.088898	     119.685041
	 B(10,5,18)       =         2.103037	     120.495164
	 B(10,6,19)       =         2.102878	     120.486049
	 B(11,3,16)       =         2.076029	     118.947677
	 B(11,4,17)       =         2.093937	     119.973778
	 B(11,13,22)      =         1.902825	     109.023846
	 B(12,7,20)       =         2.028649	     116.233026
	 B(12,8,21)       =         2.028706	     116.236310
	 D(1,3,11,4)      =        -0.008328	      -0.477156
	 D(1,3,11,13)     =         3.132939	     179.504163
	 D(1,9,2,4)       =        -0.002434	      -0.139467
	 D(1,9,2,15)      =         3.110193	     178.200914
	 D(1,9,10,5)      =        -0.618731	     -35.450654
	 D(1,9,10,6)      =         2.523055	     144.560402
	 D(2,4,11,3)      =         0.004215	       0.241491
	 D(2,4,11,13)     =        -3.137033	    -179.738754
	 D(2,9,1,3)       =        -0.001753	      -0.100442
	 D(2,9,1,14)      =         3.116061	     178.537170
	 D(2,9,10,5)      =         2.520601	     144.419789
	 D(2,9,10,6)      =        -0.620799	     -35.569155
	 D(3,1,9,10)      =         3.137639	     179.773500
	 D(3,11,4,17)     =        -3.132325	    -179.469006
	 D(3,11,13,22)    =         2.881844	     165.117497
	 D(4,2,9,10)      =         3.141356	     179.986465
	 D(4,11,3,16)     =        -3.138331	    -179.813108
	 D(4,11,13,22)    =        -0.260086	     -14.901825
	 D(5,7,12,8)      =        -0.001450	      -0.083079
	 D(5,10,6,8)      =        -0.001642	      -0.094062
	 D(5,10,6,19)     =         3.112152	     178.313156
	 D(6,8,12,7)      =        -0.001184	      -0.067856
	 D(6,10,5,7)      =        -0.000777	      -0.044502
	 D(6,10,5,18)     =         3.113467	     178.388513
	 D(7,5,10,9)      =         3.141000	     179.966017
	 D(7,12,8,21)     =        -3.133607	    -179.542470
	 D(8,6,10,9)      =         3.139767	     179.895417
	 D(8,12,7,20)     =        -3.134178	    -179.575148
	 D(9,1,3,11)      =         0.007152	       0.409775
	 D(9,1,3,16)      =         3.136893	     179.730702
	 D(9,2,4,11)      =         0.001202	       0.068861
	 D(9,2,4,17)      =         3.137739	     179.779214
	 D(9,10,5,18)     =        -0.027942	      -1.600968
	 D(9,10,6,19)     =        -0.029625	      -1.697365
	 D(10,5,7,12)     =         0.002453	       0.140562
	 D(10,5,7,20)     =         3.134861	     179.614277
	 D(10,6,8,12)     =         0.002768	       0.158614
	 D(10,6,8,21)     =         3.134860	     179.614226
	 D(10,9,1,14)     =        -0.027731	      -1.588888
	 D(10,9,2,15)     =        -0.029202	      -1.673154
	 D(11,3,1,14)     =        -3.110750	    -178.232864
	 D(11,4,2,15)     =        -3.111549	    -178.278604
	 D(12,7,5,18)     =        -3.111981	    -178.303364
	 D(12,8,6,19)     =        -3.111217	    -178.259597
	 D(13,11,3,16)    =         0.002936	       0.168211
	 D(13,11,4,17)    =         0.009612	       0.550749
	 D(14,1,3,16)     =         0.018990	       1.088062
	 D(15,2,4,17)     =         0.024989	       1.431750
	 D(18,5,7,20)     =         0.020426	       1.170350
	 D(19,6,8,21)     =         0.020874	       1.196015

	Current energy   :      -553.7253164099

	Energy change for the previous step:
		Projected    :        -0.0000017766
		Actual       :         0.0000013197

	Performing BFGS update.
	Previous computed or guess Hessian on step 1.
	Steps to be used in Hessian update: 6 5
	Adding user-defined constraint: Fragment 1; Coordinate 73:
		Value =     2.881844; Fixed value    =     2.879790
		Force =    -0.001335; Force constant =     0.650000
	Removing off-diagonal coupling between coordinate 73 and others.
	Taking RFO optimization step.
	Going to follow RFO solution 1.
	Using RFO vector 1.
	Norm of target step-size    0.00316
	Projected energy change by RFO approximation:        -0.0000003177

	Back-transformation to cartesian coordinates...
	Could not converge backtransformation.
	Using first guess instead.

	--- Internal Coordinate Step in ANG or DEG, aJ/ANG or AJ/DEG ---
	 ---------------------------------------------------------------------------
	   Coordinate                Previous        Force       Change         New 
	   ----------                --------       ------       ------       ------
	    1 R(1,3)          =      1.383415    -0.000031    -0.000019     1.383396
	    2 R(1,9)          =      1.394959    -0.000234    -0.000038     1.394921
	    3 R(1,14)         =      1.079860    -0.000164    -0.000034     1.079826
	    4 R(2,4)          =      1.385524    -0.000150    -0.000029     1.385495
	    5 R(2,9)          =      1.393128    -0.000196    -0.000035     1.393093
	    6 R(2,15)         =      1.079855    -0.000151    -0.000036     1.079819
	    7 R(3,11)         =      1.387831    -0.000262    -0.000026     1.387805
	    8 R(3,16)         =      1.078874    -0.000137    -0.000034     1.078840
	    9 R(4,11)         =      1.388364    -0.000020    -0.000014     1.388350
	   10 R(4,17)         =      1.081150    -0.000108    -0.000027     1.081123
	   11 R(5,7)          =      1.385529     0.000004     0.000004     1.385533
	   12 R(5,10)         =      1.392155    -0.000191    -0.000029     1.392126
	   13 R(5,18)         =      1.079566    -0.000125    -0.000025     1.079540
	   14 R(6,8)          =      1.385495     0.000004     0.000004     1.385499
	   15 R(6,10)         =      1.392123    -0.000152    -0.000022     1.392101
	   16 R(6,19)         =      1.079599    -0.000121    -0.000025     1.079574
	   17 R(7,12)         =      1.335147    -0.000254    -0.000046     1.335101
	   18 R(7,20)         =      1.081176    -0.000077    -0.000023     1.081153
	   19 R(8,12)         =      1.335129    -0.000276    -0.000049     1.335080
	   20 R(8,21)         =      1.081154    -0.000066    -0.000020     1.081135
	   21 R(9,10)         =      1.461271     0.000265    -0.000050     1.461221
	   22 R(11,13)        =      1.363088     0.000112    -0.000002     1.363087
	   23 R(13,22)        =      0.961827    -0.000187    -0.000023     0.961803
	   24 B(1,3,11)       =    119.886110    -0.000001    -0.001557   119.884553
	   25 B(1,3,16)       =    121.162801     0.000000     0.002129   121.164930
	   26 B(1,9,2)        =    118.120557     0.000000    -0.002990   118.117567
	   27 B(1,9,10)       =    120.987267    -0.000000     0.002712   120.989979
	   28 B(2,4,11)       =    120.002524     0.000000     0.000752   120.003277
	   29 B(2,4,17)       =    120.023064     0.000001     0.000995   120.024059
	   30 B(2,9,10)       =    120.892054    -0.000000     0.000292   120.892345
	   31 B(3,1,9)        =    121.228041     0.000000     0.003616   121.231657
	   32 B(3,1,14)       =    119.191007     0.000000    -0.001463   119.189544
	   33 B(3,11,4)       =    119.718134     0.000000    -0.001247   119.716887
	   34 B(3,11,13)      =    117.387976    -0.000001    -0.006728   117.381248
	   35 B(4,2,9)        =    121.043010    -0.000000     0.001424   121.044434
	   36 B(4,2,15)       =    119.251442     0.000001     0.001289   119.252731
	   37 B(4,11,13)      =    122.893888     0.000001     0.007970   122.901858
	   38 B(5,7,12)       =    123.730215    -0.000000     0.000999   123.731214
	   39 B(5,7,20)       =    120.034819     0.000000    -0.003215   120.031604
	   40 B(5,10,6)       =    116.601879    -0.000000    -0.007445   116.594435
	   41 B(5,10,9)       =    121.693169     0.000001     0.005091   121.698260
	   42 B(6,8,12)       =    123.721032    -0.000000     0.000614   123.721646
	   43 B(6,8,21)       =    120.040582     0.000001    -0.003088   120.037494
	   44 B(6,10,9)       =    121.704951    -0.000000     0.002354   121.707305
	   45 B(7,5,10)       =    119.680246    -0.000000     0.004126   119.684372
	   46 B(7,5,18)       =    119.806103     0.000001     0.000560   119.806662
	   47 B(7,12,8)       =    116.574437     0.000001    -0.002623   116.571814
	   48 B(8,6,10)       =    119.691947     0.000000     0.004393   119.696340
	   49 B(8,6,19)       =    119.802905     0.000001     0.000067   119.802972
	   50 B(9,1,14)       =    119.567151    -0.000001    -0.001860   119.565291
	   51 B(9,2,15)       =    119.685041    -0.000000    -0.002475   119.682566
	   52 B(10,5,18)      =    120.495164    -0.000001    -0.004311   120.490853
	   53 B(10,6,19)      =    120.486049    -0.000001    -0.004005   120.482044
	   54 B(11,3,16)      =    118.947677     0.000000    -0.000451   118.947226
	   55 B(11,4,17)      =    119.973778    -0.000001    -0.001722   119.972055
	   56 B(11,13,22)     =    109.023846    -0.000002    -0.009608   109.014238
	   57 B(12,7,20)      =    116.233026    -0.000000     0.002761   116.235787
	   58 B(12,8,21)      =    116.236310    -0.000000     0.003054   116.239364
	   59 D(1,3,11,4)     =     -0.477156     0.000000     0.002502    -0.474653
	   60 D(1,3,11,13)    =    179.504163    -0.000000    -0.009030   179.495132
	   61 D(1,9,2,4)      =     -0.139467     0.000000    -0.000822    -0.140289
	   62 D(1,9,2,15)     =    178.200914     0.000000     0.008856   178.209769
	   63 D(1,9,10,5)     =    -35.450654    -0.000000     0.022874   -35.427780
	   64 D(1,9,10,6)     =    144.560402    -0.000000     0.016209   144.576611
	   65 D(2,4,11,3)     =      0.241491    -0.000000    -0.008234     0.233258
	   66 D(2,4,11,13)    =   -179.738754     0.000000     0.003966  -179.734788
	   67 D(2,9,1,3)      =     -0.100442    -0.000000    -0.005021    -0.105464
	   68 D(2,9,1,14)     =    178.537170     0.000000     0.009468   178.546638
	   69 D(2,9,10,5)     =    144.419789     0.000000     0.030137   144.449926
	   70 D(2,9,10,6)     =    -35.569155     0.000000     0.023472   -35.545683
	   71 D(3,1,9,10)     =    179.773500     0.000000     0.002050   179.775550
	   72 D(3,11,4,17)    =   -179.469006    -0.000000    -0.013987  -179.482993
	   73 D(3,11,13,22)   =    165.117497     0.000000    -0.006199   165.111298
	   74 D(4,2,9,10)     =    179.986465    -0.000000    -0.007889   179.978576
	   75 D(4,11,3,16)    =   -179.813108     0.000000    -0.009372  -179.822479
	   76 D(4,11,13,22)   =    -14.901825     0.000000    -0.018130   -14.919955
	   77 D(5,7,12,8)     =     -0.083079     0.000000     0.009505    -0.073574
	   78 D(5,10,6,8)     =     -0.094062     0.000000     0.007515    -0.086547
	   79 D(5,10,6,19)    =    178.313156     0.000000     0.026634   178.339790
	   80 D(6,8,12,7)     =     -0.067856     0.000000     0.012985    -0.054871
	   81 D(6,10,5,7)     =     -0.044502     0.000000     0.013126    -0.031376
	   82 D(6,10,5,18)    =    178.388513     0.000000     0.029102   178.417615
	   83 D(7,5,10,9)     =    179.966017     0.000000     0.006784   179.972801
	   84 D(7,12,8,21)    =   -179.542470    -0.000000    -0.066409  -179.608878
	   85 D(8,6,10,9)     =    179.895417     0.000000     0.013858   179.909275
	   86 D(8,12,7,20)    =   -179.575148    -0.000000    -0.067579  -179.642727
	   87 D(9,1,3,11)     =      0.409775    -0.000000     0.004213     0.413988
	   88 D(9,1,3,16)     =    179.730702     0.000000     0.016338   179.747039
	   89 D(9,2,4,11)     =      0.068861     0.000000     0.007435     0.076296
	   90 D(9,2,4,17)     =    179.779214     0.000000     0.013184   179.792398
	   91 D(9,10,5,18)    =     -1.600968     0.000000     0.022759    -1.578208
	   92 D(9,10,6,19)    =     -1.697365     0.000000     0.032977    -1.664388
	   93 D(10,5,7,12)    =      0.140562    -0.000000    -0.022841     0.117721
	   94 D(10,5,7,20)    =    179.614277     0.000000     0.057053   179.671330
	   95 D(10,6,8,12)    =      0.158614    -0.000000    -0.021719     0.136895
	   96 D(10,6,8,21)    =    179.614226     0.000000     0.060573   179.674800
	   97 D(10,9,1,14)    =     -1.588888     0.000000     0.016539    -1.572349
	   98 D(10,9,2,15)    =     -1.673154     0.000000     0.001789    -1.671365
	   99 D(11,3,1,14)    =   -178.232864    -0.000000    -0.010218  -178.243082
	  100 D(11,4,2,15)    =   -178.278604    -0.000000    -0.002140  -178.280743
	  101 D(12,7,5,18)    =   -178.303364    -0.000000    -0.038628  -178.341993
	  102 D(12,8,6,19)    =   -178.259597    -0.000000    -0.040640  -178.300238
	  103 D(13,11,3,16)   =      0.168211    -0.000000    -0.020905     0.147306
	  104 D(13,11,4,17)   =      0.550749     0.000000    -0.001787     0.548962
	  105 D(14,1,3,16)    =      1.088062    -0.000000     0.001907     1.089969
	  106 D(15,2,4,17)    =      1.431750    -0.000000     0.003609     1.435359
	  107 D(18,5,7,20)    =      1.170350     0.000000     0.041266     1.211616
	  108 D(19,6,8,21)    =      1.196015     0.000000     0.041652     1.237667
	 ---------------------------------------------------------------------------
	Successfully symmetrized geometry.
	 Forces used to impose fixed constraints are not included.
	  Forces zeroed: 73 

  ==> Convergence Check <==

  Measures of convergence in internal coordinates in au.
  Criteria marked as inactive (o), active & met (*), and active & unmet ( ).
  ---------------------------------------------------------------------------------------------
   Step     Total Energy     Delta E     MAX Force     RMS Force      MAX Disp      RMS Disp   
  ---------------------------------------------------------------------------------------------
    Convergence Criteria    1.00e-06 *    3.00e-04 *             o    1.20e-03 *             o
  ---------------------------------------------------------------------------------------------
      7    -553.72531641    1.32e-06      3.35e-05 *    1.27e-05 o    1.18e-03 *    3.04e-04 o  ~
  ---------------------------------------------------------------------------------------------


  **** Optimization is complete! (in 7 steps) ****

  ==> Optimization Summary <==

  Measures of convergence in internal coordinates in au.
  --------------------------------------------------------------------------------------------------------------- ~
   Step         Total Energy             Delta E       MAX Force       RMS Force        MAX Disp        RMS Disp  ~
  --------------------------------------------------------------------------------------------------------------- ~
      1    -553.721429250806   -553.721429250806      0.01869500      0.00477905      0.03468005      0.00961451  ~
      2    -553.724571233681     -0.003141982875      0.00539274      0.00154143      0.02351923      0.00960175  ~
      3    -553.725220392406     -0.000649158725      0.00093305      0.00028933      0.04124459      0.00894047  ~
      4    -553.725303663335     -0.000083270929      0.00042419      0.00015359      0.01804799      0.00375135  ~
      5    -553.725316368508     -0.000012705173      0.00035651      0.00006125      0.00622348      0.00151929  ~
      6    -553.725317729607     -0.000001361099      0.00016102      0.00003064      0.00203730      0.00052049  ~
      7    -553.725316409930      0.000001319677      0.00003355      0.00001280      0.00117947      0.00030391  ~
  --------------------------------------------------------------------------------------------------------------- ~

	Writing optimization data to binary file.
	Final energy is   -553.7253164099302
	Final (previous) structure:
	Cartesian Geometry (in Angstrom)
	    C    -1.2410566443   0.7755317266  -0.5496410593
	    C    -0.3118056646   0.0512623701   1.5313590263
	    C    -2.3131857129   1.3408938591   0.1172495662
	    C    -1.3794044588   0.6189013233   2.2078913150
	    C     0.7486495274  -1.0797810445  -1.8134964063
	    C     2.1901645078  -0.4791123193  -0.0322030768
	    C     1.8468942531  -1.6349679404  -2.4501417001
	    C     3.2286215125  -1.0615183532  -0.7407282698
	    C    -0.2226045073   0.1204158907   0.1428105535
	    C     0.9050033191  -0.4791714772  -0.5673356765
	    C    -2.3828228661   1.2682187131   1.5014258386
	    N     3.0792208005  -1.6366250008  -1.9363453981
	    O    -3.4559501210   1.8513092185   2.1067467701
	    H    -1.1835217992   0.8636180133  -1.6243634795
	    H     0.4474456273  -0.4750700867   2.0904631089
	    H    -3.0981135446   1.8510636145  -0.4190189071
	    H    -1.4338766686   0.5523654655   3.2856162451
	    H    -0.2254795228  -1.1381862294  -2.2751496282
	    H     2.3877429173  -0.0064206954   0.9180912541
	    H     1.7308502897  -2.1083600835  -3.4152194563
	    H     4.2300602215  -1.0591464406  -0.3332852006
	    H    -3.5123335281   1.5381704652   3.0144227087
	Saving final (previous) structure.
			--------------------------
			 OPTKING Finished Execution 
			--------------------------

    Final optimized geometry and variables:
    Molecular point group: c1
    Full point group: C1

    Geometry (in Angstrom), charge = 0, multiplicity = 1:

    C           -1.241056644271     0.775531726604    -0.549641059285
    C           -0.311805664567     0.051262370148     1.531359026308
    C           -2.313185712892     1.340893859091     0.117249566239
    C           -1.379404458820     0.618901323321     2.207891315009
    C            0.748649527431    -1.079781044467    -1.813496406294
    C            2.190164507837    -0.479112319315    -0.032203076842
    C            1.846894253071    -1.634967940390    -2.450141700141
    C            3.228621512463    -1.061518353228    -0.740728269833
    C           -0.222604507331     0.120415890654     0.142810553529
    C            0.905003319111    -0.479171477176    -0.567335676532
    C           -2.382822866147     1.268218713096     1.501425838561
    N            3.079220800465    -1.636625000811    -1.936345398053
    O           -3.455950120974     1.851309218517     2.106746770135
    H           -1.183521799191     0.863618013343    -1.624363479460
    H            0.447445627311    -0.475070086654     2.090463108936
    H           -3.098113544593     1.851063614451    -0.419018907136
    H           -1.433876668626     0.552365465501     3.285616245098
    H           -0.225479522841    -1.138186229424    -2.275149628178
    H            2.387742917318    -0.006420695394     0.918091254126
    H            1.730850289708    -2.108360083453    -3.415219456280
    H            4.230060221465    -1.059146440600    -0.333285200616
    H           -3.512333528104     1.538170465219     3.014422708707

	Cleaning optimization helper files.

*** Psi4 exiting successfully. Buy a developer a beer!
