
    -----------------------------------------------------------------------
          Psi4: An Open-Source Ab Initio Electronic Structure Package
                               Psi4 1.1 release

                         Git: Rev {HEAD} add49b9 


    R. M. Parrish, L. A. Burns, D. G. A. Smith, A. C. Simmonett,
    A. E. DePrince III, E. G. Hohenstein, U. Bozkaya, A. Yu. Sokolov,
    R. Di Remigio, R. M. Richard, J. F. Gonthier, A. M. James,
    H. R. McAlexander, A. Kumar, M. Saitow, X. Wang, B. P. Pritchard,
    P. Verma, H. F. Schaefer III, K. Patkowski, R. A. King, E. F. Valeev,
    F. A. Evangelista, J. M. Turney, T. D. Crawford, and C. D. Sherrill,
    J. Chem. Theory Comput. in press (2017).
    (doi: 10.1021/acs.jctc.7b00174)

    -----------------------------------------------------------------------


    Psi4 started on: Tuesday, 14 November 2017 02:24AM

    Process ID:  18120
    PSIDATADIR: /cbio/jclab/home/chayas/anaconda/envs/py35/share/psi4
    Memory:     500.0 MiB
    Threads:    8
    
  ==> Input File <==

--------------------------------------------------------------------------

memory 5 Gb

molecule phepyrF {
  symmetry C1
  0 1 
  C      1.885   -1.036   -0.112
  C      0.807   -0.463   0.561
  C      2.921   -1.631   0.608
  C      0.764   -0.484   1.955
  C      5.161   -2.559   2.116
  C      3.789   -2.575   4.091
  C      6.161   -3.149   2.872
  C      4.850   -3.165   4.759
  C      2.878   -1.652   2.002
  C      3.955   -2.270   2.745
  C      1.800   -1.079   2.676
  N      6.037   -3.461   4.182
  F      1.744   -1.089   4.016
  H      1.918   -1.020   -1.198
  H      0.000   -0.000   -0.000
  H      3.755   -2.073   0.068
  H      -0.076   -0.038   2.480
  H      5.329   -2.335   1.068
  H      2.862   -2.364   4.615
  H      7.121   -3.394   2.429
  H      4.771   -3.423   5.809
  units Angstrom
}

dih_string = "3 9 10 5 15"
set optking { opt_coordinates = cartesian
              fixed_dihedral = $dih_string
	      dynamic_level = 1
              geom_maxiter = 250
              print_trajectory_xyz_file = True }

optimize('MP2/aug-cc-PVTZ')
--------------------------------------------------------------------------

  Memory set to   4.657 GiB by Python driver.
gradient() will perform analytic gradient computation.

*** tstart() called on gpu-2-8.local
*** at Tue Nov 14 02:24:12 2017

    SCF Algorithm Type (re)set to DF.

*** tstart() called on gpu-2-8.local
*** at Tue Nov 14 02:24:12 2017

   => Loading Basis Set <=

    Name: AUG-CC-PVTZ
    Role: ORBITAL
    Keyword: BASIS
    atoms 1-11  entry C          line   221 file /cbio/jclab/home/chayas/anaconda/envs/py35/share/psi4/basis/aug-cc-pvtz.gbs 
    atoms 12    entry N          line   267 file /cbio/jclab/home/chayas/anaconda/envs/py35/share/psi4/basis/aug-cc-pvtz.gbs 
    atoms 13    entry F          line   359 file /cbio/jclab/home/chayas/anaconda/envs/py35/share/psi4/basis/aug-cc-pvtz.gbs 
    atoms 14-21 entry H          line    34 file /cbio/jclab/home/chayas/anaconda/envs/py35/share/psi4/basis/aug-cc-pvtz.gbs 


         ---------------------------------------------------------
                                   SCF
            by Justin Turney, Rob Parrish, and Andy Simmonett
                              RHF Reference
                        8 Threads,   4768 MiB Core
         ---------------------------------------------------------

  ==> Geometry <==

    Molecular point group: c1
    Full point group: C1

    Geometry (in Angstrom), charge = 0, multiplicity = 1:

       Center              X                  Y                   Z               Mass       
    ------------   -----------------  -----------------  -----------------  -----------------
           C         -1.369301689851     0.840019091910    -2.663222329416    12.000000000000
           C         -2.447301689851     1.413019091910    -1.990222329416    12.000000000000
           C         -0.333301689851     0.245019091910    -1.943222329416    12.000000000000
           C         -2.490301689851     1.392019091910    -0.596222329416    12.000000000000
           C          1.906698310149    -0.682980908090    -0.435222329416    12.000000000000
           C          0.534698310149    -0.698980908090     1.539777670584    12.000000000000
           C          2.906698310149    -1.272980908090     0.320777670584    12.000000000000
           C          1.595698310149    -1.288980908090     2.207777670584    12.000000000000
           C         -0.376301689851     0.224019091910    -0.549222329416    12.000000000000
           C          0.700698310149    -0.393980908090     0.193777670584    12.000000000000
           C         -1.454301689851     0.797019091910     0.124777670584    12.000000000000
           N          2.782698310149    -1.584980908090     1.630777670584    14.003074004780
           F         -1.510301689851     0.787019091910     1.464777670584    18.998403224000
           H         -1.336301689851     0.856019091910    -3.749222329416     1.007825032070
           H         -3.254301689851     1.876019091910    -2.551222329416     1.007825032070
           H          0.500698310149    -0.196980908090    -2.483222329416     1.007825032070
           H         -3.330301689851     1.838019091910    -0.071222329416     1.007825032070
           H          2.074698310149    -0.458980908090    -1.483222329416     1.007825032070
           H         -0.392301689851    -0.487980908090     2.063777670584     1.007825032070
           H          3.866698310149    -1.517980908090    -0.122222329416     1.007825032070
           H          1.516698310149    -1.546980908090     3.257777670584     1.007825032070

  Running in c1 symmetry.

  Rotational constants: A =      0.06387  B =      0.01882  C =      0.01463 [cm^-1]
  Rotational constants: A =   1914.62528  B =    564.11457  C =    438.68257 [MHz]
  Nuclear repulsion =  718.977539220073936

  Charge       = 0
  Multiplicity = 1
  Electrons    = 90
  Nalpha       = 45
  Nbeta        = 45

  ==> Algorithm <==

  SCF Algorithm Type is DF.
  DIIS enabled.
  MOM disabled.
  Fractional occupation disabled.
  Guess Type is SAD.
  Energy threshold   = 1.00e-10
  Density threshold  = 1.00e-10
  Integral threshold = 0.00e+00

  ==> Primary Basis <==

  Basis Set: AUG-CC-PVTZ
    Blend: AUG-CC-PVTZ
    Number of shells: 254
    Number of basis function: 782
    Number of Cartesian functions: 915
    Spherical Harmonics?: true
    Max angular momentum: 3

   => Loading Basis Set <=

    Name: (AUG-CC-PVTZ AUX)
    Role: JKFIT
    Keyword: DF_BASIS_SCF
    atoms 1-11  entry C          line   161 file /cbio/jclab/home/chayas/anaconda/envs/py35/share/psi4/basis/aug-cc-pvtz-jkfit.gbs 
    atoms 12    entry N          line   223 file /cbio/jclab/home/chayas/anaconda/envs/py35/share/psi4/basis/aug-cc-pvtz-jkfit.gbs 
    atoms 13    entry F          line   347 file /cbio/jclab/home/chayas/anaconda/envs/py35/share/psi4/basis/aug-cc-pvtz-jkfit.gbs 
    atoms 14-21 entry H          line    69 file /cbio/jclab/home/chayas/anaconda/envs/py35/share/psi4/basis/aug-cc-pvtz-jkfit.gbs 

  ==> Pre-Iterations <==

   -------------------------------------------------------
    Irrep   Nso     Nmo     Nalpha   Nbeta   Ndocc  Nsocc
   -------------------------------------------------------
     A        782     782       0       0       0       0
   -------------------------------------------------------
    Total     782     782      45      45      45       0
   -------------------------------------------------------

  ==> Integral Setup <==

  ==> DFJK: Density-Fitted J/K Matrices <==

    J tasked:                  Yes
    K tasked:                  Yes
    wK tasked:                  No
    OpenMP threads:              8
    Integrals threads:           8
    Memory (MB):              3576
    Algorithm:                Disk
    Integral Cache:           NONE
    Schwarz Cutoff:          1E-12
    Fitting Condition:       1E-12

   => Auxiliary Basis Set <=

  Basis Set: (AUG-CC-PVTZ AUX)
    Blend: AUG-CC-PVTZ-JKFIT
    Number of shells: 502
    Number of basis function: 1720
    Number of Cartesian functions: 2143
    Spherical Harmonics?: true
    Max angular momentum: 4

  Minimum eigenvalue in the overlap matrix is 5.9309965951E-07.
  Using Symmetric Orthogonalization.

  SCF Guess: Superposition of Atomic Densities via on-the-fly atomic UHF.

  ==> Iterations <==

                           Total Energy        Delta E     RMS |[F,P]|

   @DF-RHF iter   0:  -583.69707592449561   -5.83697e+02   1.90254e-02 
   @DF-RHF iter   1:  -574.94002747457785    8.75705e+00   1.72297e-03 
   @DF-RHF iter   2:  -575.20404033682098   -2.64013e-01   7.83243e-04 DIIS
   @DF-RHF iter   3:  -575.25143846893229   -4.73981e-02   4.76464e-04 DIIS
   @DF-RHF iter   4:  -575.26814738615917   -1.67089e-02   1.18574e-04 DIIS
   @DF-RHF iter   5:  -575.27028414110850   -2.13675e-03   5.25896e-05 DIIS
   @DF-RHF iter   6:  -575.27060170508901   -3.17564e-04   1.78582e-05 DIIS
   @DF-RHF iter   7:  -575.27065100221137   -4.92971e-05   5.98716e-06 DIIS
   @DF-RHF iter   8:  -575.27065998162368   -8.97941e-06   3.16028e-06 DIIS
   @DF-RHF iter   9:  -575.27066316266871   -3.18105e-06   1.52167e-06 DIIS
   @DF-RHF iter  10:  -575.27066418588959   -1.02322e-06   7.04360e-07 DIIS
   @DF-RHF iter  11:  -575.27066433158086   -1.45691e-07   2.42543e-07 DIIS
   @DF-RHF iter  12:  -575.27066434708740   -1.55065e-08   7.63367e-08 DIIS
   @DF-RHF iter  13:  -575.27066434897199   -1.88459e-09   4.45210e-08 DIIS
   @DF-RHF iter  14:  -575.27066434949620   -5.24210e-10   1.82126e-08 DIIS
   @DF-RHF iter  15:  -575.27066434962092   -1.24714e-10   8.36352e-09 DIIS
   @DF-RHF iter  16:  -575.27066434963740   -1.64846e-11   3.47971e-09 DIIS
   @DF-RHF iter  17:  -575.27066434963092    6.48015e-12   1.50369e-09 DIIS
   @DF-RHF iter  18:  -575.27066434963172   -7.95808e-13   6.08909e-10 DIIS
   @DF-RHF iter  19:  -575.27066434963047    1.25056e-12   2.89675e-10 DIIS
   @DF-RHF iter  20:  -575.27066434961739    1.30740e-11   1.11667e-10 DIIS
   @DF-RHF iter  21:  -575.27066434963717   -1.97815e-11   4.48584e-11 DIIS

  ==> Post-Iterations <==

    Orbital Energies (a.u.)
    -----------------------

    Doubly Occupied:                                                      

       1A    -26.330091     2A    -15.562626     3A    -11.345020  
       4A    -11.273128     5A    -11.270472     6A    -11.265191  
       7A    -11.263214     8A    -11.260526     9A    -11.259877  
      10A    -11.258182    11A    -11.252700    12A    -11.238800  
      13A    -11.229165    14A     -1.654140    15A     -1.247865  
      16A     -1.185715    17A     -1.114181    18A     -1.039821  
      19A     -1.031372    20A     -1.026407    21A     -0.894095  
      22A     -0.878122    23A     -0.844646    24A     -0.824850  
      25A     -0.761234    26A     -0.734538    27A     -0.721026  
      28A     -0.716850    29A     -0.672135    30A     -0.661524  
      31A     -0.650135    32A     -0.625912    33A     -0.609188  
      34A     -0.591950    35A     -0.583810    36A     -0.551661  
      37A     -0.541989    38A     -0.523346    39A     -0.517248  
      40A     -0.500492    41A     -0.416298    42A     -0.415533  
      43A     -0.355379    44A     -0.346562    45A     -0.323139  

    Virtual:                                                              

      46A      0.022929    47A      0.028772    48A      0.033852  
      49A      0.040395    50A      0.043594    51A      0.047975  
      52A      0.057632    53A      0.059345    54A      0.063106  
      55A      0.078489    56A      0.084448    57A      0.085418  
      58A      0.090087    59A      0.092100    60A      0.100553  
      61A      0.104699    62A      0.106088    63A      0.109588  
      64A      0.114795    65A      0.115469    66A      0.116853  
      67A      0.117969    68A      0.126234    69A      0.131030  
      70A      0.134637    71A      0.135333    72A      0.139213  
      73A      0.140858    74A      0.142446    75A      0.147388  
      76A      0.149970    77A      0.153222    78A      0.157307  
      79A      0.164480    80A      0.167722    81A      0.174394  
      82A      0.181509    83A      0.185782    84A      0.186775  
      85A      0.189332    86A      0.196770    87A      0.206226  
      88A      0.211550    89A      0.216986    90A      0.222502  
      91A      0.229038    92A      0.231494    93A      0.234689  
      94A      0.238993    95A      0.245054    96A      0.249744  
      97A      0.252120    98A      0.256152    99A      0.260526  
     100A      0.261941   101A      0.266774   102A      0.269043  
     103A      0.278527   104A      0.284174   105A      0.286593  
     106A      0.290230   107A      0.294220   108A      0.297893  
     109A      0.301095   110A      0.303620   111A      0.306936  
     112A      0.314172   113A      0.317234   114A      0.321438  
     115A      0.323965   116A      0.332802   117A      0.336566  
     118A      0.340749   119A      0.344705   120A      0.350633  
     121A      0.351947   122A      0.359226   123A      0.367571  
     124A      0.370502   125A      0.378331   126A      0.386028  
     127A      0.390292   128A      0.394321   129A      0.402660  
     130A      0.407211   131A      0.412864   132A      0.413903  
     133A      0.418077   134A      0.424193   135A      0.429592  
     136A      0.434224   137A      0.436885   138A      0.439325  
     139A      0.442804   140A      0.443557   141A      0.451386  
     142A      0.454138   143A      0.457960   144A      0.462466  
     145A      0.466117   146A      0.471279   147A      0.472795  
     148A      0.473774   149A      0.477849   150A      0.484049  
     151A      0.491752   152A      0.493178   153A      0.494587  
     154A      0.498274   155A      0.500814   156A      0.502745  
     157A      0.505828   158A      0.509146   159A      0.513686  
     160A      0.518947   161A      0.523195   162A      0.524887  
     163A      0.531160   164A      0.533770   165A      0.537583  
     166A      0.543987   167A      0.547246   168A      0.548793  
     169A      0.555852   170A      0.559021   171A      0.561189  
     172A      0.566048   173A      0.577557   174A      0.579069  
     175A      0.584358   176A      0.590249   177A      0.596586  
     178A      0.598766   179A      0.612198   180A      0.617307  
     181A      0.622862   182A      0.629525   183A      0.636046  
     184A      0.644292   185A      0.649948   186A      0.656315  
     187A      0.658327   188A      0.665571   189A      0.678731  
     190A      0.684283   191A      0.690141   192A      0.696337  
     193A      0.699779   194A      0.703803   195A      0.709716  
     196A      0.713306   197A      0.717261   198A      0.720992  
     199A      0.732412   200A      0.738154   201A      0.738712  
     202A      0.745441   203A      0.747786   204A      0.754586  
     205A      0.757368   206A      0.766039   207A      0.772883  
     208A      0.788329   209A      0.790605   210A      0.801125  
     211A      0.807041   212A      0.808274   213A      0.812620  
     214A      0.818828   215A      0.828894   216A      0.833918  
     217A      0.841081   218A      0.850877   219A      0.858332  
     220A      0.863387   221A      0.868568   222A      0.870184  
     223A      0.875196   224A      0.881988   225A      0.886291  
     226A      0.889560   227A      0.894855   228A      0.896278  
     229A      0.899827   230A      0.904921   231A      0.908378  
     232A      0.914909   233A      0.917276   234A      0.918005  
     235A      0.923380   236A      0.931503   237A      0.938646  
     238A      0.948713   239A      0.953068   240A      0.959577  
     241A      0.962656   242A      0.969304   243A      0.971128  
     244A      0.974433   245A      0.980430   246A      0.981140  
     247A      0.984910   248A      0.987990   249A      0.992584  
     250A      1.000303   251A      1.003988   252A      1.009416  
     253A      1.015757   254A      1.017162   255A      1.024451  
     256A      1.026628   257A      1.028312   258A      1.035813  
     259A      1.043862   260A      1.045373   261A      1.048026  
     262A      1.059979   263A      1.061392   264A      1.068279  
     265A      1.073608   266A      1.080747   267A      1.084838  
     268A      1.089949   269A      1.090351   270A      1.092498  
     271A      1.097658   272A      1.102331   273A      1.110696  
     274A      1.116212   275A      1.120097   276A      1.126167  
     277A      1.129707   278A      1.135117   279A      1.136893  
     280A      1.144186   281A      1.158552   282A      1.168190  
     283A      1.168905   284A      1.175103   285A      1.177724  
     286A      1.180849   287A      1.188803   288A      1.188967  
     289A      1.197133   290A      1.197998   291A      1.206039  
     292A      1.210388   293A      1.212129   294A      1.214005  
     295A      1.226638   296A      1.228085   297A      1.233120  
     298A      1.243563   299A      1.248399   300A      1.257918  
     301A      1.261396   302A      1.271073   303A      1.275617  
     304A      1.280172   305A      1.282904   306A      1.293081  
     307A      1.296449   308A      1.307529   309A      1.307680  
     310A      1.310644   311A      1.317735   312A      1.325350  
     313A      1.332406   314A      1.336425   315A      1.353114  
     316A      1.355085   317A      1.363977   318A      1.369232  
     319A      1.379942   320A      1.386812   321A      1.390237  
     322A      1.393886   323A      1.399295   324A      1.414913  
     325A      1.426184   326A      1.431976   327A      1.440075  
     328A      1.441275   329A      1.453513   330A      1.468508  
     331A      1.477401   332A      1.485545   333A      1.498814  
     334A      1.509458   335A      1.520079   336A      1.522961  
     337A      1.528452   338A      1.532787   339A      1.545249  
     340A      1.548553   341A      1.566660   342A      1.576439  
     343A      1.580057   344A      1.584597   345A      1.598316  
     346A      1.606728   347A      1.610737   348A      1.625612  
     349A      1.636356   350A      1.643155   351A      1.655985  
     352A      1.659633   353A      1.664197   354A      1.670803  
     355A      1.678296   356A      1.687421   357A      1.696399  
     358A      1.704572   359A      1.706985   360A      1.715488  
     361A      1.719596   362A      1.733279   363A      1.737100  
     364A      1.743842   365A      1.751515   366A      1.763417  
     367A      1.769182   368A      1.785745   369A      1.790553  
     370A      1.799000   371A      1.805641   372A      1.808789  
     373A      1.821191   374A      1.823450   375A      1.824900  
     376A      1.845696   377A      1.849503   378A      1.859371  
     379A      1.872285   380A      1.879679   381A      1.889009  
     382A      1.893084   383A      1.906735   384A      1.913106  
     385A      1.917166   386A      1.930272   387A      1.938105  
     388A      1.943626   389A      1.955683   390A      1.966828  
     391A      1.973277   392A      1.976645   393A      1.983347  
     394A      1.991838   395A      1.999724   396A      2.002747  
     397A      2.014602   398A      2.015750   399A      2.025057  
     400A      2.028684   401A      2.033556   402A      2.039255  
     403A      2.044365   404A      2.057557   405A      2.062770  
     406A      2.077159   407A      2.082911   408A      2.092372  
     409A      2.097438   410A      2.104881   411A      2.107099  
     412A      2.112566   413A      2.120133   414A      2.127859  
     415A      2.136033   416A      2.158226   417A      2.167646  
     418A      2.169666   419A      2.177631   420A      2.179408  
     421A      2.183724   422A      2.192590   423A      2.202417  
     424A      2.208747   425A      2.218741   426A      2.227876  
     427A      2.232441   428A      2.252158   429A      2.257332  
     430A      2.267795   431A      2.279187   432A      2.285295  
     433A      2.295369   434A      2.303841   435A      2.313703  
     436A      2.326104   437A      2.334805   438A      2.338158  
     439A      2.355894   440A      2.360381   441A      2.370234  
     442A      2.387186   443A      2.396970   444A      2.400008  
     445A      2.414225   446A      2.427038   447A      2.446850  
     448A      2.457836   449A      2.464315   450A      2.480477  
     451A      2.490101   452A      2.500255   453A      2.509649  
     454A      2.526492   455A      2.539020   456A      2.555079  
     457A      2.559303   458A      2.579150   459A      2.592633  
     460A      2.609437   461A      2.615960   462A      2.649363  
     463A      2.654567   464A      2.660543   465A      2.680738  
     466A      2.709819   467A      2.724862   468A      2.747486  
     469A      2.752519   470A      2.777655   471A      2.789794  
     472A      2.807241   473A      2.807726   474A      2.844740  
     475A      2.846232   476A      2.891047   477A      2.907781  
     478A      2.912558   479A      2.979597   480A      3.001066  
     481A      3.011731   482A      3.040284   483A      3.058292  
     484A      3.069285   485A      3.073130   486A      3.096195  
     487A      3.119426   488A      3.131964   489A      3.151439  
     490A      3.170051   491A      3.188173   492A      3.189180  
     493A      3.203594   494A      3.220486   495A      3.230989  
     496A      3.232694   497A      3.247581   498A      3.286991  
     499A      3.294082   500A      3.297380   501A      3.311852  
     502A      3.325487   503A      3.339611   504A      3.347599  
     505A      3.357647   506A      3.359190   507A      3.370789  
     508A      3.383676   509A      3.403521   510A      3.404891  
     511A      3.416586   512A      3.423539   513A      3.441971  
     514A      3.446967   515A      3.460717   516A      3.463427  
     517A      3.468956   518A      3.482513   519A      3.493232  
     520A      3.506424   521A      3.511393   522A      3.519317  
     523A      3.521176   524A      3.528120   525A      3.538845  
     526A      3.545537   527A      3.548582   528A      3.555113  
     529A      3.568815   530A      3.574889   531A      3.579908  
     532A      3.589612   533A      3.603418   534A      3.611563  
     535A      3.622789   536A      3.632731   537A      3.656426  
     538A      3.661104   539A      3.665422   540A      3.677765  
     541A      3.682349   542A      3.694373   543A      3.702771  
     544A      3.706809   545A      3.713658   546A      3.723390  
     547A      3.729480   548A      3.739475   549A      3.757791  
     550A      3.767072   551A      3.777118   552A      3.782705  
     553A      3.791010   554A      3.800060   555A      3.807511  
     556A      3.817686   557A      3.827216   558A      3.833698  
     559A      3.850575   560A      3.856834   561A      3.864436  
     562A      3.868638   563A      3.875531   564A      3.885086  
     565A      3.889813   566A      3.893862   567A      3.904868  
     568A      3.921806   569A      3.928976   570A      3.936657  
     571A      3.939295   572A      3.950604   573A      3.962504  
     574A      3.967693   575A      3.972108   576A      3.978685  
     577A      3.992517   578A      3.995158   579A      4.004461  
     580A      4.015529   581A      4.021158   582A      4.022050  
     583A      4.027666   584A      4.053030   585A      4.058434  
     586A      4.062059   587A      4.071668   588A      4.098277  
     589A      4.106082   590A      4.111116   591A      4.115025  
     592A      4.128513   593A      4.144332   594A      4.153738  
     595A      4.171406   596A      4.173157   597A      4.187137  
     598A      4.190961   599A      4.194594   600A      4.204597  
     601A      4.216163   602A      4.227587   603A      4.232981  
     604A      4.242194   605A      4.251038   606A      4.259002  
     607A      4.277488   608A      4.286027   609A      4.291587  
     610A      4.301436   611A      4.309582   612A      4.318329  
     613A      4.332222   614A      4.338320   615A      4.347885  
     616A      4.351774   617A      4.356264   618A      4.370951  
     619A      4.380136   620A      4.387642   621A      4.401134  
     622A      4.413100   623A      4.422313   624A      4.426011  
     625A      4.439905   626A      4.449572   627A      4.460484  
     628A      4.477630   629A      4.479512   630A      4.492715  
     631A      4.506088   632A      4.509156   633A      4.522821  
     634A      4.530008   635A      4.537076   636A      4.559550  
     637A      4.564870   638A      4.591557   639A      4.606435  
     640A      4.619796   641A      4.626653   642A      4.633787  
     643A      4.638623   644A      4.666933   645A      4.675940  
     646A      4.698417   647A      4.711110   648A      4.716123  
     649A      4.726583   650A      4.741286   651A      4.759620  
     652A      4.771844   653A      4.789250   654A      4.800435  
     655A      4.810040   656A      4.827892   657A      4.830292  
     658A      4.859182   659A      4.879003   660A      4.883676  
     661A      4.919287   662A      4.925241   663A      4.940990  
     664A      4.949866   665A      4.962280   666A      4.987184  
     667A      4.994472   668A      5.009376   669A      5.011501  
     670A      5.031102   671A      5.038362   672A      5.047824  
     673A      5.060599   674A      5.070961   675A      5.093458  
     676A      5.109212   677A      5.120822   678A      5.125403  
     679A      5.128960   680A      5.140544   681A      5.143541  
     682A      5.152476   683A      5.168975   684A      5.172846  
     685A      5.188238   686A      5.198065   687A      5.207308  
     688A      5.219755   689A      5.239294   690A      5.243713  
     691A      5.259102   692A      5.311935   693A      5.320717  
     694A      5.326533   695A      5.342707   696A      5.355630  
     697A      5.377699   698A      5.380056   699A      5.420065  
     700A      5.426118   701A      5.463405   702A      5.464654  
     703A      5.471689   704A      5.491044   705A      5.546117  
     706A      5.561834   707A      5.573925   708A      5.584001  
     709A      5.599893   710A      5.653276   711A      5.669214  
     712A      5.677277   713A      5.701437   714A      5.722481  
     715A      5.753376   716A      5.767731   717A      5.799567  
     718A      5.819891   719A      5.846786   720A      5.855149  
     721A      5.868065   722A      5.887682   723A      5.894830  
     724A      5.916312   725A      5.987953   726A      6.000204  
     727A      6.083990   728A      6.085249   729A      6.173368  
     730A      6.195520   731A      6.206511   732A      6.227651  
     733A      6.234251   734A      6.298013   735A      6.307810  
     736A      6.382249   737A      6.397967   738A      6.450268  
     739A      6.476377   740A      6.493662   741A      6.577958  
     742A      6.587282   743A      6.639319   744A      6.685976  
     745A      6.725096   746A      6.738852   747A      6.753594  
     748A      6.822501   749A      6.892844   750A      6.963735  
     751A      6.995405   752A      7.017513   753A      7.084189  
     754A      7.099019   755A      7.298578   756A      7.462562  
     757A      7.506187   758A      9.143416   759A      9.205673  
     760A      9.297350   761A      9.349641   762A      9.433049  
     763A      9.544194   764A      9.556420   765A      9.626976  
     766A      9.711565   767A      9.741152   768A     10.085092  
     769A     10.105777   770A     15.569996   771A     16.253607  
     772A     16.670816   773A     16.824463   774A     17.267179  
     775A     18.527687   776A     18.887937   777A     19.240955  
     778A     19.750793   779A     20.251238   780A     20.471995  
     781A     20.873230   782A     21.462115  

    Final Occupation by Irrep:
              A 
    DOCC [    45 ]

  Energy converged.

  @DF-RHF Final Energy:  -575.27066434963717

   => Energetics <=

    Nuclear Repulsion Energy =            718.9775392200739361
    One-Electron Energy =               -2209.7560946438566134
    Two-Electron Energy =                 915.5078910741453910
    DFT Exchange-Correlation Energy =       0.0000000000000000
    Empirical Dispersion Energy =           0.0000000000000000
    PCM Polarization Energy =               0.0000000000000000
    EFP Energy =                            0.0000000000000000
    Total Energy =                       -575.2706643496371726



Properties will be evaluated at   0.000000,   0.000000,   0.000000 Bohr

Properties computed using the SCF density matrix

  Nuclear Dipole Moment: (a.u.)
     X:     1.0844      Y:    -0.3993      Z:    -6.2040

  Electronic Dipole Moment: (a.u.)
     X:    -1.9976      Y:     0.9306      Z:     5.0548

  Dipole Moment: (a.u.)
     X:    -0.9132      Y:     0.5314      Z:    -1.1492     Total:     1.5611

  Dipole Moment: (Debye)
     X:    -2.3211      Y:     1.3506      Z:    -2.9209     Total:     3.9678


*** tstop() called on gpu-2-8.local at Tue Nov 14 02:31:07 2017
Module time:
	user time   =    1058.16 seconds =      17.64 minutes
	system time =      50.29 seconds =       0.84 minutes
	total time  =        415 seconds =       6.92 minutes
Total time:
	user time   =    1058.17 seconds =      17.64 minutes
	system time =      50.29 seconds =       0.84 minutes
	total time  =        415 seconds =       6.92 minutes

  //>>>>>>>>>>>>>>>>>>>>>>>>>>>>>>>>>>>//
  //               DFMP2               //
  //<<<<<<<<<<<<<<<<<<<<<<<<<<<<<<<<<<<//

   => Loading Basis Set <=

    Name: (AUG-CC-PVTZ AUX)
    Role: RIFIT
    Keyword: DF_BASIS_MP2
    atoms 1-11  entry C          line   147 file /cbio/jclab/home/chayas/anaconda/envs/py35/share/psi4/basis/aug-cc-pvtz-ri.gbs 
    atoms 12    entry N          line   205 file /cbio/jclab/home/chayas/anaconda/envs/py35/share/psi4/basis/aug-cc-pvtz-ri.gbs 
    atoms 13    entry F          line   321 file /cbio/jclab/home/chayas/anaconda/envs/py35/share/psi4/basis/aug-cc-pvtz-ri.gbs 
    atoms 14-21 entry H          line    29 file /cbio/jclab/home/chayas/anaconda/envs/py35/share/psi4/basis/aug-cc-pvtz-ri.gbs 

	 --------------------------------------------------------
	                          DF-MP2                         
	      2nd-Order Density-Fitted Moller-Plesset Theory     
	              RMP2 Wavefunction,   8 Threads             
	                                                         
	        Rob Parrish, Justin Turney, Andy Simmonett,      
	           Ed Hohenstein, and C. David Sherrill          
	 --------------------------------------------------------

   => Auxiliary Basis Set <=

  Basis Set: (AUG-CC-PVTZ AUX)
    Blend: AUG-CC-PVTZ-RI
    Number of shells: 476
    Number of basis function: 1746
    Number of Cartesian functions: 2208
    Spherical Harmonics?: true
    Max angular momentum: 4

	 --------------------------------------------------------
	                 NBF =   782, NAUX =  1746
	 --------------------------------------------------------
	   CLASS    FOCC     OCC    AOCC    AVIR     VIR    FVIR
	   PAIRS       0      45      45     737     737       0
	 --------------------------------------------------------


         ------------------------------------------------------------
                                     CPHF                           
                                  Rob Parrish                       
         ------------------------------------------------------------

  ==> Geometry <==

    Molecular point group: c1
    Full point group: C1

    Geometry (in Angstrom), charge = 0, multiplicity = 1:

       Center              X                  Y                   Z               Mass       
    ------------   -----------------  -----------------  -----------------  -----------------
           C         -1.369301689851     0.840019091910    -2.663222329416    12.000000000000
           C         -2.447301689851     1.413019091910    -1.990222329416    12.000000000000
           C         -0.333301689851     0.245019091910    -1.943222329416    12.000000000000
           C         -2.490301689851     1.392019091910    -0.596222329416    12.000000000000
           C          1.906698310149    -0.682980908090    -0.435222329416    12.000000000000
           C          0.534698310149    -0.698980908090     1.539777670584    12.000000000000
           C          2.906698310149    -1.272980908090     0.320777670584    12.000000000000
           C          1.595698310149    -1.288980908090     2.207777670584    12.000000000000
           C         -0.376301689851     0.224019091910    -0.549222329416    12.000000000000
           C          0.700698310149    -0.393980908090     0.193777670584    12.000000000000
           C         -1.454301689851     0.797019091910     0.124777670584    12.000000000000
           N          2.782698310149    -1.584980908090     1.630777670584    14.003074004780
           F         -1.510301689851     0.787019091910     1.464777670584    18.998403224000
           H         -1.336301689851     0.856019091910    -3.749222329416     1.007825032070
           H         -3.254301689851     1.876019091910    -2.551222329416     1.007825032070
           H          0.500698310149    -0.196980908090    -2.483222329416     1.007825032070
           H         -3.330301689851     1.838019091910    -0.071222329416     1.007825032070
           H          2.074698310149    -0.458980908090    -1.483222329416     1.007825032070
           H         -0.392301689851    -0.487980908090     2.063777670584     1.007825032070
           H          3.866698310149    -1.517980908090    -0.122222329416     1.007825032070
           H          1.516698310149    -1.546980908090     3.257777670584     1.007825032070

  Nuclear repulsion =  718.977539220073936
  Reference energy  = -575.270664349637173

  ==> Basis Set <==

  Basis Set: AUG-CC-PVTZ
    Blend: AUG-CC-PVTZ
    Number of shells: 254
    Number of basis function: 782
    Number of Cartesian functions: 915
    Spherical Harmonics?: true
    Max angular momentum: 3

  ==> CGRSolver (by Rob Parrish) <==

   Number of roots    =         1
   Preconditioning    =    JACOBI
   Convergence cutoff =     1E-06
   Maximum iterations =       100

  ==> CPHFRHamiltonian (by Rob Parrish) <== 

  ==> DFJK: Density-Fitted J/K Matrices <==

    J tasked:                  Yes
    K tasked:                  Yes
    wK tasked:                  No
    OpenMP threads:              8
    Integrals threads:           8
    Memory (MB):              3576
    Algorithm:                Disk
    Integral Cache:           NONE
    Schwarz Cutoff:          1E-12
    Fitting Condition:       1E-12

   => Auxiliary Basis Set <=

  Basis Set: (AUG-CC-PVTZ AUX)
    Blend: AUG-CC-PVTZ-JKFIT
    Number of shells: 502
    Number of basis function: 1720
    Number of Cartesian functions: 2143
    Spherical Harmonics?: true
    Max angular momentum: 4

  ==> CPHF Iterations <==

  => Iterations <=

             Iter  Converged  Remaining    Residual
  CGR           1          0          1   9.810E-02
  CGR           2          0          1   2.984E-02
  CGR           3          0          1   1.997E-02
  CGR           4          0          1   9.795E-03
  CGR           5          0          1   3.939E-03
  CGR           6          0          1   1.534E-03
  CGR           7          0          1   4.884E-04
  CGR           8          0          1   2.045E-04
  CGR           9          0          1   1.034E-04
  CGR          10          0          1   4.176E-05
  CGR          11          0          1   1.560E-05
  CGR          12          0          1   5.128E-06
  CGR          13          0          1   1.643E-06
  CGR          14          1          0   5.746E-07

    CGRSolver converged.

  ==> DFCorrGrad: Density-Fitted Correlated Gradients <==

    OpenMP threads:              8
    Integrals threads:           8
    Memory (MB):              3576
    Schwarz Cutoff:          0E+00
    Fitting Condition:       1E-12

   => Auxiliary Basis Set <=

  Basis Set: (AUG-CC-PVTZ AUX)
    Blend: AUG-CC-PVTZ-JKFIT
    Number of shells: 502
    Number of basis function: 1720
    Number of Cartesian functions: 2143
    Spherical Harmonics?: true
    Max angular momentum: 4

	-----------------------------------------------------------
	 ==================> DF-MP2 Energies <==================== 
	-----------------------------------------------------------
	 Reference Energy          =    -575.2706643496371726 [Eh]
	 Singles Energy            =      -0.0000000000000001 [Eh]
	 Same-Spin Energy          =      -0.6099199844196620 [Eh]
	 Opposite-Spin Energy      =      -1.8347008856836819 [Eh]
	 Correlation Energy        =      -2.4446208701033441 [Eh]
	 Total Energy              =    -577.7152852197405082 [Eh]
	-----------------------------------------------------------
	 ================> DF-SCS-MP2 Energies <================== 
	-----------------------------------------------------------
	 SCS Same-Spin Scale       =       0.3333333333333333 [-]
	 SCS Opposite-Spin Scale   =       1.2000000000000000 [-]
	 SCS Same-Spin Energy      =      -0.2033066614732207 [Eh]
	 SCS Opposite-Spin Energy  =      -2.2016410628204182 [Eh]
	 SCS Correlation Energy    =      -2.4049477242936388 [Eh]
	 SCS Total Energy          =    -577.6756120739307789 [Eh]
	-----------------------------------------------------------


  -Total Gradient:
     Atom            X                  Y                   Z
    ------   -----------------  -----------------  -----------------
       1       -0.003322812509     0.001562840473     0.000413242850
       2       -0.003148340624     0.001689938439    -0.002629949747
       3        0.015505962273    -0.009769171188     0.008144699016
       4        0.000693588987    -0.000333104489    -0.005142264581
       5       -0.006419403830     0.005234332387    -0.008255877256
       6       -0.010435628700     0.009662697061    -0.010507933670
       7       -0.002735401996     0.004377031920    -0.010724126665
       8       -0.014576210474     0.005040744390     0.004908348001
       9       -0.004023394512     0.002839080743    -0.005133112117
      10        0.003562748326    -0.003108261586     0.002032664949
      11        0.012603402007    -0.006350868641     0.029462952525
      12        0.012023190076    -0.007224219723     0.007165337719
      13        0.014100678520    -0.014229203382     0.004775073318
      14        0.000312801666     0.000176066864    -0.005293621117
      15       -0.003431327977     0.002084652101    -0.003838464605
      16        0.007121237765    -0.001929134128    -0.005042366642
      17       -0.004852103230     0.002544055142     0.000911551477
      18       -0.000983329206     0.000583141734    -0.006958027125
      19       -0.015523626346     0.008867242664     0.003841783685
      20        0.002846961656    -0.001000036121    -0.000376900532
      21        0.000681008128    -0.000717824660     0.002246990513


*** tstop() called on gpu-2-8.local at Tue Nov 14 03:00:18 2017
Module time:
	user time   =    4712.15 seconds =      78.54 minutes
	system time =     110.06 seconds =       1.83 minutes
	total time  =       2166 seconds =      36.10 minutes
Total time:
	user time   =    4712.16 seconds =      78.54 minutes
	system time =     110.06 seconds =       1.83 minutes
	total time  =       2166 seconds =      36.10 minutes

			-----------------------------------------
			 OPTKING 2.0: for geometry optimizations 
			  - R.A. King,  Bethel University        
			-----------------------------------------
	At level 1: Red. Int., RFO, no backsteps, dynamic trust

	Internal coordinates to be generated automatically.
	Detected frag 1 with atoms:  1 2 3 4 5 6 7 8 9 10 11 12 13 14 15 16 17 18 19 20
	 21
	---Fragment 1 Bond Connectivity---
	 1 : 2 3 14
	 2 : 1 4 15
	 3 : 1 9 16
	 4 : 2 11 17
	 5 : 7 10 18
	 6 : 8 10 19
	 7 : 5 12 20
	 8 : 6 12 21
	 9 : 3 10 11
	 10 : 5 6 9
	 11 : 4 9 13
	 12 : 7 8
	 13 : 11
	 14 : 1
	 15 : 2
	 16 : 3
	 17 : 4
	 18 : 5
	 19 : 6
	 20 : 7
	 21 : 8

	Assuming in current code that numbering for constraints corresponds to unified fragment.
	Fixed dihedral atom list: 
	     3     9    10     5
	---Fragment 1 Geometry and Gradient---
	 C          -2.5876051871        1.5874060301       -5.0327608336
	 C          -4.6247299584        2.6702191042       -3.7609751461
	 C          -0.6298489134        0.4630189810       -3.6721580179
	 C          -4.7059881821        2.6305348555       -1.1266969169
	 C           3.6031376242       -1.2906468703       -0.8224510095
	 C           1.0104333699       -1.3208824884        2.9097581029
	 C           5.4928637571       -2.4055852887        0.6061819469
	 C           3.0154327969       -2.4358209068        4.1720951597
	 C          -0.7111071372        0.4233347322       -1.0378797887
	 C           1.3241279080       -0.7445160179        0.3661867281
	 C          -2.7482319084        1.5061478064        0.2357956249
	 N           5.2585377166       -2.9951798421        3.0817231810
	 F          -2.8540565719        1.4872505451        2.7680286430
	 H          -2.5252442247        1.6176416482       -7.0850034139
	 H          -6.1497389476        3.5451623038       -4.8211115067
	 H           0.9461826814       -0.3722399697       -4.6926101297
	 H          -6.2933581337        3.4733527107       -0.1345906971
	 H           3.9206116145       -0.8673482165       -2.8028839968
	 H          -0.7413427553       -0.9221502744        3.8999745966
	 H           7.3070008447       -2.8685681912       -0.2309667299
	 H           2.8661444324       -2.9233702491        6.1563075992
	            -0.0033228125        0.0015628405        0.0004132428
	            -0.0031483406        0.0016899384       -0.0026299497
	             0.0155059623       -0.0097691712        0.0081446990
	             0.0006935890       -0.0003331045       -0.0051422646
	            -0.0064194038        0.0052343324       -0.0082558773
	            -0.0104356287        0.0096626971       -0.0105079337
	            -0.0027354020        0.0043770319       -0.0107241267
	            -0.0145762105        0.0050407444        0.0049083480
	            -0.0040233945        0.0028390807       -0.0051331121
	             0.0035627483       -0.0031082616        0.0020326649
	             0.0126034020       -0.0063508686        0.0294629525
	             0.0120231901       -0.0072242197        0.0071653377
	             0.0141006785       -0.0142292034        0.0047750733
	             0.0003128017        0.0001760669       -0.0052936211
	            -0.0034313280        0.0020846521       -0.0038384646
	             0.0071212378       -0.0019291341       -0.0050423666
	            -0.0048521032        0.0025440551        0.0009115515
	            -0.0009833292        0.0005831417       -0.0069580271
	            -0.0155236263        0.0088672427        0.0038417837
	             0.0028469617       -0.0010000361       -0.0003769005
	             0.0006810081       -0.0007178247        0.0022469905

	Previous optimization step data not found.  Starting new optimization.

	---Fragment 1 Intrafragment Coordinates---
	 - Coordinate -           - BOHR/RAD -       - ANG/DEG -
	 R(1,2)           =         2.634350	       1.394038
	 R(1,3)           =         2.635962	       1.394891
	 R(1,14)          =         2.053412	       1.086619
	 R(2,4)           =         2.635830	       1.394821
	 R(2,15)          =         2.053063	       1.086434
	 R(3,9)           =         2.635830	       1.394821
	 R(3,16)          =         2.054959	       1.087437
	 R(4,11)          =         2.636938	       1.395407
	 R(4,17)          =         2.052891	       1.086343
	 R(5,7)           =         2.618233	       1.385509
	 R(5,10)          =         2.627737	       1.390539
	 R(5,18)          =         2.049899	       1.084760
	 R(6,8)           =         2.618512	       1.385657
	 R(6,10)          =         2.626853	       1.390071
	 R(6,19)          =         2.051398	       1.085553
	 R(7,12)          =         2.555550	       1.352339
	 R(7,20)          =         2.050918	       1.085299
	 R(8,12)          =         2.556035	       1.352595
	 R(8,21)          =         2.048680	       1.084115
	 R(9,10)          =         2.734494	       1.447032
	 R(9,11)          =         2.635263	       1.394521
	 R(11,13)         =         2.534514	       1.341207
	 B(1,2,4)         =         2.094553	     120.009056
	 B(1,2,15)        =         2.094721	     120.018646
	 B(1,3,9)         =         2.093692	     119.959722
	 B(1,3,16)        =         2.079074	     119.122177
	 B(2,1,3)         =         2.094940	     120.031219
	 B(2,1,14)        =         2.094311	     119.995189
	 B(2,4,11)        =         2.094306	     119.994870
	 B(2,4,17)        =         2.095140	     120.042665
	 B(3,1,14)        =         2.093934	     119.973570
	 B(3,9,10)        =         2.090528	     119.778448
	 B(3,9,11)        =         2.095181	     120.045019
	 B(4,2,15)        =         2.093912	     119.972298
	 B(4,11,9)        =         2.093699	     119.960108
	 B(4,11,13)       =         2.081063	     119.236128
	 B(5,7,12)        =         2.165943	     124.099377
	 B(5,7,20)        =         2.108116	     120.786129
	 B(5,10,6)        =         2.089749	     119.733771
	 B(5,10,9)        =         2.096715	     120.132920
	 B(6,8,12)        =         2.164564	     124.020402
	 B(6,8,21)        =         2.108826	     120.826845
	 B(6,10,9)        =         2.096720	     120.133212
	 B(7,5,10)        =         2.057432	     117.882180
	 B(7,5,18)        =         2.098222	     120.219266
	 B(7,12,8)        =         2.029973	     116.308904
	 B(8,6,10)        =         2.058709	     117.955339
	 B(8,6,19)        =         2.098932	     120.259964
	 B(9,3,16)        =         2.110419	     120.918077
	 B(9,11,13)       =         2.108422	     120.803676
	 B(10,5,18)       =         2.127531	     121.898536
	 B(10,6,19)       =         2.125543	     121.784668
	 B(10,9,11)       =         2.097476	     120.176533
	 B(11,4,17)       =         2.093740	     119.962450
	 B(12,7,20)       =         2.009127	     115.114483
	 B(12,8,21)       =         2.009795	     115.152750
	 D(1,2,4,11)      =        -0.000325	      -0.018609
	 D(1,2,4,17)      =        -3.141151	    -179.974682
	 D(1,3,9,10)      =        -3.141334	    -179.985190
	 D(1,3,9,11)      =         0.000325	       0.018608
	 D(2,1,3,9)       =        -0.000348	      -0.019945
	 D(2,1,3,16)      =        -3.140969	    -179.964243
	 D(2,4,11,9)      =         0.000301	       0.017261
	 D(2,4,11,13)     =         3.140029	     179.910408
	 D(3,1,2,4)       =         0.000348	       0.019955
	 D(3,1,2,15)      =        -3.141142	    -179.974167
	 D(3,9,10,5)      =         0.262193	      15.022565
	 D(3,9,10,6)      =        -2.881383	    -165.091108
	 D(3,9,11,4)      =        -0.000301	      -0.017270
	 D(3,9,11,13)     =        -3.139999	    -179.908714
	 D(4,2,1,14)      =         3.141002	     179.966134
	 D(4,11,9,10)     =         3.141358	     179.986543
	 D(5,7,12,8)      =        -0.000156	      -0.008933
	 D(5,10,6,8)      =        -0.001023	      -0.058605
	 D(5,10,6,19)     =        -3.141543	    -179.997167
	 D(5,10,9,11)     =        -2.879466	    -164.981237
	 D(6,8,12,7)      =        -0.000474	      -0.027142
	 D(6,10,5,7)      =         0.000458	       0.026250
	 D(6,10,5,18)     =        -3.140271	    -179.924257
	 D(6,10,9,11)     =         0.260143	      14.905090
	 D(7,5,10,9)      =         3.140075	     179.913033
	 D(7,12,8,21)     =         3.141482	     179.993683
	 D(8,6,10,9)      =        -3.140639	    -179.945387
	 D(8,12,7,20)     =         3.140778	     179.953348
	 D(9,3,1,14)      =        -3.141002	    -179.966136
	 D(9,10,5,18)     =        -0.000654	      -0.037474
	 D(9,10,6,19)     =         0.002025	       0.116051
	 D(9,11,4,17)     =         3.141128	     179.973370
	 D(10,5,7,12)     =         0.000153	       0.008770
	 D(10,5,7,20)     =        -3.140746	    -179.951475
	 D(10,6,8,12)     =         0.001065	       0.061011
	 D(10,6,8,21)     =        -3.140911	    -179.960940
	 D(10,9,3,16)     =        -0.000731	      -0.041910
	 D(10,9,11,13)    =         0.001660	       0.095099
	 D(11,4,2,15)     =         3.141165	     179.975516
	 D(11,9,3,16)     =         3.140927	     179.961888
	 D(12,7,5,18)     =         3.140897	     179.960143
	 D(12,8,6,19)     =         3.141593	     180.000000
	 D(13,11,4,17)    =        -0.002330	      -0.133484
	 D(14,1,2,15)     =        -0.000488	      -0.027988
	 D(14,1,3,16)     =         0.001563	       0.089566
	 D(15,2,4,17)     =         0.000339	       0.019443
	 D(18,5,7,20)     =        -0.000000	      -0.000000
	 D(19,6,8,21)     =        -0.000374	      -0.021403
	 R(6,13)          =         4.779119	       2.529001

	Current energy   :      -577.7152852197

	Using model Hessian from Lindh (1995).
	 - Coordinate -           - BOHR/RAD -       - ANG/DEG -
	 R(1,2)           =         2.634350	       1.394038
	 R(1,3)           =         2.635962	       1.394891
	 R(1,14)          =         2.053412	       1.086619
	 R(2,4)           =         2.635830	       1.394821
	 R(2,15)          =         2.053063	       1.086434
	 R(3,9)           =         2.635830	       1.394821
	 R(3,16)          =         2.054959	       1.087437
	 R(4,11)          =         2.636938	       1.395407
	 R(4,17)          =         2.052891	       1.086343
	 R(5,7)           =         2.618233	       1.385509
	 R(5,10)          =         2.627737	       1.390539
	 R(5,18)          =         2.049899	       1.084760
	 R(6,8)           =         2.618512	       1.385657
	 R(6,10)          =         2.626853	       1.390071
	 R(6,19)          =         2.051398	       1.085553
	 R(7,12)          =         2.555550	       1.352339
	 R(7,20)          =         2.050918	       1.085299
	 R(8,12)          =         2.556035	       1.352595
	 R(8,21)          =         2.048680	       1.084115
	 R(9,10)          =         2.734494	       1.447032
	 R(9,11)          =         2.635263	       1.394521
	 R(11,13)         =         2.534514	       1.341207
	 R(12,20)         =         3.896941	       2.062172
	 R(12,21)         =         3.896379	       2.061875
	 R(13,19)         =         3.398540	       1.798430
	 R(16,18)         =         3.558571	       1.883114
	 B(1,2,4)         =         2.094553	     120.009056
	 B(1,2,15)        =         2.094721	     120.018646
	 B(1,3,9)         =         2.093692	     119.959722
	 B(1,3,16)        =         2.079074	     119.122177
	 B(2,1,3)         =         2.094940	     120.031219
	 B(2,1,14)        =         2.094311	     119.995189
	 B(2,4,11)        =         2.094306	     119.994870
	 B(2,4,17)        =         2.095140	     120.042665
	 B(3,1,14)        =         2.093934	     119.973570
	 B(3,9,10)        =         2.090528	     119.778448
	 B(3,9,11)        =         2.095181	     120.045019
	 B(3,16,18)       =         2.019610	     115.715104
	 B(4,2,15)        =         2.093912	     119.972298
	 B(4,11,9)        =         2.093699	     119.960108
	 B(4,11,13)       =         2.081063	     119.236128
	 B(5,7,12)        =         2.165943	     124.099377
	 B(5,7,20)        =         2.108116	     120.786129
	 B(5,10,6)        =         2.089749	     119.733771
	 B(5,10,9)        =         2.096715	     120.132920
	 B(5,18,16)       =         1.995795	     114.350620
	 B(6,8,12)        =         2.164564	     124.020402
	 B(6,8,21)        =         2.108826	     120.826845
	 B(6,10,9)        =         2.096720	     120.133212
	 B(6,19,13)       =         2.103521	     120.522897
	 B(7,5,10)        =         2.057432	     117.882180
	 B(7,5,18)        =         2.098222	     120.219266
	 B(7,12,8)        =         2.029973	     116.308904
	 B(7,12,20)       =         0.496709	      28.459320
	 B(7,12,21)       =         2.525999	     144.729093
	 B(7,20,12)       =         0.635757	      36.426197
	 B(8,6,10)        =         2.058709	     117.955339
	 B(8,6,19)        =         2.098932	     120.259964
	 B(8,12,20)       =         2.526682	     144.768209
	 B(8,12,21)       =         0.496026	      28.420190
	 B(8,21,12)       =         0.635772	      36.427061
	 B(9,3,16)        =         2.110419	     120.918077
	 B(9,11,13)       =         2.108422	     120.803676
	 B(10,5,18)       =         2.127531	     121.898536
	 B(10,6,19)       =         2.125543	     121.784668
	 B(10,9,11)       =         2.097476	     120.176533
	 B(11,4,17)       =         2.093740	     119.962450
	 B(11,13,19)      =         1.888197	     108.185732
	 B(12,7,20)       =         2.009127	     115.114483
	 B(12,8,21)       =         2.009795	     115.152750
	 B(20,12,21)      =         3.022707	     173.188378
	 D(1,2,4,11)      =        -0.000325	      -0.018609
	 D(1,2,4,17)      =        -3.141151	    -179.974682
	 D(1,3,9,10)      =        -3.141334	    -179.985190
	 D(1,3,9,11)      =         0.000325	       0.018608
	 D(1,3,16,18)     =         2.805688	     160.754095
	 D(2,1,3,9)       =        -0.000348	      -0.019945
	 D(2,1,3,16)      =        -3.140969	    -179.964243
	 D(2,4,11,9)      =         0.000301	       0.017261
	 D(2,4,11,13)     =         3.140029	     179.910408
	 D(3,1,2,4)       =         0.000348	       0.019955
	 D(3,1,2,15)      =        -3.141142	    -179.974167
	 D(3,9,10,5)      =         0.262193	      15.022565
	 D(3,9,10,6)      =        -2.881383	    -165.091108
	 D(3,9,11,4)      =        -0.000301	      -0.017270
	 D(3,9,11,13)     =        -3.139999	    -179.908714
	 D(3,16,18,5)     =         0.564424	      32.339111
	 D(4,2,1,14)      =         3.141002	     179.966134
	 D(4,11,9,10)     =         3.141358	     179.986543
	 D(4,11,13,19)    =         2.808634	     160.922874
	 D(5,7,12,8)      =        -0.000156	      -0.008933
	 D(5,7,12,20)     =        -3.140934	    -179.962281
	 D(5,7,12,21)     =        -0.000065	      -0.003726
	 D(5,7,20,12)     =         3.140958	     179.963643
	 D(5,10,6,8)      =        -0.001023	      -0.058605
	 D(5,10,6,19)     =        -3.141543	    -179.997167
	 D(5,10,9,11)     =        -2.879466	    -164.981237
	 D(6,8,12,7)      =        -0.000474	      -0.027142
	 D(6,8,12,20)     =         0.000199	       0.011395
	 D(6,8,12,21)     =         3.141229	     179.979175
	 D(6,8,21,12)     =        -3.141242	    -179.979900
	 D(6,10,5,7)      =         0.000458	       0.026250
	 D(6,10,5,18)     =        -3.140271	    -179.924257
	 D(6,10,9,11)     =         0.260143	      14.905090
	 D(6,19,13,11)    =         0.601014	      34.435572
	 D(7,5,10,9)      =         3.140075	     179.913033
	 D(7,5,18,16)     =         2.811605	     161.093098
	 D(7,12,8,21)     =         3.141482	     179.993683
	 D(7,12,21,8)     =        -0.000171	      -0.009807
	 D(7,20,12,8)     =        -0.001265	      -0.072492
	 D(7,20,12,21)    =        -0.003522	      -0.201780
	 D(8,6,10,9)      =        -3.140639	    -179.945387
	 D(8,6,19,13)     =         2.731963	     156.529924
	 D(8,12,7,20)     =         3.140778	     179.953348
	 D(8,21,12,20)    =         0.002735	       0.156712
	 D(9,3,1,14)      =        -3.141002	    -179.966136
	 D(9,3,16,18)     =        -0.334923	     -19.189653
	 D(9,10,5,18)     =        -0.000654	      -0.037474
	 D(9,10,6,19)     =         0.002025	       0.116051
	 D(9,11,4,17)     =         3.141128	     179.973370
	 D(9,11,13,19)    =        -0.334840	     -19.184906
	 D(10,5,7,12)     =         0.000153	       0.008770
	 D(10,5,7,20)     =        -3.140746	    -179.951475
	 D(10,5,18,16)    =        -0.330871	     -18.957529
	 D(10,6,8,12)     =         0.001065	       0.061011
	 D(10,6,8,21)     =        -3.140911	    -179.960940
	 D(10,6,19,13)    =        -0.410727	     -23.532905
	 D(10,9,3,16)     =        -0.000731	      -0.041910
	 D(10,9,11,13)    =         0.001660	       0.095099
	 D(11,4,2,15)     =         3.141165	     179.975516
	 D(11,9,3,16)     =         3.140927	     179.961888
	 D(12,7,5,18)     =         3.140897	     179.960143
	 D(12,8,6,19)     =         3.141593	     180.000000
	 D(13,11,4,17)    =        -0.002330	      -0.133484
	 D(14,1,2,15)     =        -0.000488	      -0.027988
	 D(14,1,3,16)     =         0.001563	       0.089566
	 D(15,2,4,17)     =         0.000339	       0.019443
	 D(18,5,7,20)     =        -0.000000	      -0.000000
	 D(19,6,8,21)     =        -0.000374	      -0.021403
	 D(20,7,12,21)    =         3.140869	     179.958555
	 D(20,12,8,21)    =        -3.141030	    -179.967781

	Adding user-defined constraint: Fragment 1; Coordinate 67:
		Value =     0.262193; Fixed value    =     0.261799
		Force =    -0.000197; Force constant =     0.500000
	Removing off-diagonal coupling between coordinate 67 and others.
	Taking RFO optimization step.
	Going to follow RFO solution 1.
	Using RFO vector 1.

	Determining step-restricting scale parameter for RS-RFO.
	Maximum step size allowed    0.10000

	 Iter      |step|        alpha        rfo_root  
	------------------------------------------------
	    0     0.39296       1.00000           1
	    1     0.26039       3.92907           1
	    2     0.17971      10.98097           1
	    3     0.13394      24.09331           1
	    4     0.11021      40.31559           1
	    5     0.10140      50.09872           1
	    6     0.10003      51.89421           1
	    7     0.10000      51.93813           1
	------------------------------------------------
	Norm of target step-size    0.10000
	Projected energy change by RFO approximation:        -0.0062384711

	Back-transformation to cartesian coordinates...
	Could not converge backtransformation.
	Using first guess instead.

	--- Internal Coordinate Step in ANG or DEG, aJ/ANG or AJ/DEG ---
	 ---------------------------------------------------------------------------
	   Coordinate                Previous        Force       Change         New 
	   ----------                --------       ------       ------       ------
	    1 R(1,2)          =      1.394038    -0.052067    -0.003700     1.390338
	    2 R(1,3)          =      1.394891    -0.064046    -0.004260     1.390631
	    3 R(1,14)         =      1.086619    -0.043687    -0.003435     1.083184
	    4 R(2,4)          =      1.394821    -0.085396    -0.005855     1.388966
	    5 R(2,15)         =      1.086434    -0.044648    -0.003503     1.082931
	    6 R(3,9)          =      1.394821     0.014953     0.001539     1.396361
	    7 R(3,16)         =      1.087437    -0.072085    -0.005648     1.081789
	    8 R(4,11)         =      1.395407    -0.113522    -0.007355     1.388052
	    9 R(4,17)         =      1.086343    -0.043145    -0.003328     1.083015
	   10 R(5,7)          =      1.385509    -0.015922    -0.000971     1.384539
	   11 R(5,10)         =      1.390539     0.033934     0.002877     1.393416
	   12 R(5,18)         =      1.084760    -0.055120    -0.004233     1.080526
	   13 R(6,8)          =      1.385657     0.012787     0.000737     1.386394
	   14 R(6,10)         =      1.390071     0.065341     0.003977     1.394048
	   15 R(6,19)         =      1.085553    -0.138693    -0.009820     1.075734
	   16 R(7,12)         =      1.352339    -0.137023    -0.008585     1.343754
	   17 R(7,20)         =      1.085299    -0.023875    -0.001828     1.083471
	   18 R(8,12)         =      1.352595    -0.135292    -0.008528     1.344067
	   19 R(8,21)         =      1.084115    -0.018928    -0.001410     1.082705
	   20 R(9,10)         =      1.447032     0.178019     0.013519     1.460551
	   21 R(9,11)         =      1.394521    -0.049861    -0.001608     1.392913
	   22 R(11,13)        =      1.341207    -0.035283    -0.001422     1.339785
	   23 B(1,2,4)        =    120.009056    -0.000068    -0.119752   119.889304
	   24 B(1,2,15)       =    120.018646     0.000129     0.187021   120.205667
	   25 B(1,3,9)        =    119.959722     0.000522     0.739750   120.699472
	   26 B(1,3,16)       =    119.122177    -0.000194    -0.286733   118.835444
	   27 B(2,1,3)        =    120.031219     0.000001     0.004972   120.036191
	   28 B(2,1,14)       =    119.995189    -0.000007    -0.010276   119.984913
	   29 B(2,4,11)       =    119.994870    -0.000276    -0.323553   119.671317
	   30 B(2,4,17)       =    120.042665     0.000282     0.356618   120.399283
	   31 B(3,1,14)       =    119.973570     0.000006     0.005288   119.978858
	   32 B(3,9,10)       =    119.778448     0.001179     1.217701   120.996149
	   33 B(3,9,11)       =    120.045019    -0.001377    -1.647871   118.397148
	   34 B(4,2,15)       =    119.972298    -0.000061    -0.067272   119.905026
	   35 B(4,11,9)       =    119.960108     0.001198     1.346406   121.306514
	   36 B(4,11,13)      =    119.236128    -0.000296    -0.539062   118.697065
	   37 B(5,7,12)       =    124.099377     0.000066     0.010396   124.109773
	   38 B(5,7,20)       =    120.786129    -0.000105    -0.103032   120.683097
	   39 B(5,10,6)       =    119.733771    -0.001335    -1.485579   118.248191
	   40 B(5,10,9)       =    120.132920     0.000554     0.649960   120.782880
	   41 B(6,8,12)       =    124.020402     0.000333     0.299676   124.320078
	   42 B(6,8,21)       =    120.826845    -0.000233    -0.248747   120.578097
	   43 B(6,10,9)       =    120.133212     0.000781     0.835702   120.968915
	   44 B(7,5,10)       =    117.882180     0.000672     0.854113   118.736292
	   45 B(7,5,18)       =    120.219266    -0.000461    -0.602889   119.616377
	   46 B(7,12,8)       =    116.308904     0.000032    -0.146830   116.162073
	   47 B(8,6,10)       =    117.955339     0.000232     0.468118   118.423458
	   48 B(8,6,19)       =    120.259964    -0.000597    -0.633633   119.626331
	   49 B(9,3,16)       =    120.918077    -0.000328    -0.453083   120.464994
	   50 B(9,11,13)      =    120.803676    -0.000902    -0.808165   119.995511
	   51 B(10,5,18)      =    121.898536    -0.000211    -0.251529   121.647007
	   52 B(10,6,19)      =    121.784668     0.000365     0.164793   121.949462
	   53 B(10,9,11)      =    120.176533     0.000199     0.429992   120.606525
	   54 B(11,4,17)      =    119.962450    -0.000006    -0.033051   119.929399
	   55 B(12,7,20)      =    115.114483     0.000039     0.092623   115.207106
	   56 B(12,8,21)      =    115.152750    -0.000100    -0.050926   115.101824
	   57 D(1,2,4,11)     =     -0.018609    -0.000005    -0.044096    -0.062705
	   58 D(1,2,4,17)     =   -179.974682    -0.000010    -0.089545  -180.064226
	   59 D(1,3,9,10)     =   -179.985190     0.000005     0.065036  -179.920154
	   60 D(1,3,9,11)     =      0.018608    -0.000010    -0.091596    -0.072989
	   61 D(2,1,3,9)      =     -0.019945     0.000007     0.064163     0.044219
	   62 D(2,1,3,16)     =   -179.964243    -0.000011    -0.100146  -180.064389
	   63 D(2,4,11,9)     =      0.017261     0.000002     0.015737     0.032998
	   64 D(2,4,11,13)    =    179.910408    -0.000027    -0.224367   179.686041
	   65 D(3,1,2,4)      =      0.019955     0.000001     0.004668     0.024623
	   66 D(3,1,2,15)     =   -179.974167    -0.000003    -0.022403  -179.996571
	   67 D(3,9,10,5)     =     15.022565     0.000034     0.182400    15.204965
	   68 D(3,9,10,6)     =   -165.091108     0.000046     0.339930  -164.751177
	   69 D(3,9,11,4)     =     -0.017270     0.000006     0.051745     0.034475
	   70 D(3,9,11,13)    =   -179.908714     0.000035     0.294595  -179.614119
	   71 D(4,2,1,14)     =    179.966134    -0.000001    -0.012480   179.953654
	   72 D(4,11,9,10)    =    179.986543    -0.000010    -0.104284   179.882258
	   73 D(5,7,12,8)     =     -0.008933     0.000003     0.024633     0.015700
	   74 D(5,10,6,8)     =     -0.058605     0.000003     0.036799    -0.021806
	   75 D(5,10,6,19)    =   -179.997167     0.000037     0.291796  -179.705371
	   76 D(5,10,9,11)    =   -164.981237     0.000049     0.342409  -164.638829
	   77 D(6,8,12,7)     =     -0.027142    -0.000010    -0.086473    -0.113615
	   78 D(6,10,5,7)     =      0.026250    -0.000009    -0.092305    -0.066054
	   79 D(6,10,5,18)    =   -179.924257     0.000008     0.065923  -179.858334
	   80 D(6,10,9,11)    =     14.905090     0.000061     0.499939    15.405029
	   81 D(7,5,10,9)     =    179.913033     0.000003     0.063602   179.976635
	   82 D(7,12,8,21)    =    179.993683    -0.000014    -0.115002   179.878681
	   83 D(8,6,10,9)     =   -179.945387    -0.000009    -0.119191  -180.064579
	   84 D(8,12,7,20)    =    179.953348     0.000000     0.005901   179.959249
	   85 D(9,3,1,14)     =   -179.966136     0.000009     0.081319  -179.884817
	   86 D(9,10,5,18)    =     -0.037474     0.000020     0.221830     0.184356
	   87 D(9,10,6,19)    =      0.116051     0.000025     0.135806     0.251856
	   88 D(9,11,4,17)    =    179.973370     0.000007     0.061143   180.034513
	   89 D(10,5,7,12)    =      0.008770     0.000007     0.063730     0.072499
	   90 D(10,5,7,20)    =   -179.951475     0.000009     0.083365  -179.868111
	   91 D(10,6,8,12)    =      0.061011     0.000007     0.057135     0.118147
	   92 D(10,6,8,21)    =   -179.960940     0.000012     0.087190  -179.873750
	   93 D(10,9,3,16)    =     -0.041910     0.000023     0.232136     0.190227
	   94 D(10,9,11,13)   =      0.095099     0.000020     0.138566     0.233665
	   95 D(11,4,2,15)    =    179.975516    -0.000002    -0.017092   179.958424
	   96 D(11,9,3,16)    =    179.961888     0.000008     0.075504   180.037392
	   97 D(12,7,5,18)    =    179.960143    -0.000011    -0.091050   179.869093
	   98 D(12,8,6,19)    =    180.000000    -0.000026    -0.190734   179.809266
	   99 D(13,11,4,17)   =     -0.133484    -0.000022    -0.178961    -0.312445
	  100 D(14,1,2,15)    =     -0.027988    -0.000004    -0.039552    -0.067539
	  101 D(14,1,3,16)    =      0.089566    -0.000009    -0.082991     0.006575
	  102 D(15,2,4,17)    =      0.019443    -0.000007    -0.062541    -0.043098
	  103 D(18,5,7,20)    =      0.000000    -0.000008    -0.071517    -0.071517
	  104 D(19,6,8,21)    =     -0.021403    -0.000021    -0.161228    -0.182631
	  105 R(6,13)         =      2.529001     0.186920     0.029775     2.558776
	 ---------------------------------------------------------------------------
	Successfully symmetrized geometry.
	 Forces used to impose fixed constraints are not included.
	  Forces zeroed: 67 

  ==> Convergence Check <==

  Measures of convergence in internal coordinates in au.
  Criteria marked as inactive (o), active & met (*), and active & unmet ( ).
  --------------------------------------------------------------------------------------------- ~
   Step     Total Energy     Delta E     MAX Force     RMS Force      MAX Disp      RMS Disp    ~
  --------------------------------------------------------------------------------------------- ~
    Convergence Criteria    1.00e-06 *    3.00e-04 *             o    1.20e-03 *             o  ~
  --------------------------------------------------------------------------------------------- ~
      1    -577.71528522   -5.78e+02      2.27e-02      6.49e-03 o    5.63e-02      9.78e-03 o  ~
  ---------------------------------------------------------------------------------------------

	Writing optimization data to binary file.
	Structure for next step:
	Cartesian Geometry (in Angstrom)
	    C    -1.3912471557   0.8477827787  -2.6715285511
	    C    -2.4631202973   1.4215842684  -1.9970808399
	    C    -0.3566473028   0.2538451623  -1.9568981466
	    C    -2.4983815613   1.4009465815  -0.6087157615
	    C     1.9224022169  -0.6907139860  -0.4134472751
	    C     0.5489214993  -0.7100190298   1.5453492494
	    C     2.9210225066  -1.2784733278   0.3443416592
	    C     1.6117970440  -1.2992354348   2.2125881642
	    C    -0.3794749690   0.2244502773  -0.5610336645
	    C     0.7044880729  -0.3960823630   0.1960483575
	    C    -1.4616201257   0.8051765716   0.0961757893
	    N     2.7950101267  -1.5903201837   1.6453208059
	    F    -1.5124084532   0.8019578301   1.4349942272
	    H    -1.3625351336   0.8623373490  -3.7542339475
	    H    -3.2702963131   1.8847885121  -2.5508399372
	    H     0.4672760315  -0.1876749424  -2.5013965975
	    H    -3.3287961691   1.8463599609  -0.0749175837
	    H     2.1032738191  -0.4688798380  -1.4553745454
	    H    -0.3671516384  -0.5129281616   2.0737128800
	    H     3.8808555600  -1.5190469009  -0.0969678255
	    H     1.5282967552  -1.5594541939   3.2602346249
			--------------------------
			 OPTKING Finished Execution 
			--------------------------

    Structure for next step:
    Molecular point group: c1
    Full point group: C1

    Geometry (in Angstrom), charge = 0, multiplicity = 1:

    C           -1.390965517354     0.846246409403    -2.668015672107
    C           -2.462838658964     1.420047899157    -1.993567960874
    C           -0.356365664438     0.252308793010    -1.953385267623
    C           -2.498099923006     1.399410212247    -0.605202882438
    C            1.922683855246    -0.692250355283    -0.409934396073
    C            0.549203137620    -0.711555399059     1.548862128381
    C            2.921304144916    -1.280009697020     0.347854538226
    C            1.612078682339    -1.300771804082     2.216101043187
    C           -0.379193330676     0.222913908015    -0.557520785434
    C            0.704769711175    -0.397618732220     0.199561236552
    C           -1.461338487367     0.803640202325     0.099688668289
    N            2.795291765026    -1.591856552930     1.648833684965
    F           -1.512126814830     0.800421460788     1.438507106208
    H           -1.362253495281     0.860800979730    -3.750721068440
    H           -3.270014674820     1.883252142861    -2.547327058190
    H            0.467557669851    -0.189211311697    -2.497883718475
    H           -3.328514530733     1.844823591680    -0.071404704660
    H            2.103555457416    -0.470416207311    -1.451861666377
    H           -0.366870000075    -0.514464530861     2.077225759060
    H            3.881137198316    -1.520583270124    -0.093454946481
    H            1.528578393544    -1.560990563148     3.263747503924

gradient() will perform analytic gradient computation.

*** tstart() called on gpu-2-8.local
*** at Tue Nov 14 03:00:19 2017

    SCF Algorithm Type (re)set to DF.

*** tstart() called on gpu-2-8.local
*** at Tue Nov 14 03:00:19 2017

   => Loading Basis Set <=

    Name: AUG-CC-PVTZ
    Role: ORBITAL
    Keyword: BASIS
    atoms 1-11  entry C          line   221 file /cbio/jclab/home/chayas/anaconda/envs/py35/share/psi4/basis/aug-cc-pvtz.gbs 
    atoms 12    entry N          line   267 file /cbio/jclab/home/chayas/anaconda/envs/py35/share/psi4/basis/aug-cc-pvtz.gbs 
    atoms 13    entry F          line   359 file /cbio/jclab/home/chayas/anaconda/envs/py35/share/psi4/basis/aug-cc-pvtz.gbs 
    atoms 14-21 entry H          line    34 file /cbio/jclab/home/chayas/anaconda/envs/py35/share/psi4/basis/aug-cc-pvtz.gbs 


         ---------------------------------------------------------
                                   SCF
            by Justin Turney, Rob Parrish, and Andy Simmonett
                              RHF Reference
                        8 Threads,   4768 MiB Core
         ---------------------------------------------------------

  ==> Geometry <==

    Molecular point group: c1
    Full point group: C1

    Geometry (in Angstrom), charge = 0, multiplicity = 1:

       Center              X                  Y                   Z               Mass       
    ------------   -----------------  -----------------  -----------------  -----------------
           C         -1.390965517354     0.846246409403    -2.668015672107    12.000000000000
           C         -2.462838658964     1.420047899157    -1.993567960874    12.000000000000
           C         -0.356365664438     0.252308793010    -1.953385267623    12.000000000000
           C         -2.498099923006     1.399410212247    -0.605202882438    12.000000000000
           C          1.922683855246    -0.692250355283    -0.409934396073    12.000000000000
           C          0.549203137620    -0.711555399059     1.548862128381    12.000000000000
           C          2.921304144916    -1.280009697020     0.347854538226    12.000000000000
           C          1.612078682339    -1.300771804082     2.216101043187    12.000000000000
           C         -0.379193330676     0.222913908015    -0.557520785434    12.000000000000
           C          0.704769711175    -0.397618732220     0.199561236552    12.000000000000
           C         -1.461338487367     0.803640202325     0.099688668289    12.000000000000
           N          2.795291765026    -1.591856552930     1.648833684965    14.003074004780
           F         -1.512126814830     0.800421460788     1.438507106208    18.998403224000
           H         -1.362253495281     0.860800979730    -3.750721068440     1.007825032070
           H         -3.270014674820     1.883252142861    -2.547327058190     1.007825032070
           H          0.467557669851    -0.189211311697    -2.497883718475     1.007825032070
           H         -3.328514530733     1.844823591680    -0.071404704660     1.007825032070
           H          2.103555457416    -0.470416207311    -1.451861666377     1.007825032070
           H         -0.366870000075    -0.514464530861     2.077225759060     1.007825032070
           H          3.881137198316    -1.520583270124    -0.093454946481     1.007825032070
           H          1.528578393544    -1.560990563148     3.263747503924     1.007825032070

  Running in c1 symmetry.

  Rotational constants: A =      0.06472  B =      0.01852  C =      0.01450 [cm^-1]
  Rotational constants: A =   1940.21662  B =    555.26631  C =    434.74441 [MHz]
  Nuclear repulsion =  718.042688664063121

  Charge       = 0
  Multiplicity = 1
  Electrons    = 90
  Nalpha       = 45
  Nbeta        = 45

  ==> Algorithm <==

  SCF Algorithm Type is DF.
  DIIS enabled.
  MOM disabled.
  Fractional occupation disabled.
  Guess Type is READ.
  Energy threshold   = 1.00e-10
  Density threshold  = 1.00e-10
  Integral threshold = 0.00e+00

  ==> Primary Basis <==

  Basis Set: AUG-CC-PVTZ
    Blend: AUG-CC-PVTZ
    Number of shells: 254
    Number of basis function: 782
    Number of Cartesian functions: 915
    Spherical Harmonics?: true
    Max angular momentum: 3

   => Loading Basis Set <=

    Name: (AUG-CC-PVTZ AUX)
    Role: JKFIT
    Keyword: DF_BASIS_SCF
    atoms 1-11  entry C          line   161 file /cbio/jclab/home/chayas/anaconda/envs/py35/share/psi4/basis/aug-cc-pvtz-jkfit.gbs 
    atoms 12    entry N          line   223 file /cbio/jclab/home/chayas/anaconda/envs/py35/share/psi4/basis/aug-cc-pvtz-jkfit.gbs 
    atoms 13    entry F          line   347 file /cbio/jclab/home/chayas/anaconda/envs/py35/share/psi4/basis/aug-cc-pvtz-jkfit.gbs 
    atoms 14-21 entry H          line    69 file /cbio/jclab/home/chayas/anaconda/envs/py35/share/psi4/basis/aug-cc-pvtz-jkfit.gbs 

  Reading orbitals from file 180, no projection.

  ==> Pre-Iterations <==

   -------------------------------------------------------
    Irrep   Nso     Nmo     Nalpha   Nbeta   Ndocc  Nsocc
   -------------------------------------------------------
     A        782     782       0       0       0       0
   -------------------------------------------------------
    Total     782     782      45      45      45       0
   -------------------------------------------------------

  ==> Integral Setup <==

  ==> DFJK: Density-Fitted J/K Matrices <==

    J tasked:                  Yes
    K tasked:                  Yes
    wK tasked:                  No
    OpenMP threads:              8
    Integrals threads:           8
    Memory (MB):              3576
    Algorithm:                Disk
    Integral Cache:           NONE
    Schwarz Cutoff:          1E-12
    Fitting Condition:       1E-12

   => Auxiliary Basis Set <=

  Basis Set: (AUG-CC-PVTZ AUX)
    Blend: AUG-CC-PVTZ-JKFIT
    Number of shells: 502
    Number of basis function: 1720
    Number of Cartesian functions: 2143
    Spherical Harmonics?: true
    Max angular momentum: 4

  Minimum eigenvalue in the overlap matrix is 5.8320979454E-07.
  Using Symmetric Orthogonalization.

  SCF Guess: Orbitals guess was supplied from a previous computation.

  ==> Iterations <==

                           Total Energy        Delta E     RMS |[F,P]|

   @DF-RHF iter   0:  -575.40241174037408   -5.75402e+02   4.35113e-04 
   @DF-RHF iter   1:  -575.27712416314580    1.25288e-01   1.40318e-04 
   @DF-RHF iter   2:  -575.27787728874455   -7.53126e-04   1.00397e-04 DIIS
   @DF-RHF iter   3:  -575.27853966417740   -6.62375e-04   1.59098e-05 DIIS
   @DF-RHF iter   4:  -575.27855058727175   -1.09231e-05   4.21267e-06 DIIS
   @DF-RHF iter   5:  -575.27855216188163   -1.57461e-06   1.48388e-06 DIIS
   @DF-RHF iter   6:  -575.27855239770543   -2.35824e-07   7.71985e-07 DIIS
   @DF-RHF iter   7:  -575.27855248699757   -8.92921e-08   2.59893e-07 DIIS
   @DF-RHF iter   8:  -575.27855251597191   -2.89743e-08   1.18868e-07 DIIS
   @DF-RHF iter   9:  -575.27855251942128   -3.44937e-09   3.65864e-08 DIIS
   @DF-RHF iter  10:  -575.27855251976371   -3.42425e-10   1.77987e-08 DIIS
   @DF-RHF iter  11:  -575.27855251979145   -2.77396e-11   4.23258e-09 DIIS
   @DF-RHF iter  12:  -575.27855251980077   -9.32232e-12   2.18165e-09 DIIS
   @DF-RHF iter  13:  -575.27855251980327   -2.50111e-12   1.51892e-09 DIIS
   @DF-RHF iter  14:  -575.27855251980918   -5.91172e-12   5.23228e-10 DIIS
   @DF-RHF iter  15:  -575.27855251981146   -2.27374e-12   2.78038e-10 DIIS
   @DF-RHF iter  16:  -575.27855251981441   -2.95586e-12   8.17737e-11 DIIS

  ==> Post-Iterations <==

    Orbital Energies (a.u.)
    -----------------------

    Doubly Occupied:                                                      

       1A    -26.327243     2A    -15.561790     3A    -11.343114  
       4A    -11.271889     5A    -11.269472     6A    -11.268686  
       7A    -11.264674     8A    -11.259337     9A    -11.259091  
      10A    -11.255313    11A    -11.250706    12A    -11.238965  
      13A    -11.230258    14A     -1.651871    15A     -1.252551  
      16A     -1.186228    17A     -1.114075    18A     -1.039944  
      19A     -1.032141    20A     -1.028651    21A     -0.894270  
      22A     -0.877002    23A     -0.845800    24A     -0.826877  
      25A     -0.760813    26A     -0.731684    27A     -0.721224  
      28A     -0.715394    29A     -0.673242    30A     -0.662213  
      31A     -0.649730    32A     -0.625984    33A     -0.610761  
      34A     -0.593872    35A     -0.586152    36A     -0.551874  
      37A     -0.542234    38A     -0.524988    39A     -0.519251  
      40A     -0.502066    41A     -0.417071    42A     -0.416220  
      43A     -0.355609    44A     -0.346484    45A     -0.325037  

    Virtual:                                                              

      46A      0.022969    47A      0.028857    48A      0.033858  
      49A      0.040377    50A      0.043555    51A      0.048468  
      52A      0.057537    53A      0.059316    54A      0.063229  
      55A      0.078633    56A      0.084499    57A      0.085663  
      58A      0.090174    59A      0.093020    60A      0.100454  
      61A      0.104697    62A      0.106017    63A      0.109622  
[...]
	 D(1,2,4,17)      =         3.136876	     179.729761
	 D(1,3,9,10)      =        -3.135637	    -179.658778
	 D(1,3,9,11)      =        -0.003812	      -0.218427
	 D(1,3,16,18)     =         2.789421	     159.822042
	 D(2,1,3,9)       =         0.002330	       0.133504
	 D(2,1,3,16)      =         3.134469	     179.591834
	 D(2,4,11,9)      =         0.001096	       0.062768
	 D(2,4,11,13)     =         3.127040	     179.166179
	 D(3,1,2,4)       =         0.001036	       0.059339
	 D(3,1,2,15)      =         3.141446	     179.991569
	 D(3,9,10,5)      =         0.269138	      15.420477
	 D(3,9,10,6)      =        -2.862204	    -163.992208
	 D(3,9,11,4)      =         0.002110	       0.120902
	 D(3,9,11,13)     =        -3.123639	    -178.971309
	 D(3,16,18,5)     =         0.610866	      35.000038
	 D(4,2,1,14)      =         3.139715	     179.892430
	 D(4,11,9,10)     =         3.133836	     179.555551
	 D(4,11,13,19)    =         2.813922	     161.225833
	 D(5,7,12,8)      =         0.001398	       0.080121
	 D(5,7,12,20)     =        -3.139894	    -179.902650
	 D(5,7,12,21)     =         0.005916	       0.338988
	 D(5,7,20,12)     =         3.139959	     179.906391
	 D(5,10,6,8)      =        -0.000371	      -0.021266
	 D(5,10,6,19)     =        -3.128750	    -179.264146
	 D(5,10,9,11)     =        -2.862129	    -163.987937
	 D(6,8,12,7)      =        -0.005766	      -0.330355
	 D(6,8,12,20)     =        -0.005520	      -0.316280
	 D(6,8,12,21)     =         3.141320	     179.984373
	 D(6,8,21,12)     =        -3.141333	    -179.985124
	 D(6,10,5,7)      =        -0.003576	      -0.204879
	 D(6,10,5,18)     =        -3.135060	    -179.625721
	 D(6,10,9,11)     =         0.289714	      16.599378
	 D(6,19,13,11)    =         0.611296	      35.024656
	 D(7,5,10,9)      =        -3.135509	    -179.651424
	 D(7,5,18,16)     =         2.797307	     160.273862
	 D(7,12,8,21)     =         3.136100	     179.685272
	 D(7,12,21,8)     =        -0.008513	      -0.487756
	 D(7,20,12,8)     =        -0.000465	      -0.026623
	 D(7,20,12,21)    =         0.019860	       1.137893
	 D(8,6,10,9)      =         3.131331	     179.412056
	 D(8,6,19,13)     =         2.755570	     157.882560
	 D(8,12,7,20)     =         3.141292	     179.982771
	 D(8,21,12,20)    =        -0.024784	      -1.420025
	 D(9,3,1,14)      =        -3.136357	    -179.700008
	 D(9,3,16,18)     =        -0.361419	     -20.707758
	 D(9,10,5,18)     =         0.016192	       0.927734
	 D(9,10,6,19)     =         0.002953	       0.169177
	 D(9,11,4,17)     =        -3.138510	    -179.823372
	 D(9,11,13,19)    =        -0.342732	     -19.637108
	 D(10,5,7,12)     =         0.003236	       0.185418
	 D(10,5,7,20)     =        -3.136585	    -179.713074
	 D(10,5,18,16)    =        -0.354324	     -20.301264
	 D(10,6,8,12)     =         0.005341	       0.306001
	 D(10,6,8,21)     =        -3.136536	    -179.710285
	 D(10,6,19,13)    =        -0.399256	     -22.875704
	 D(10,9,3,16)     =         0.015470	       0.886388
	 D(10,9,11,13)    =         0.008087	       0.463340
	 D(11,4,2,15)     =         3.140072	     179.912846
	 D(11,9,3,16)     =        -3.135890	    -179.673261
	 D(12,7,5,18)     =         3.134935	     179.618518
	 D(12,8,6,19)     =         3.134102	     179.570808
	 D(13,11,4,17)    =        -0.012566	      -0.719961
	 D(14,1,2,15)     =        -0.003060	      -0.175340
	 D(14,1,3,16)     =        -0.004218	      -0.241678
	 D(15,2,4,17)     =        -0.003541	      -0.202904
	 D(18,5,7,20)     =        -0.004886	      -0.279975
	 D(19,6,8,21)     =        -0.007775	      -0.445478
	 D(20,7,12,21)    =        -3.137375	    -179.758362
	 D(20,12,8,21)    =         3.136345	     179.699347

	Adding user-defined constraint: Fragment 1; Coordinate 67:
		Value =     0.269138; Fixed value    =     0.261799
		Force =    -0.003669; Force constant =     0.500000
	Removing off-diagonal coupling between coordinate 67 and others.
	Taking RFO optimization step.
	Going to follow RFO solution 1.
	Using RFO vector 1.

	Determining step-restricting scale parameter for RS-RFO.
	Maximum step size allowed    0.10000

	 Iter      |step|        alpha        rfo_root  
	------------------------------------------------
	    0     0.47287       1.00000           1
	    1     0.30650       3.77232           1
	    2     0.20558      10.81458           1
	    3     0.14664      24.87256           1
	    4     0.11537      43.90707           1
	    5     0.10266      57.57248           1
	    6     0.10011      61.01120           1
	    7     0.10000      61.15881           1
	------------------------------------------------
	Norm of target step-size    0.10000
	Projected energy change by RFO approximation:        -0.0009391781

	Back-transformation to cartesian coordinates...
	Successfully converged to displaced geometry.

	--- Internal Coordinate Step in ANG or DEG, aJ/ANG or AJ/DEG ---
	 ---------------------------------------------------------------------------
	   Coordinate                Previous        Force       Change         New 
	   ----------                --------       ------       ------       ------
	    1 R(1,2)          =      1.387930    -0.000446    -0.000417     1.387513
	    2 R(1,3)          =      1.385348    -0.006700    -0.000628     1.384721
	    3 R(1,14)         =      1.079238    -0.002716    -0.000471     1.078766
	    4 R(2,4)          =      1.384839     0.000395    -0.000468     1.384371
	    5 R(2,15)         =      1.079167    -0.002694    -0.000555     1.078612
	    6 R(3,9)          =      1.396006     0.007933     0.001588     1.397594
	    7 R(3,16)         =      1.077932     0.000588    -0.000192     1.077740
	    8 R(4,11)         =      1.379838    -0.004321    -0.001184     1.378654
	    9 R(4,17)         =      1.078746    -0.002568    -0.000548     1.078198
	   10 R(5,7)          =      1.383477    -0.000317     0.000094     1.383571
	   11 R(5,10)         =      1.393829     0.003282     0.000585     1.394415
	   12 R(5,18)         =      1.077868     0.001078    -0.000167     1.077700
	   13 R(6,8)          =      1.387281    -0.005697    -0.001501     1.385780
	   14 R(6,10)         =      1.396841    -0.003390    -0.000523     1.396317
	   15 R(6,19)         =      1.069766     0.008279     0.001072     1.070838
	   16 R(7,12)         =      1.335530    -0.001978    -0.000269     1.335262
	   17 R(7,20)         =      1.081807    -0.003464    -0.000607     1.081199
	   18 R(8,12)         =      1.335481    -0.007862    -0.001209     1.334272
	   19 R(8,21)         =      1.081384    -0.000529    -0.000256     1.081128
	   20 R(9,10)         =      1.467459    -0.009717     0.000372     1.467831
	   21 R(9,11)         =      1.392937    -0.002591     0.001030     1.393968
	   22 R(11,13)        =      1.342165     0.016051     0.001759     1.343924
	   23 B(1,2,4)        =    119.711789    -0.000003    -0.082545   119.629243
	   24 B(1,2,15)       =    120.462332     0.000019     0.125693   120.588024
	   25 B(1,3,9)        =    121.651539     0.000059     0.270485   121.922024
	   26 B(1,3,16)       =    118.842978     0.000005    -0.112610   118.730368
	   27 B(2,1,3)        =    120.003602    -0.000004    -0.009918   119.993684
	   28 B(2,1,14)       =    120.123378     0.000002     0.012723   120.136100
	   29 B(2,4,11)       =    119.222809    -0.000040    -0.000491   119.222318
	   30 B(2,4,17)       =    121.192915     0.000055     0.272324   121.465239
	   31 B(3,1,14)       =    119.872810     0.000002    -0.003068   119.869742
	   32 B(3,9,10)       =    121.254094     0.000050     0.052582   121.306676
	   33 B(3,9,11)       =    116.549934    -0.000119    -0.483468   116.066467
	   34 B(4,2,15)       =    119.825845    -0.000016    -0.043185   119.782661
	   35 B(4,11,9)       =    122.859908     0.000107     0.305456   123.165363
	   36 B(4,11,13)      =    117.913926    -0.000117    -0.677508   117.236418
	   37 B(5,7,12)       =    123.883288    -0.000038    -0.034872   123.848416
	   38 B(5,7,20)       =    120.304151    -0.000021    -0.128377   120.175774
	   39 B(5,10,6)       =    116.766313    -0.000093    -0.427345   116.338968
	   40 B(5,10,9)       =    120.517084     0.000027     0.166197   120.683281
	   41 B(6,8,12)       =    124.477373    -0.000033    -0.103772   124.373601
	   42 B(6,8,21)       =    120.007614    -0.000035    -0.215228   119.792386
	   43 B(6,10,9)       =    122.714160     0.000066     0.257226   122.971385
	   44 B(7,5,10)       =    119.768230     0.000043     0.196329   119.964559
	   45 B(7,5,18)       =    119.058329    -0.000025    -0.176370   118.881959
	   46 B(7,12,8)       =    116.160659     0.000034    -0.020648   116.140011
	   47 B(8,6,10)       =    118.943106     0.000087     0.389728   119.332834
	   48 B(8,6,19)       =    119.098955    -0.000040    -0.179273   118.919682
	   49 B(9,3,16)       =    119.503289    -0.000064    -0.160086   119.343204
	   50 B(9,11,13)      =    119.220200     0.000010     0.368308   119.588507
	   51 B(10,5,18)      =    121.170954    -0.000018    -0.022236   121.148718
	   52 B(10,6,19)      =    121.953688    -0.000046    -0.210118   121.743570
	   53 B(10,9,11)      =    122.193502     0.000069     0.427714   122.621215
	   54 B(11,4,17)      =    119.584175    -0.000015    -0.271983   119.312192
	   55 B(12,7,20)      =    115.812490     0.000059     0.163074   115.975563
	   56 B(12,8,21)      =    115.515011     0.000067     0.318978   115.833989
	   57 D(1,2,4,11)     =     -0.154489    -0.000001    -0.009245    -0.163733
	   58 D(1,2,4,17)     =    179.729761    -0.000002    -0.076821   179.652941
	   59 D(1,3,9,10)     =   -179.658778     0.000004     0.184412  -179.474366
	   60 D(1,3,9,11)     =     -0.218427    -0.000004    -0.098267    -0.316694
	   61 D(2,1,3,9)      =      0.133504     0.000001    -0.019926     0.113579
	   62 D(2,1,3,16)     =    179.591834    -0.000004    -0.247079   179.344755
	   63 D(2,4,11,9)     =      0.062768    -0.000002    -0.119968    -0.057199
	   64 D(2,4,11,13)    =    179.166179    -0.000007    -0.363625   178.802554
	   65 D(3,1,2,4)      =      0.059339     0.000001     0.076853     0.136192
	   66 D(3,1,2,15)     =    179.991569     0.000000     0.046915   180.038483
	   67 D(3,9,10,5)     =     15.420477    -0.000008    -0.168816    15.251660
	   68 D(3,9,10,6)     =   -163.992208     0.000001     0.195746  -163.796463
	   69 D(3,9,11,4)     =      0.120902     0.000004     0.169976     0.290878
	   70 D(3,9,11,13)    =   -178.971309     0.000009     0.428047  -178.543262
	   71 D(4,2,1,14)     =    179.892430    -0.000000    -0.006901   179.885529
	   72 D(4,11,9,10)    =    179.555551    -0.000004    -0.119148   179.436403
	   73 D(5,7,12,8)     =      0.080121     0.000002     0.130806     0.210927
	   74 D(5,10,6,8)     =     -0.021266     0.000005     0.256954     0.235688
	   75 D(5,10,6,19)    =   -179.264146     0.000007     0.227534  -179.036612
	   76 D(5,10,9,11)    =   -163.987937     0.000001     0.137966  -163.849971
	   77 D(6,8,12,7)     =     -0.330355    -0.000001    -0.032639    -0.362994
	   78 D(6,10,5,7)     =     -0.204879    -0.000004    -0.169739    -0.374618
	   79 D(6,10,5,18)    =   -179.625721     0.000001     0.054114  -179.571607
	   80 D(6,10,9,11)    =     16.599378     0.000010     0.502528    17.101906
	   81 D(7,5,10,9)     =   -179.651424     0.000004     0.167878  -179.483545
	   82 D(7,12,8,21)    =    179.685272    -0.000001     0.007320   179.692592
	   83 D(8,6,10,9)     =    179.412056    -0.000004    -0.089810   179.322246
	   84 D(8,12,7,20)    =    179.982771     0.000001     0.047156   180.029926
	   85 D(9,3,1,14)     =   -179.700008     0.000003     0.063577  -179.636430
	   86 D(9,10,5,18)    =      0.927734     0.000010     0.391732     1.319465
	   87 D(9,10,6,19)    =      0.169177    -0.000002    -0.119231     0.049946
	   88 D(9,11,4,17)    =   -179.823372    -0.000001    -0.054498  -179.877870
	   89 D(10,5,7,12)    =      0.185418     0.000001    -0.026381     0.159037
	   90 D(10,5,7,20)    =   -179.713074     0.000002     0.060334  -179.652740
	   91 D(10,6,8,12)    =      0.306001    -0.000002    -0.165378     0.140623
	   92 D(10,6,8,21)    =   -179.710285    -0.000002    -0.206743  -179.917028
	   93 D(10,9,3,16)    =      0.886388     0.000010     0.412648     1.299036
	   94 D(10,9,11,13)   =      0.463340     0.000001     0.138923     0.602263
	   95 D(11,4,2,15)    =    179.912846    -0.000000     0.020334   179.933179
	   96 D(11,9,3,16)    =   -179.673261     0.000002     0.129969  -179.543291
	   97 D(12,7,5,18)    =    179.618518    -0.000004    -0.244342   179.374176
	   98 D(12,8,6,19)    =    179.570808    -0.000004    -0.137194   179.433614
	   99 D(13,11,4,17)   =     -0.719961    -0.000006    -0.298155    -1.018116
	  100 D(14,1,2,15)    =     -0.175340    -0.000001    -0.036840    -0.212180
	  101 D(14,1,3,16)    =     -0.241678    -0.000003    -0.163576    -0.405254
	  102 D(15,2,4,17)    =     -0.202904    -0.000001    -0.047242    -0.250147
	  103 D(18,5,7,20)    =     -0.279975    -0.000003    -0.157627    -0.437602
	  104 D(19,6,8,21)    =     -0.445478    -0.000004    -0.178558    -0.624036
	  105 R(6,13)         =      2.651009     0.040718     0.033796     2.684804
	  106 R(1,X)          =     -1.387026    -0.000593    -0.001244    -1.388270
	  107 R(1,Y)          =      0.836268     0.000615     0.000438     0.836706
	  108 R(1,Z)          =     -2.667657    -0.001593    -0.000731    -2.668388
	  109 R(2,X)          =     -2.461637    -0.001409    -0.002261    -2.463898
	  110 R(2,Y)          =      1.421754     0.000623     0.001123     1.422877
	  111 R(2,Z)          =     -2.012855    -0.003886    -0.003905    -2.016760
	  112 R(3,X)          =     -0.368053    -0.007399    -0.003892    -0.371945
	  113 R(3,Y)          =      0.247161     0.003754     0.000706     0.247867
	  114 R(3,Z)          =     -1.937015    -0.002273     0.001978    -1.935037
	  115 R(4,X)          =     -2.508616    -0.002691    -0.003130    -2.511746
	  116 R(4,Y)          =      1.414748     0.001491     0.002357     1.417105
	  117 R(4,Z)          =     -0.628831    -0.003530    -0.004398    -0.633228
	  118 R(5,X)          =      1.918455     0.002114     0.001900     1.920356
	  119 R(5,Y)          =     -0.689736    -0.002113    -0.000237    -0.689973
	  120 R(5,Z)          =     -0.386327     0.006121     0.003467    -0.382860
	  121 R(6,X)          =      0.575292     0.014242     0.007470     0.582762
	  122 R(6,Y)          =     -0.738122    -0.005976    -0.006449    -0.744570
	  123 R(6,Z)          =      1.573553    -0.002654     0.000547     1.574099
	  124 R(7,X)          =      2.930917     0.004438     0.003348     2.934265
	  125 R(7,Y)          =     -1.280871    -0.002453    -0.001364    -1.282235
	  126 R(7,Z)          =      0.348173     0.002048     0.000733     0.348905
	  127 R(8,X)          =      1.650236     0.006900     0.006180     1.656416
	  128 R(8,Y)          =     -1.332643    -0.003586    -0.005076    -1.337719
	  129 R(8,Z)          =      2.218213    -0.000466     0.000734     2.218947
	  130 R(9,X)          =     -0.388328     0.002954    -0.001620    -0.389948
	  131 R(9,Y)          =      0.220304    -0.005003    -0.001272     0.219031
	  132 R(9,Z)          =     -0.541415     0.005645     0.003558    -0.537857
	  133 R(10,X)         =      0.699427    -0.002665     0.000903     0.700329
	  134 R(10,Y)         =     -0.399612     0.003123     0.000769    -0.398842
	  135 R(10,Z)         =      0.224047     0.001582     0.002331     0.226378
	  136 R(11,X)         =     -1.482861    -0.001652    -0.004432    -1.487293
	  137 R(11,Y)         =      0.820146     0.000854     0.003535     0.823681
	  138 R(11,Z)         =      0.077020    -0.014023    -0.003828     0.073192
	  139 R(12,X)         =      2.821580    -0.000764     0.005213     2.826792
	  140 R(12,Y)         =     -1.607353     0.000384    -0.002462    -1.609815
	  141 R(12,Z)         =      1.638559     0.000278     0.000333     1.638892
	  142 R(13,X)         =     -1.546554    -0.018591    -0.015349    -1.561903
	  143 R(13,Y)         =      0.843415     0.018581     0.019221     0.862635
	  144 R(13,Z)         =      1.417471     0.000936    -0.002993     1.414478
	  145 R(14,X)         =     -1.344509     0.001148     0.000938    -1.343572
	  146 R(14,Y)         =      0.836410    -0.000773    -0.001494     0.834916
	  147 R(14,Z)         =     -3.746057     0.001193    -0.000170    -3.746227
	  148 R(15,X)         =     -3.259366    -0.000482    -0.001724    -3.261089
	  149 R(15,Y)         =      1.882852     0.000144     0.000837     1.883689
	  150 R(15,Z)         =     -2.574655    -0.000420    -0.003836    -2.578491
	  151 R(16,X)         =      0.454289    -0.006906    -0.005768     0.448520
	  152 R(16,Y)         =     -0.207921    -0.000120    -0.002943    -0.210864
	  153 R(16,Z)         =     -2.464834     0.000634     0.002609    -2.462225
	  154 R(17,X)         =     -3.330197     0.004418    -0.000370    -3.330567
	  155 R(17,Y)         =      1.866574    -0.001416     0.002182     1.868756
	  156 R(17,Z)         =     -0.095397     0.004689    -0.001125    -0.096522
	  157 R(18,X)         =      2.093417     0.005077     0.004205     2.097622
	  158 R(18,Y)         =     -0.453283     0.000243     0.003286    -0.449997
	  159 R(18,Z)         =     -1.423283     0.006038     0.004842    -1.418440
	  160 R(19,X)         =     -0.327383     0.007657     0.006436    -0.320948
	  161 R(19,Y)         =     -0.563320    -0.010325    -0.010808    -0.574128
	  162 R(19,Z)         =      2.120382     0.004061     0.002309     2.122691
	  163 R(20,X)         =      3.882078    -0.001226     0.001459     3.883537
	  164 R(20,Y)         =     -1.505586     0.001708     0.001246    -1.504340
	  165 R(20,Z)         =     -0.115617    -0.003503    -0.002965    -0.118582
	  166 R(21,X)         =      1.571304    -0.004569     0.001739     1.573043
	  167 R(21,Y)         =     -1.606080     0.000243    -0.003595    -1.609674
	  168 R(21,Z)         =      3.261474    -0.000878     0.000510     3.261984
	 ---------------------------------------------------------------------------
	Successfully symmetrized geometry.
	 Forces used to impose fixed constraints are not included.
	  Forces zeroed: 67 

  ==> Convergence Check <==

  Measures of convergence in internal coordinates in au.
  Criteria marked as inactive (o), active & met (*), and active & unmet ( ).
  --------------------------------------------------------------------------------------------- ~
   Step     Total Energy     Delta E     MAX Force     RMS Force      MAX Disp      RMS Disp    ~
  --------------------------------------------------------------------------------------------- ~
    Convergence Criteria    1.00e-06 *    3.00e-04 *             o    1.20e-03 *             o  ~
  --------------------------------------------------------------------------------------------- ~
      1    -577.72423533   -5.78e+02      4.94e-03      6.99e-04 o    6.39e-02      7.72e-03 o  ~
  ---------------------------------------------------------------------------------------------

	Writing optimization data to binary file.
	
Fatal Error: PSIO Error
Error occurred in file: /scratch/psilocaluser/conda-builds/psi4_1495011512596/work/psi4/src/psi4/libpsio/error.cc on line: 129
The most recent 5 function calls were:

psi::PsiException::PsiException(std::__cxx11::basic_string<char, std::char_traits<char>, std::allocator<char> >, char const*, int)
psi::psio_error(unsigned int, unsigned int)
psi::PSIO::write(unsigned int, char const*, char*, unsigned long, psi::psio_address, psi::psio_address*)
psi::PSIO::write_entry(unsigned int, char const*, char*, unsigned long)
psi::psio_write_entry(unsigned int, char const*, char*, unsigned long)
