
    -----------------------------------------------------------------------
          Psi4: An Open-Source Ab Initio Electronic Structure Package
                               Psi4 1.1 release

                         Git: Rev {HEAD} add49b9 


    R. M. Parrish, L. A. Burns, D. G. A. Smith, A. C. Simmonett,
    A. E. DePrince III, E. G. Hohenstein, U. Bozkaya, A. Yu. Sokolov,
    R. Di Remigio, R. M. Richard, J. F. Gonthier, A. M. James,
    H. R. McAlexander, A. Kumar, M. Saitow, X. Wang, B. P. Pritchard,
    P. Verma, H. F. Schaefer III, K. Patkowski, R. A. King, E. F. Valeev,
    F. A. Evangelista, J. M. Turney, T. D. Crawford, and C. D. Sherrill,
    J. Chem. Theory Comput. in press (2017).
    (doi: 10.1021/acs.jctc.7b00174)

    -----------------------------------------------------------------------


    Psi4 started on: Sunday, 12 November 2017 12:54PM

    Process ID:  16791
    PSIDATADIR: /cbio/jclab/home/chayas/anaconda/envs/py35/share/psi4
    Memory:     500.0 MiB
    Threads:    8
    
  ==> Input File <==

--------------------------------------------------------------------------

memory 5 Gb

molecule phepyrOH_neutral {
  symmetry C1
  0 1 
  C      1.885   -1.036   -0.112
  C      2.878   -1.652   2.002
  C      0.807   -0.463   0.561
  C      1.800   -1.079   2.676
  C      3.952   -2.489   -1.453
  C      5.207   -2.535   0.599
  C      5.052   -3.057   -2.075
  C      6.251   -3.101   -0.116
  C      2.921   -1.631   0.608
  C      4.040   -2.225   -0.090
  C      0.764   -0.484   1.955
  N      6.203   -3.372   -1.440
  O      -0.288   0.076   2.612
  H      1.904   -1.012   -1.199
  H      3.678   -2.112   2.578
  H      0.003   -0.001   -0.006
  H      1.772   -1.098   3.762
  H      3.058   -2.260   -2.024
  H      5.312   -2.344   1.662
  H      5.035   -3.281   -3.137
  H      7.182   -3.362   0.375
  H      -0.175   -0.018   3.571
  units Angstrom
}

dih_string = "1 9 10 5 345"
set optking fixed_dihedral = $dih_string

optimize('MP2/aug-cc-PVTZ')
--------------------------------------------------------------------------

  Memory set to   4.657 GiB by Python driver.
gradient() will perform analytic gradient computation.

*** tstart() called on gpu-1-17.local
*** at Sun Nov 12 12:54:49 2017

    SCF Algorithm Type (re)set to DF.

*** tstart() called on gpu-1-17.local
*** at Sun Nov 12 12:54:49 2017

   => Loading Basis Set <=

    Name: AUG-CC-PVTZ
    Role: ORBITAL
    Keyword: BASIS
    atoms 1-11  entry C          line   221 file /cbio/jclab/home/chayas/anaconda/envs/py35/share/psi4/basis/aug-cc-pvtz.gbs 
    atoms 12    entry N          line   267 file /cbio/jclab/home/chayas/anaconda/envs/py35/share/psi4/basis/aug-cc-pvtz.gbs 
    atoms 13    entry O          line   313 file /cbio/jclab/home/chayas/anaconda/envs/py35/share/psi4/basis/aug-cc-pvtz.gbs 
    atoms 14-22 entry H          line    34 file /cbio/jclab/home/chayas/anaconda/envs/py35/share/psi4/basis/aug-cc-pvtz.gbs 


         ---------------------------------------------------------
                                   SCF
            by Justin Turney, Rob Parrish, and Andy Simmonett
                              RHF Reference
                        8 Threads,   4768 MiB Core
         ---------------------------------------------------------

  ==> Geometry <==

    Molecular point group: c1
    Full point group: C1

    Geometry (in Angstrom), charge = 0, multiplicity = 1:

       Center              X                  Y                   Z               Mass       
    ------------   -----------------  -----------------  -----------------  -----------------
           C         -1.253655545318     0.709710615413    -0.590755650298    12.000000000000
           C         -0.260655545318     0.093710615413     1.523244349702    12.000000000000
           C         -2.331655545318     1.282710615413     0.082244349702    12.000000000000
           C         -1.338655545318     0.666710615413     2.197244349702    12.000000000000
           C          0.813344454682    -0.743289384587    -1.931755650298    12.000000000000
           C          2.068344454682    -0.789289384587     0.120244349702    12.000000000000
           C          1.913344454682    -1.311289384587    -2.553755650298    12.000000000000
           C          3.112344454682    -1.355289384587    -0.594755650298    12.000000000000
           C         -0.217655545318     0.114710615413     0.129244349702    12.000000000000
           C          0.901344454682    -0.479289384587    -0.568755650298    12.000000000000
           C         -2.374655545318     1.261710615413     1.476244349702    12.000000000000
           N          3.064344454682    -1.626289384587    -1.918755650298    14.003074004780
           O         -3.426655545318     1.821710615413     2.133244349702    15.994914619560
           H         -1.234655545318     0.733710615413    -1.677755650298     1.007825032070
           H          0.539344454682    -0.366289384587     2.099244349702     1.007825032070
           H         -3.135655545318     1.744710615413    -0.484755650298     1.007825032070
           H         -1.366655545318     0.647710615413     3.283244349702     1.007825032070
           H         -0.080655545318    -0.514289384587    -2.502755650298     1.007825032070
           H          2.173344454682    -0.598289384587     1.183244349702     1.007825032070
           H          1.896344454682    -1.535289384587    -3.615755650298     1.007825032070
           H          4.043344454682    -1.616289384587    -0.103755650298     1.007825032070
           H         -3.313655545318     1.727710615413     3.092244349702     1.007825032070

  Running in c1 symmetry.

  Rotational constants: A =      0.09693  B =      0.01364  C =      0.01201 [cm^-1]
  Rotational constants: A =   2905.90500  B =    408.97342  C =    360.03237 [MHz]
  Nuclear repulsion =  698.975478586797294

  Charge       = 0
  Multiplicity = 1
  Electrons    = 90
  Nalpha       = 45
  Nbeta        = 45

  ==> Algorithm <==

  SCF Algorithm Type is DF.
  DIIS enabled.
  MOM disabled.
  Fractional occupation disabled.
  Guess Type is SAD.
  Energy threshold   = 1.00e-10
  Density threshold  = 1.00e-10
  Integral threshold = 0.00e+00

  ==> Primary Basis <==

  Basis Set: AUG-CC-PVTZ
    Blend: AUG-CC-PVTZ
    Number of shells: 263
    Number of basis function: 805
    Number of Cartesian functions: 940
    Spherical Harmonics?: true
    Max angular momentum: 3

   => Loading Basis Set <=

    Name: (AUG-CC-PVTZ AUX)
    Role: JKFIT
    Keyword: DF_BASIS_SCF
    atoms 1-11  entry C          line   161 file /cbio/jclab/home/chayas/anaconda/envs/py35/share/psi4/basis/aug-cc-pvtz-jkfit.gbs 
    atoms 12    entry N          line   223 file /cbio/jclab/home/chayas/anaconda/envs/py35/share/psi4/basis/aug-cc-pvtz-jkfit.gbs 
    atoms 13    entry O          line   285 file /cbio/jclab/home/chayas/anaconda/envs/py35/share/psi4/basis/aug-cc-pvtz-jkfit.gbs 
    atoms 14-22 entry H          line    69 file /cbio/jclab/home/chayas/anaconda/envs/py35/share/psi4/basis/aug-cc-pvtz-jkfit.gbs 

  ==> Pre-Iterations <==

   -------------------------------------------------------
    Irrep   Nso     Nmo     Nalpha   Nbeta   Ndocc  Nsocc
   -------------------------------------------------------
     A        805     805       0       0       0       0
   -------------------------------------------------------
    Total     805     805      45      45      45       0
   -------------------------------------------------------

  ==> Integral Setup <==

  ==> DFJK: Density-Fitted J/K Matrices <==

    J tasked:                  Yes
    K tasked:                  Yes
    wK tasked:                  No
    OpenMP threads:              8
    Integrals threads:           8
    Memory (MB):              3576
    Algorithm:                Disk
    Integral Cache:           NONE
    Schwarz Cutoff:          1E-12
    Fitting Condition:       1E-12

   => Auxiliary Basis Set <=

  Basis Set: (AUG-CC-PVTZ AUX)
    Blend: AUG-CC-PVTZ-JKFIT
    Number of shells: 516
    Number of basis function: 1766
    Number of Cartesian functions: 2198
    Spherical Harmonics?: true
    Max angular momentum: 4

  Minimum eigenvalue in the overlap matrix is 5.1565343436E-07.
  Using Symmetric Orthogonalization.

  SCF Guess: Superposition of Atomic Densities via on-the-fly atomic UHF.

  ==> Iterations <==

                           Total Energy        Delta E     RMS |[F,P]|

   @DF-RHF iter   0:  -556.66172600346363   -5.56662e+02   2.26209e-02 
   @DF-RHF iter   1:  -550.88539410966916    5.77633e+00   2.31236e-03 
   @DF-RHF iter   2:  -551.21105249601533   -3.25658e-01   8.14448e-04 DIIS
   @DF-RHF iter   3:  -551.26346577440381   -5.24133e-02   4.84373e-04 DIIS
   @DF-RHF iter   4:  -551.27933958327390   -1.58738e-02   1.45314e-04 DIIS
   @DF-RHF iter   5:  -551.28119467174668   -1.85509e-03   5.42807e-05 DIIS
   @DF-RHF iter   6:  -551.28156113032344   -3.66459e-04   2.14441e-05 DIIS
   @DF-RHF iter   7:  -551.28160747469417   -4.63444e-05   7.10154e-06 DIIS
   @DF-RHF iter   8:  -551.28161116923809   -3.69454e-06   1.39639e-06 DIIS
   @DF-RHF iter   9:  -551.28161146775710   -2.98519e-07   7.37256e-07 DIIS
   @DF-RHF iter  10:  -551.28161153720521   -6.94481e-08   2.84267e-07 DIIS
   @DF-RHF iter  11:  -551.28161156131830   -2.41131e-08   1.01763e-07 DIIS
   @DF-RHF iter  12:  -551.28161156604961   -4.73131e-09   5.53383e-08 DIIS
   @DF-RHF iter  13:  -551.28161156662475   -5.75142e-10   2.38564e-08 DIIS
   @DF-RHF iter  14:  -551.28161156672195   -9.72022e-11   9.79575e-09 DIIS
   @DF-RHF iter  15:  -551.28161156675355   -3.16049e-11   4.26725e-09 DIIS
   @DF-RHF iter  16:  -551.28161156675367   -1.13687e-13   2.20851e-09 DIIS
   @DF-RHF iter  17:  -551.28161156676140   -7.73070e-12   1.19671e-09 DIIS
   @DF-RHF iter  18:  -551.28161156674810    1.33014e-11   5.22239e-10 DIIS
   @DF-RHF iter  19:  -551.28161156674400    4.09273e-12   2.09646e-10 DIIS
   @DF-RHF iter  20:  -551.28161156674003    3.97904e-12   1.01323e-10 DIIS
   @DF-RHF iter  21:  -551.28161156675662   -1.65983e-11   3.67065e-11 DIIS

  ==> Post-Iterations <==

    Orbital Energies (a.u.)
    -----------------------

    Doubly Occupied:                                                      

       1A    -20.602408     2A    -15.559996     3A    -11.317664  
       4A    -11.273720     5A    -11.273518     6A    -11.263382  
       7A    -11.256015     8A    -11.254703     9A    -11.246817  
      10A    -11.244504    11A    -11.243312    12A    -11.235015  
      13A    -11.234864    14A     -1.417514    15A     -1.247326  
      16A     -1.175005    17A     -1.104177    18A     -1.041030  
      19A     -1.027867    20A     -1.009599    21A     -0.883331  
      22A     -0.876197    23A     -0.836719    24A     -0.810491  
      25A     -0.751639    26A     -0.725536    27A     -0.685965  
      28A     -0.669690    29A     -0.646924    30A     -0.631132  
      31A     -0.617537    32A     -0.607940    33A     -0.603403  
      34A     -0.588693    35A     -0.573852    36A     -0.547064  
      37A     -0.532670    38A     -0.524207    39A     -0.500161  
      40A     -0.494501    41A     -0.416387    42A     -0.399445  
      43A     -0.357932    44A     -0.347371    45A     -0.302708  

    Virtual:                                                              

      46A      0.021020    47A      0.029292    48A      0.032018  
      49A      0.040174    50A      0.043131    51A      0.046651  
      52A      0.057822    53A      0.059467    54A      0.066033  
      55A      0.074453    56A      0.077313    57A      0.082906  
      58A      0.086054    59A      0.090554    60A      0.096056  
      61A      0.101351    62A      0.103182    63A      0.108958  
      64A      0.110095    65A      0.111501    66A      0.116160  
      67A      0.120238    68A      0.126236    69A      0.128321  
      70A      0.133238    71A      0.135333    72A      0.138835  
      73A      0.139435    74A      0.143766    75A      0.144651  
      76A      0.149167    77A      0.150622    78A      0.155845  
      79A      0.164095    80A      0.167288    81A      0.170598  
      82A      0.172184    83A      0.179590    84A      0.182958  
      85A      0.187383    86A      0.189961    87A      0.197157  
      88A      0.201435    89A      0.209016    90A      0.214951  
      91A      0.220186    92A      0.226712    93A      0.229731  
      94A      0.236395    95A      0.238648    96A      0.248457  
      97A      0.249616    98A      0.252053    99A      0.254295  
     100A      0.257673   101A      0.259489   102A      0.264521  
     103A      0.266538   104A      0.270534   105A      0.274959  
     106A      0.280214   107A      0.289152   108A      0.289867  
     109A      0.293011   110A      0.298139   111A      0.301498  
     112A      0.305723   113A      0.308204   114A      0.311470  
     115A      0.318302   116A      0.321250   117A      0.328526  
     118A      0.329192   119A      0.331821   120A      0.336784  
     121A      0.343086   122A      0.346113   123A      0.353275  
     124A      0.359362   125A      0.364182   126A      0.368744  
     127A      0.373531   128A      0.381407   129A      0.384516  
     130A      0.393890   131A      0.397114   132A      0.400297  
     133A      0.407211   134A      0.412971   135A      0.417488  
     136A      0.421173   137A      0.422828   138A      0.429733  
     139A      0.432691   140A      0.436077   141A      0.437153  
     142A      0.438820   143A      0.443698   144A      0.448031  
     145A      0.449074   146A      0.452073   147A      0.457967  
     148A      0.465854   149A      0.466885   150A      0.468808  
     151A      0.474241   152A      0.478806   153A      0.487126  
     154A      0.487905   155A      0.492214   156A      0.496441  
     157A      0.499106   158A      0.500807   159A      0.503317  
     160A      0.505330   161A      0.509095   162A      0.510450  
     163A      0.513286   164A      0.517152   165A      0.519421  
     166A      0.522737   167A      0.525534   168A      0.531217  
     169A      0.539164   170A      0.543577   171A      0.550425  
     172A      0.552061   173A      0.556668   174A      0.564887  
     175A      0.568546   176A      0.571103   177A      0.572923  
     178A      0.580624   179A      0.588998   180A      0.594263  
     181A      0.596388   182A      0.603282   183A      0.609864  
     184A      0.614766   185A      0.623779   186A      0.630098  
     187A      0.634643   188A      0.642946   189A      0.648239  
     190A      0.655889   191A      0.657870   192A      0.658888  
     193A      0.678918   194A      0.686332   195A      0.690231  
     196A      0.695808   197A      0.698755   198A      0.700387  
     199A      0.703770   200A      0.709314   201A      0.710966  
     202A      0.716363   203A      0.721894   204A      0.727682  
     205A      0.737386   206A      0.743412   207A      0.746948  
     208A      0.751037   209A      0.755704   210A      0.768920  
     211A      0.773348   212A      0.777480   213A      0.782315  
     214A      0.796861   215A      0.801582   216A      0.807222  
     217A      0.809560   218A      0.811437   219A      0.821616  
     220A      0.825521   221A      0.832712   222A      0.835926  
     223A      0.840451   224A      0.844742   225A      0.848816  
     226A      0.857479   227A      0.860790   228A      0.871393  
     229A      0.874868   230A      0.881663   231A      0.882943  
     232A      0.886320   233A      0.891007   234A      0.891508  
     235A      0.898387   236A      0.899925   237A      0.905605  
     238A      0.915739   239A      0.916480   240A      0.922838  
     241A      0.928104   242A      0.935564   243A      0.937173  
     244A      0.941216   245A      0.944514   246A      0.945804  
     247A      0.954561   248A      0.960287   249A      0.966337  
     250A      0.974157   251A      0.976635   252A      0.979044  
     253A      0.984771   254A      0.988434   255A      0.992128  
     256A      0.994669   257A      0.996387   258A      1.000054  
     259A      1.008066   260A      1.015454   261A      1.019979  
     262A      1.024355   263A      1.027609   264A      1.028175  
     265A      1.031056   266A      1.038753   267A      1.040669  
     268A      1.042694   269A      1.046662   270A      1.056349  
     271A      1.058948   272A      1.066003   273A      1.069880  
     274A      1.072002   275A      1.080548   276A      1.082513  
     277A      1.086552   278A      1.096088   279A      1.099220  
     280A      1.100224   281A      1.104411   282A      1.112396  
     283A      1.120854   284A      1.127422   285A      1.128546  
     286A      1.137053   287A      1.141295   288A      1.144602  
     289A      1.149751   290A      1.155346   291A      1.160622  
     292A      1.165454   293A      1.169307   294A      1.175667  
     295A      1.178303   296A      1.182434   297A      1.185135  
     298A      1.192640   299A      1.193691   300A      1.203117  
     301A      1.208652   302A      1.211364   303A      1.216035  
     304A      1.217849   305A      1.225278   306A      1.230297  
     307A      1.234825   308A      1.243011   309A      1.249159  
     310A      1.255031   311A      1.256926   312A      1.265691  
     313A      1.278217   314A      1.281695   315A      1.286672  
     316A      1.291427   317A      1.301842   318A      1.305648  
     319A      1.309147   320A      1.313892   321A      1.318046  
     322A      1.327679   323A      1.332125   324A      1.334016  
     325A      1.345761   326A      1.353057   327A      1.367959  
     328A      1.381107   329A      1.385775   330A      1.388366  
     331A      1.393018   332A      1.400230   333A      1.408198  
     334A      1.414180   335A      1.416774   336A      1.435015  
     337A      1.443667   338A      1.459978   339A      1.462955  
     340A      1.464581   341A      1.471957   342A      1.480799  
     343A      1.485503   344A      1.497342   345A      1.499310  
     346A      1.504141   347A      1.507981   348A      1.519778  
     349A      1.534236   350A      1.541178   351A      1.547783  
     352A      1.563391   353A      1.564543   354A      1.586234  
     355A      1.589395   356A      1.595662   357A      1.605740  
     358A      1.619150   359A      1.620340   360A      1.626368  
     361A      1.639290   362A      1.644851   363A      1.654587  
     364A      1.663863   365A      1.668158   366A      1.674517  
     367A      1.682588   368A      1.688466   369A      1.704942  
     370A      1.705955   371A      1.711814   372A      1.715642  
     373A      1.725616   374A      1.734624   375A      1.736668  
     376A      1.739892   377A      1.757879   378A      1.758885  
     379A      1.770755   380A      1.780085   381A      1.789193  
     382A      1.805062   383A      1.806776   384A      1.811806  
     385A      1.819263   386A      1.827178   387A      1.829683  
     388A      1.844853   389A      1.847113   390A      1.853044  
     391A      1.855060   392A      1.869784   393A      1.876476  
     394A      1.884437   395A      1.888012   396A      1.895860  
     397A      1.910346   398A      1.925090   399A      1.932577  
     400A      1.941371   401A      1.948604   402A      1.954429  
     403A      1.959321   404A      1.969541   405A      1.975476  
     406A      1.978153   407A      1.993417   408A      1.996783  
     409A      2.004050   410A      2.004857   411A      2.012420  
     412A      2.028496   413A      2.033720   414A      2.037630  
     415A      2.043847   416A      2.048290   417A      2.051680  
     418A      2.054761   419A      2.062063   420A      2.065434  
     421A      2.079196   422A      2.101613   423A      2.101844  
     424A      2.108201   425A      2.114552   426A      2.120048  
     427A      2.126452   428A      2.146655   429A      2.149431  
     430A      2.153225   431A      2.160208   432A      2.176116  
     433A      2.177647   434A      2.185944   435A      2.193065  
     436A      2.200730   437A      2.210336   438A      2.217007  
     439A      2.220943   440A      2.227877   441A      2.236251  
     442A      2.247603   443A      2.261712   444A      2.269994  
     445A      2.273406   446A      2.279953   447A      2.291878  
     448A      2.315501   449A      2.317088   450A      2.327033  
     451A      2.328427   452A      2.344987   453A      2.362087  
     454A      2.367959   455A      2.384881   456A      2.389840  
     457A      2.393262   458A      2.401902   459A      2.419925  
     460A      2.430111   461A      2.433437   462A      2.448936  
     463A      2.456714   464A      2.469761   465A      2.477162  
     466A      2.481779   467A      2.497951   468A      2.504742  
     469A      2.525969   470A      2.537911   471A      2.543705  
     472A      2.557475   473A      2.569611   474A      2.575846  
     475A      2.584723   476A      2.594001   477A      2.609975  
     478A      2.621204   479A      2.635028   480A      2.653281  
     481A      2.658874   482A      2.693928   483A      2.702832  
     484A      2.726941   485A      2.734721   486A      2.766031  
     487A      2.779232   488A      2.780827   489A      2.802683  
     490A      2.829393   491A      2.838436   492A      2.848563  
     493A      2.854739   494A      2.860123   495A      2.874687  
     496A      2.889753   497A      2.905275   498A      2.909187  
     499A      2.955379   500A      2.970439   501A      3.009941  
     502A      3.023151   503A      3.041655   504A      3.074344  
     505A      3.075497   506A      3.095245   507A      3.110511  
     508A      3.132156   509A      3.150977   510A      3.177860  
     511A      3.205242   512A      3.220241   513A      3.227847  
     514A      3.240294   515A      3.256324   516A      3.264391  
     517A      3.274542   518A      3.299513   519A      3.306807  
     520A      3.308697   521A      3.326987   522A      3.343856  
     523A      3.353020   524A      3.363070   525A      3.369802  
     526A      3.372028   527A      3.383971   528A      3.385503  
     529A      3.399044   530A      3.417897   531A      3.431827  
     532A      3.439352   533A      3.440246   534A      3.450847  
     535A      3.453628   536A      3.471063   537A      3.480003  
     538A      3.493289   539A      3.507442   540A      3.520277  
     541A      3.528512   542A      3.530847   543A      3.537542  
     544A      3.540878   545A      3.553435   546A      3.564920  
     547A      3.570453   548A      3.572677   549A      3.585885  
     550A      3.596744   551A      3.601282   552A      3.616060  
     553A      3.631487   554A      3.645794   555A      3.649453  
     556A      3.657833   557A      3.664910   558A      3.665205  
     559A      3.676555   560A      3.686681   561A      3.692014  
     562A      3.704188   563A      3.721272   564A      3.737593  
     565A      3.753199   566A      3.764975   567A      3.770607  
     568A      3.780256   569A      3.788303   570A      3.797332  
     571A      3.804887   572A      3.809122   573A      3.828095  
     574A      3.830468   575A      3.851810   576A      3.857015  
     577A      3.870859   578A      3.874551   579A      3.877942  
     580A      3.888452   581A      3.889814   582A      3.902492  
     583A      3.917136   584A      3.920382   585A      3.927887  
     586A      3.931742   587A      3.949232   588A      3.953120  
     589A      3.961357   590A      3.963513   591A      3.968620  
     592A      3.976635   593A      3.989658   594A      3.999498  
     595A      4.005969   596A      4.007587   597A      4.024182  
     598A      4.030997   599A      4.036692   600A      4.039405  
     601A      4.055600   602A      4.070323   603A      4.075683  
     604A      4.100716   605A      4.105068   606A      4.118691  
     607A      4.125957   608A      4.140008   609A      4.144165  
     610A      4.155121   611A      4.162841   612A      4.172921  
     613A      4.178062   614A      4.184342   615A      4.197098  
     616A      4.204150   617A      4.218267   618A      4.222001  
     619A      4.224922   620A      4.230224   621A      4.242996  
     622A      4.246099   623A      4.265845   624A      4.271569  
     625A      4.284655   626A      4.299123   627A      4.311131  
     628A      4.313178   629A      4.320051   630A      4.324711  
     631A      4.341895   632A      4.344531   633A      4.349754  
     634A      4.358352   635A      4.375994   636A      4.386450  
     637A      4.393335   638A      4.401339   639A      4.412992  
     640A      4.420232   641A      4.429053   642A      4.440863  
     643A      4.448843   644A      4.457760   645A      4.463173  
     646A      4.468657   647A      4.480078   648A      4.484849  
     649A      4.490576   650A      4.498584   651A      4.517347  
     652A      4.522475   653A      4.540522   654A      4.541669  
     655A      4.557828   656A      4.568455   657A      4.575231  
     658A      4.596542   659A      4.603776   660A      4.621465  
     661A      4.635093   662A      4.641725   663A      4.656209  
     664A      4.665951   665A      4.675987   666A      4.680060  
     667A      4.715379   668A      4.718983   669A      4.736953  
     670A      4.740779   671A      4.765868   672A      4.778331  
     673A      4.798734   674A      4.815519   675A      4.819714  
     676A      4.843646   677A      4.854530   678A      4.874918  
     679A      4.882549   680A      4.884027   681A      4.912503  
     682A      4.925691   683A      4.930876   684A      4.940170  
     685A      4.955404   686A      4.967522   687A      4.983400  
     688A      4.987607   689A      5.017295   690A      5.024083  
     691A      5.033869   692A      5.038326   693A      5.040275  
     694A      5.049149   695A      5.086551   696A      5.098406  
     697A      5.101959   698A      5.108818   699A      5.115704  
     700A      5.139950   701A      5.150817   702A      5.151111  
     703A      5.156038   704A      5.167843   705A      5.171710  
     706A      5.173205   707A      5.195182   708A      5.206137  
     709A      5.229117   710A      5.241008   711A      5.262318  
     712A      5.283070   713A      5.298554   714A      5.299949  
     715A      5.320569   716A      5.341333   717A      5.346550  
     718A      5.357832   719A      5.382909   720A      5.408815  
     721A      5.431340   722A      5.439451   723A      5.446269  
     724A      5.463092   725A      5.469038   726A      5.497039  
     727A      5.516402   728A      5.539872   729A      5.555095  
     730A      5.555954   731A      5.563858   732A      5.614823  
     733A      5.627059   734A      5.694211   735A      5.703529  
     736A      5.722839   737A      5.744044   738A      5.749830  
     739A      5.775815   740A      5.800285   741A      5.809891  
     742A      5.823325   743A      5.831453   744A      5.847823  
     745A      5.897091   746A      5.911682   747A      5.914487  
     748A      5.958457   749A      5.991295   750A      6.086276  
     751A      6.100389   752A      6.129941   753A      6.180565  
     754A      6.184935   755A      6.244199   756A      6.274623  
     757A      6.295516   758A      6.351400   759A      6.394307  
     760A      6.414908   761A      6.460362   762A      6.470945  
     763A      6.491604   764A      6.547154   765A      6.583955  
     766A      6.624509   767A      6.658458   768A      6.721462  
     769A      6.736449   770A      6.746704   771A      6.752223  
     772A      6.891100   773A      6.895465   774A      6.912355  
     775A      6.918015   776A      6.960861   777A      6.962944  
     778A      7.001105   779A      7.059362   780A      7.101252  
     781A      7.131870   782A      7.228530   783A      7.257187  
     784A      7.420700   785A      7.425062   786A      7.460033  
     787A      7.680804   788A      7.716604   789A      7.757010  
     790A      8.013349   791A      8.391145   792A      8.639536  
     793A     15.604021   794A     16.411603   795A     16.712773  
     796A     16.964390   797A     17.257585   798A     18.566222  
     799A     18.888854   800A     19.535408   801A     19.717524  
     802A     20.350153   803A     20.431915   804A     20.779528  
     805A     21.507166  

    Final Occupation by Irrep:
              A 
    DOCC [    45 ]

  Energy converged.

  @DF-RHF Final Energy:  -551.28161156675662

   => Energetics <=

    Nuclear Repulsion Energy =            698.9754785867972942
    One-Electron Energy =               -2134.5943213890104744
    Two-Electron Energy =                 884.3372312354566702
    DFT Exchange-Correlation Energy =       0.0000000000000000
    Empirical Dispersion Energy =           0.0000000000000000
    PCM Polarization Energy =               0.0000000000000000
    EFP Energy =                            0.0000000000000000
    Total Energy =                       -551.2816115667566237



Properties will be evaluated at   0.000000,   0.000000,   0.000000 Bohr

Properties computed using the SCF density matrix

  Nuclear Dipole Moment: (a.u.)
     X:    -0.4743      Y:     0.2229      Z:     1.2094

  Electronic Dipole Moment: (a.u.)
     X:    -0.2224      Y:     0.1272      Z:    -0.1825

  Dipole Moment: (a.u.)
     X:    -0.6967      Y:     0.3501      Z:     1.0269     Total:     1.2894

  Dipole Moment: (Debye)
     X:    -1.7709      Y:     0.8898      Z:     2.6102     Total:     3.2773


*** tstop() called on gpu-1-17.local at Sun Nov 12 13:01:55 2017
Module time:
	user time   =    1089.16 seconds =      18.15 minutes
	system time =      52.81 seconds =       0.88 minutes
	total time  =        426 seconds =       7.10 minutes
Total time:
	user time   =    1089.17 seconds =      18.15 minutes
	system time =      52.81 seconds =       0.88 minutes
	total time  =        426 seconds =       7.10 minutes

  //>>>>>>>>>>>>>>>>>>>>>>>>>>>>>>>>>>>//
  //               DFMP2               //
  //<<<<<<<<<<<<<<<<<<<<<<<<<<<<<<<<<<<//

   => Loading Basis Set <=

    Name: (AUG-CC-PVTZ AUX)
    Role: RIFIT
    Keyword: DF_BASIS_MP2
    atoms 1-11  entry C          line   147 file /cbio/jclab/home/chayas/anaconda/envs/py35/share/psi4/basis/aug-cc-pvtz-ri.gbs 
    atoms 12    entry N          line   205 file /cbio/jclab/home/chayas/anaconda/envs/py35/share/psi4/basis/aug-cc-pvtz-ri.gbs 
    atoms 13    entry O          line   263 file /cbio/jclab/home/chayas/anaconda/envs/py35/share/psi4/basis/aug-cc-pvtz-ri.gbs 
    atoms 14-22 entry H          line    29 file /cbio/jclab/home/chayas/anaconda/envs/py35/share/psi4/basis/aug-cc-pvtz-ri.gbs 

	 --------------------------------------------------------
	                          DF-MP2                         
	      2nd-Order Density-Fitted Moller-Plesset Theory     
	              RMP2 Wavefunction,   8 Threads             
	                                                         
	        Rob Parrish, Justin Turney, Andy Simmonett,      
	           Ed Hohenstein, and C. David Sherrill          
	 --------------------------------------------------------

   => Auxiliary Basis Set <=

  Basis Set: (AUG-CC-PVTZ AUX)
    Blend: AUG-CC-PVTZ-RI
    Number of shells: 490
    Number of basis function: 1792
    Number of Cartesian functions: 2263
    Spherical Harmonics?: true
    Max angular momentum: 4

	 --------------------------------------------------------
	                 NBF =   805, NAUX =  1792
	 --------------------------------------------------------
	   CLASS    FOCC     OCC    AOCC    AVIR     VIR    FVIR
	   PAIRS       0      45      45     760     760       0
	 --------------------------------------------------------


         ------------------------------------------------------------
                                     CPHF                           
                                  Rob Parrish                       
         ------------------------------------------------------------

  ==> Geometry <==

    Molecular point group: c1
    Full point group: C1

    Geometry (in Angstrom), charge = 0, multiplicity = 1:

       Center              X                  Y                   Z               Mass       
    ------------   -----------------  -----------------  -----------------  -----------------
           C         -1.253655545318     0.709710615413    -0.590755650298    12.000000000000
           C         -0.260655545318     0.093710615413     1.523244349702    12.000000000000
           C         -2.331655545318     1.282710615413     0.082244349702    12.000000000000
           C         -1.338655545318     0.666710615413     2.197244349702    12.000000000000
           C          0.813344454682    -0.743289384587    -1.931755650298    12.000000000000
           C          2.068344454682    -0.789289384587     0.120244349702    12.000000000000
           C          1.913344454682    -1.311289384587    -2.553755650298    12.000000000000
           C          3.112344454682    -1.355289384587    -0.594755650298    12.000000000000
           C         -0.217655545318     0.114710615413     0.129244349702    12.000000000000
           C          0.901344454682    -0.479289384587    -0.568755650298    12.000000000000
           C         -2.374655545318     1.261710615413     1.476244349702    12.000000000000
           N          3.064344454682    -1.626289384587    -1.918755650298    14.003074004780
           O         -3.426655545318     1.821710615413     2.133244349702    15.994914619560
           H         -1.234655545318     0.733710615413    -1.677755650298     1.007825032070
           H          0.539344454682    -0.366289384587     2.099244349702     1.007825032070
           H         -3.135655545318     1.744710615413    -0.484755650298     1.007825032070
           H         -1.366655545318     0.647710615413     3.283244349702     1.007825032070
           H         -0.080655545318    -0.514289384587    -2.502755650298     1.007825032070
           H          2.173344454682    -0.598289384587     1.183244349702     1.007825032070
           H          1.896344454682    -1.535289384587    -3.615755650298     1.007825032070
           H          4.043344454682    -1.616289384587    -0.103755650298     1.007825032070
           H         -3.313655545318     1.727710615413     3.092244349702     1.007825032070

  Nuclear repulsion =  698.975478586797408
  Reference energy  = -551.281611566756624

  ==> Basis Set <==

  Basis Set: AUG-CC-PVTZ
    Blend: AUG-CC-PVTZ
    Number of shells: 263
    Number of basis function: 805
    Number of Cartesian functions: 940
    Spherical Harmonics?: true
    Max angular momentum: 3

  ==> CGRSolver (by Rob Parrish) <==

   Number of roots    =         1
   Preconditioning    =    JACOBI
   Convergence cutoff =     1E-06
   Maximum iterations =       100

  ==> CPHFRHamiltonian (by Rob Parrish) <== 

  ==> DFJK: Density-Fitted J/K Matrices <==

    J tasked:                  Yes
    K tasked:                  Yes
    wK tasked:                  No
    OpenMP threads:              8
    Integrals threads:           8
    Memory (MB):              3576
    Algorithm:                Disk
    Integral Cache:           NONE
    Schwarz Cutoff:          1E-12
    Fitting Condition:       1E-12

   => Auxiliary Basis Set <=

  Basis Set: (AUG-CC-PVTZ AUX)
    Blend: AUG-CC-PVTZ-JKFIT
    Number of shells: 516
    Number of basis function: 1766
    Number of Cartesian functions: 2198
    Spherical Harmonics?: true
    Max angular momentum: 4

  ==> CPHF Iterations <==

  => Iterations <=

             Iter  Converged  Remaining    Residual
  CGR           1          0          1   9.352E-02
  CGR           2          0          1   4.011E-02
  CGR           3          0          1   2.820E-02
  CGR           4          0          1   1.100E-02
  CGR           5          0          1   4.416E-03
  CGR           6          0          1   1.887E-03
  CGR           7          0          1   5.380E-04
  CGR           8          0          1   1.789E-04
  CGR           9          0          1   9.042E-05
  CGR          10          0          1   4.085E-05
  CGR          11          0          1   1.498E-05
  CGR          12          0          1   5.215E-06
  CGR          13          0          1   1.536E-06
  CGR          14          1          0   4.959E-07

    CGRSolver converged.

  ==> DFCorrGrad: Density-Fitted Correlated Gradients <==

    OpenMP threads:              8
    Integrals threads:           8
    Memory (MB):              3576
    Schwarz Cutoff:          0E+00
    Fitting Condition:       1E-12

   => Auxiliary Basis Set <=

  Basis Set: (AUG-CC-PVTZ AUX)
    Blend: AUG-CC-PVTZ-JKFIT
    Number of shells: 516
    Number of basis function: 1766
    Number of Cartesian functions: 2198
    Spherical Harmonics?: true
    Max angular momentum: 4

	-----------------------------------------------------------
	 ==================> DF-MP2 Energies <==================== 
	-----------------------------------------------------------
	 Reference Energy          =    -551.2816115667566237 [Eh]
	 Singles Energy            =      -0.0000000000000001 [Eh]
	 Same-Spin Energy          =      -0.6056739082400557 [Eh]
	 Opposite-Spin Energy      =      -1.8321616543614232 [Eh]
	 Correlation Energy        =      -2.4378355626014789 [Eh]
	 Total Energy              =    -553.7194471293580591 [Eh]
	-----------------------------------------------------------
	 ================> DF-SCS-MP2 Energies <================== 
	-----------------------------------------------------------
	 SCS Same-Spin Scale       =       0.3333333333333333 [-]
	 SCS Opposite-Spin Scale   =       1.2000000000000000 [-]
	 SCS Same-Spin Energy      =      -0.2018913027466852 [Eh]
	 SCS Opposite-Spin Energy  =      -2.1985939852337077 [Eh]
	 SCS Correlation Energy    =      -2.4004852879803931 [Eh]
	 SCS Total Energy          =    -553.6820968547369830 [Eh]
	-----------------------------------------------------------


  -Total Gradient:
     Atom            X                  Y                   Z
    ------   -----------------  -----------------  -----------------
       1        0.009873568599    -0.003957577300    -0.010676448092
       2        0.010260564231    -0.006652927740    -0.005605985519
       3        0.001287895881    -0.000542575681     0.003055762872
       4       -0.007478326195     0.003726405345     0.007276969350
       5       -0.011623186586     0.003682418337     0.001266998578
       6       -0.006800496967     0.005375717664     0.009759799698
       7       -0.011574644170     0.004116005605    -0.001046176101
       8       -0.002769668509     0.004329057599     0.011163654590
       9        0.002603055043    -0.001439448334    -0.002046787433
      10        0.004342553980    -0.001898263908    -0.002262916721
      11       -0.006541867343     0.003844154950    -0.008508657957
      12        0.012390282684    -0.006923952035    -0.008303801446
      13        0.005549667078    -0.003013672553     0.000741331507
      14        0.000778873034    -0.001972988102    -0.008414610878
      15        0.007441433259    -0.002344470439     0.003615215695
      16       -0.002782318491     0.001449354970    -0.005230984506
      17        0.000996626689    -0.000489542259     0.003677792024
      18       -0.005828267638     0.003452021457    -0.002907927833
      19       -0.001216844180     0.000323599964     0.007186154055
      20        0.000684596715    -0.000678502790    -0.002865715770
      21        0.002051489904    -0.000961986749     0.000510139944
      22       -0.001644987020     0.000577172000     0.009616193952


*** tstop() called on gpu-1-17.local at Sun Nov 12 13:33:56 2017
Module time:
	user time   =    5236.47 seconds =      87.27 minutes
	system time =     112.90 seconds =       1.88 minutes
	total time  =       2347 seconds =      39.12 minutes
Total time:
	user time   =    5236.48 seconds =      87.27 minutes
	system time =     112.90 seconds =       1.88 minutes
	total time  =       2347 seconds =      39.12 minutes

			-----------------------------------------
			 OPTKING 2.0: for geometry optimizations 
			  - R.A. King,  Bethel University        
			-----------------------------------------

	Internal coordinates to be generated automatically.
	Detected frag 1 with atoms:  1 2 3 4 5 6 7 8 9 10 11 12 13 14 15 16 17 18 19 20
	 21 22
	---Fragment 1 Bond Connectivity---
	 1 : 3 9 14
	 2 : 4 9 15
	 3 : 1 11 16
	 4 : 2 11 17
	 5 : 7 10 18
	 6 : 8 10 19
	 7 : 5 12 20
	 8 : 6 12 21
	 9 : 1 2 10
	 10 : 5 6 9
	 11 : 3 4 13
	 12 : 7 8
	 13 : 11 22
	 14 : 1
	 15 : 2
	 16 : 3
	 17 : 4
	 18 : 5
	 19 : 6
	 20 : 7
	 21 : 8
	 22 : 13

	Assuming in current code that numbering for constraints corresponds to unified fragment.
	Fixed dihedral atom list: 
	     1     9    10     5
	---Fragment 1 Geometry and Gradient---
	 C          -2.3690656456        1.3411586967       -1.1163663905
	 C          -0.4925675957        0.1770873989        2.8785146544
	 C          -4.4061904169        2.4239717709        0.1554192969
	 C          -2.5296923669        1.2599004730        4.1521900680
	 C           1.5369982710       -1.4046133744       -3.6504891347
	 C           3.9086045678       -1.4915407765        0.2272288900
	 C           3.6156970172       -2.4779778178       -4.8258987894
	 C           5.8814786506       -2.5611257677       -1.1239252951
	 C          -0.4113093720        0.2167716477        0.2442364252
	 C           1.7032941707       -0.9057256753       -1.0747924156
	 C          -4.4874486406        2.3842875221        2.7896975262
	 N           5.7907717962       -3.0732415497       -3.6259226950
	 O          -6.4754405324        3.4425341565        4.0312475955
	 H          -2.3331608491        1.3865121239       -3.1704986970
	 H           1.0192133106       -0.6921866223        3.9669969069
	 H          -5.9255302277        3.2970252443       -0.9160554204
	 H          -2.5826046986        1.2239956765        6.2044326483
	 H          -0.1524168918       -0.9718660899       -4.7295227566
	 H           4.1070258118       -1.1306030851        2.2360077692
	 H           3.5835716730       -2.9012764716       -6.8327879425
	 H           7.6408136803       -3.0543442884       -0.1960697638
	 H          -6.2619014794        3.2648999000        5.8434949569
	             0.0098735686       -0.0039575773       -0.0106764481
	             0.0102605642       -0.0066529277       -0.0056059855
	             0.0012878959       -0.0005425757        0.0030557629
	            -0.0074783262        0.0037264053        0.0072769693
	            -0.0116231866        0.0036824183        0.0012669986
	            -0.0068004970        0.0053757177        0.0097597997
	            -0.0115746442        0.0041160056       -0.0010461761
	            -0.0027696685        0.0043290576        0.0111636546
	             0.0026030550       -0.0014394483       -0.0020467874
	             0.0043425540       -0.0018982639       -0.0022629167
	            -0.0065418673        0.0038441550       -0.0085086580
	             0.0123902827       -0.0069239520       -0.0083038014
	             0.0055496671       -0.0030136726        0.0007413315
	             0.0007788730       -0.0019729881       -0.0084146109
	             0.0074414333       -0.0023444704        0.0036152157
	            -0.0027823185        0.0014493550       -0.0052309845
	             0.0009966267       -0.0004895423        0.0036777920
	            -0.0058282676        0.0034520215       -0.0029079278
	            -0.0012168442        0.0003236000        0.0071861541
	             0.0006845967       -0.0006785028       -0.0028657158
	             0.0020514899       -0.0009619867        0.0005101399
	            -0.0016449870        0.0005771720        0.0096161940

	Previous optimization step data not found.  Starting new optimization.

	---Fragment 1 Intrafragment Coordinates---
	 - Coordinate -           - BOHR/RAD -       - ANG/DEG -
	 R(1,3)           =         2.634350	       1.394038
	 R(1,9)           =         2.635962	       1.394891
	 R(1,14)          =         2.054947	       1.087431
	 R(2,4)           =         2.635263	       1.394521
	 R(2,9)           =         2.635830	       1.394821
	 R(2,15)          =         2.055702	       1.087831
	 R(3,11)          =         2.635830	       1.394821
	 R(3,16)          =         2.053941	       1.086899
	 R(4,11)          =         2.636938	       1.395407
	 R(4,17)          =         2.053239	       1.086527
	 R(5,7)           =         2.618146	       1.385463
	 R(5,10)          =         2.628832	       1.391118
	 R(5,18)          =         2.050782	       1.085227
	 R(6,8)           =         2.619516	       1.386188
	 R(6,10)          =         2.627134	       1.390219
	 R(6,19)          =         2.050571	       1.085115
	 R(7,12)          =         2.554453	       1.351758
	 R(7,20)          =         2.051297	       1.085499
	 R(8,12)          =         2.555481	       1.352302
	 R(8,21)          =         2.049254	       1.084418
	 R(9,10)          =         2.733384	       1.446444
	 R(11,13)         =         2.571662	       1.360865
	 R(13,22)         =         1.833410	       0.970199
	 B(1,3,11)        =         2.094553	     120.009056
	 B(1,3,16)        =         2.088505	     119.662516
	 B(1,9,2)         =         2.093692	     119.959722
	 B(1,9,10)        =         2.095161	     120.043881
	 B(2,4,11)        =         2.093699	     119.960108
	 B(2,4,17)        =         2.089577	     119.723926
	 B(2,9,10)        =         2.094332	     119.996376
	 B(3,1,9)         =         2.094940	     120.031219
	 B(3,1,14)        =         2.079469	     119.144799
	 B(3,11,4)        =         2.094306	     119.994870
	 B(3,11,13)       =         2.094549	     120.008801
	 B(4,2,9)         =         2.095181	     120.045019
	 B(4,2,15)        =         2.078675	     119.099297
	 B(4,11,13)       =         2.094331	     119.996326
	 B(5,7,12)        =         2.166004	     124.102913
	 B(5,7,20)        =         2.107603	     120.756757
	 B(5,10,6)        =         2.090211	     119.760257
	 B(5,10,9)        =         2.096480	     120.119450
	 B(6,8,12)        =         2.165304	     124.062766
	 B(6,8,21)        =         2.107520	     120.752013
	 B(6,10,9)        =         2.096494	     120.120278
	 B(7,5,10)        =         2.057201	     117.868956
	 B(7,5,18)        =         2.099424	     120.288147
	 B(7,12,8)        =         2.030242	     116.324306
	 B(8,6,10)        =         2.057404	     117.880588
	 B(8,6,19)        =         2.099349	     120.283848
	 B(9,1,14)        =         2.108776	     120.823969
	 B(9,2,15)        =         2.109330	     120.855683
	 B(10,5,18)       =         2.126555	     121.842653
	 B(10,6,19)       =         2.126430	     121.835480
	 B(11,3,16)       =         2.100127	     120.328425
	 B(11,4,17)       =         2.099910	     120.315955
	 B(11,13,22)      =         1.925489	     110.322421
	 B(12,7,20)       =         2.009578	     115.140330
	 B(12,8,21)       =         2.010357	     115.184984
	 D(1,3,11,4)      =        -0.000325	      -0.018609
	 D(1,3,11,13)     =         3.140978	     179.964785
	 D(1,9,2,4)       =         0.000325	       0.018608
	 D(1,9,2,15)      =        -3.141497	    -179.994534
	 D(1,9,10,5)      =        -0.263069	     -15.072747
	 D(1,9,10,6)      =         2.879301	     164.971768
	 D(2,4,11,3)      =         0.000301	       0.017261
	 D(2,4,11,13)     =        -3.141002	    -179.966135
	 D(2,9,1,3)       =        -0.000348	      -0.019945
	 D(2,9,1,14)      =        -3.141221	    -179.978731
	 D(2,9,10,5)      =         2.879440	     164.979756
	 D(2,9,10,6)      =        -0.261376	     -14.975729
	 D(3,1,9,10)      =        -3.141025	    -179.967461
	 D(3,11,4,17)     =         3.141223	     179.978848
	 D(3,11,13,22)    =         3.140828	     179.956172
	 D(4,2,9,10)      =         3.141002	     179.966149
	 D(4,11,3,16)     =         3.141593	     180.000000
	 D(4,11,13,22)    =        -0.001055	      -0.060434
	 D(5,7,12,8)      =        -0.001704	      -0.097631
	 D(5,10,6,8)      =         0.002350	       0.134669
	 D(5,10,6,19)     =        -3.141073	    -179.970253
	 D(6,8,12,7)      =         0.001920	       0.110006
	 D(6,10,5,7)      =        -0.002156	      -0.123542
	 D(6,10,5,18)     =        -3.140620	    -179.944259
	 D(7,5,10,9)      =         3.140211	     179.920812
	 D(7,12,8,21)     =         3.140428	     179.933290
	 D(8,6,10,9)      =        -3.140016	    -179.909686
	 D(8,12,7,20)     =         3.139872	     179.901402
	 D(9,1,3,11)      =         0.000348	       0.019955
	 D(9,1,3,16)      =        -3.141571	    -179.998735
	 D(9,2,4,11)      =        -0.000301	      -0.017270
	 D(9,2,4,17)      =        -3.141228	    -179.979086
	 D(9,10,5,18)     =         0.001747	       0.100095
	 D(9,10,6,19)     =        -0.000255	      -0.014608
	 D(10,5,7,12)     =         0.001879	       0.107641
	 D(10,5,7,20)     =        -3.139696	    -179.891340
	 D(10,6,8,12)     =        -0.002298	      -0.131645
	 D(10,6,8,21)     =        -3.140643	    -179.945562
	 D(10,9,1,14)     =         0.001287	       0.073752
	 D(10,9,2,15)     =        -0.000820	      -0.046992
	 D(11,3,1,14)     =         3.141234	     179.979432
	 D(11,4,2,15)     =         3.141517	     179.995641
	 D(12,7,5,18)     =         3.140393	     179.931265
	 D(12,8,6,19)     =         3.141097	     179.971580
	 D(13,11,3,16)    =        -0.000286	      -0.016400
	 D(13,11,4,17)    =        -0.000079	      -0.004548
	 D(14,1,3,16)     =        -0.000685	      -0.039257
	 D(15,2,4,17)     =         0.000590	       0.033826
	 D(18,5,7,20)     =        -0.001182	      -0.067716
	 D(19,6,8,21)     =         0.002752	       0.157663

	Current energy   :      -553.7194471294

	Generating empirical Hessian (Schlegel '84) for each fragment.
	Adding user-defined constraint: Fragment 1; Coordinate 63:
		Value =    -0.263069; Fixed value    =    -0.261799
		Force =     0.000635; Force constant =     0.500000
	Removing off-diagonal coupling between coordinate 63 and others.
	Taking RFO optimization step.
	Going to follow RFO solution 1.
	Using RFO vector 1.

	Determining step-restricting scale parameter for RS-RFO.
	Maximum step size allowed    0.10000

	 Iter      |step|        alpha        rfo_root  
	------------------------------------------------
	    0     0.24472       1.00000           1
	    1     0.18574       4.50920           1
	    2     0.14190      15.23731           1
	    3     0.11412      32.68920           1
	    4     0.10243      45.61215           1
	    5     0.10009      48.83696           1
	    6     0.10000      48.97132           1
	------------------------------------------------
	Norm of target step-size    0.10000
	Projected energy change by RFO approximation:        -0.0059852845

	Back-transformation to cartesian coordinates...
	Could not converge backtransformation.
	Using first guess instead.

	--- Internal Coordinate Step in ANG or DEG, aJ/ANG or AJ/DEG ---
	 ---------------------------------------------------------------------------
	   Coordinate                Previous        Force       Change         New 
	   ----------                --------       ------       ------       ------
	    1 R(1,3)          =      1.394038    -0.063025    -0.005360     1.388678
	    2 R(1,9)          =      1.394891     0.018656     0.001893     1.396784
	    3 R(1,14)         =      1.087431    -0.069051    -0.006820     1.080611
	    4 R(2,4)          =      1.394521    -0.065650    -0.005538     1.388983
	    5 R(2,9)          =      1.394821     0.007140     0.000868     1.395689
	    6 R(2,15)         =      1.087831    -0.069025    -0.006849     1.080982
	    7 R(3,11)         =      1.394821    -0.094533    -0.008179     1.386642
	    8 R(3,16)         =      1.086899    -0.044514    -0.004420     1.082478
	    9 R(4,11)         =      1.395407    -0.048658    -0.004257     1.391150
	   10 R(4,17)         =      1.086527    -0.030145    -0.002998     1.083529
	   11 R(5,7)          =      1.385463    -0.003082    -0.000258     1.385205
	   12 R(5,10)         =      1.391118     0.022308     0.002375     1.393493
	   13 R(5,18)         =      1.085227    -0.058163    -0.005722     1.079505
	   14 R(6,8)          =      1.386188    -0.007577    -0.000648     1.385540
	   15 R(6,10)         =      1.390219     0.028333     0.003000     1.393220
	   16 R(6,19)         =      1.085115    -0.057497    -0.005587     1.079528
	   17 R(7,12)         =      1.351758    -0.132581    -0.010423     1.341336
	   18 R(7,20)         =      1.085499    -0.024164    -0.002386     1.083113
	   19 R(8,12)         =      1.352302    -0.136703    -0.010771     1.341531
	   20 R(8,21)         =      1.084418    -0.018321    -0.001811     1.082607
	   21 R(9,10)         =      1.446444     0.215958     0.020413     1.466857
	   22 R(11,13)        =      1.360865    -0.008068    -0.000360     1.360505
	   23 R(13,22)        =      0.970199    -0.076272    -0.005904     0.964295
	   24 B(1,3,11)       =    120.009056     0.000037     0.004583   120.013639
	   25 B(1,3,16)       =    119.662516     0.000202     0.366070   120.028586
	   26 B(1,9,2)        =    119.959722    -0.001141    -1.552024   118.407697
	   27 B(1,9,10)       =    120.043881     0.000573     0.780587   120.824468
	   28 B(2,4,11)       =    119.960108     0.000184     0.234131   120.194239
	   29 B(2,4,17)       =    119.723926    -0.000001     0.034162   119.758088
	   30 B(2,9,10)       =    119.996376     0.000568     0.771424   120.767800
	   31 B(3,1,9)        =    120.031219     0.000656     0.963735   120.994954
	   32 B(3,1,14)       =    119.144799    -0.000453    -0.694405   118.450394
	   33 B(3,11,4)       =    119.994870    -0.000186    -0.323573   119.671297
	   34 B(3,11,13)      =    120.008801    -0.000793    -1.068971   118.939830
	   35 B(4,2,9)        =    120.045019     0.000450     0.673130   120.718149
	   36 B(4,2,15)       =    119.099297    -0.000305    -0.473261   118.626036
	   37 B(4,11,13)      =    119.996326     0.000979     1.392547   121.388873
	   38 B(5,7,12)       =    124.102913     0.000087     0.067086   124.169999
	   39 B(5,7,20)       =    120.756757    -0.000099    -0.125415   120.631341
	   40 B(5,10,6)       =    119.760257    -0.001565    -2.078894   117.681364
	   41 B(5,10,9)       =    120.119450     0.000766     1.015605   121.135055
	   42 B(6,8,12)       =    124.062766     0.000097     0.075449   124.138215
	   43 B(6,8,21)       =    120.752013    -0.000097    -0.119280   120.632733
	   44 B(6,10,9)       =    120.120278     0.000799     1.063262   121.183540
	   45 B(7,5,10)       =    117.868956     0.000690     1.055232   118.924188
	   46 B(7,5,18)       =    120.288147    -0.000452    -0.708577   119.579570
	   47 B(7,12,8)       =    116.324306    -0.000006    -0.178461   116.145845
	   48 B(8,6,10)       =    117.880588     0.000696     1.059682   118.940270
	   49 B(8,6,19)       =    120.283848    -0.000460    -0.721564   119.562284
	   50 B(9,1,14)       =    120.823969    -0.000203    -0.269436   120.554533
	   51 B(9,2,15)       =    120.855683    -0.000145    -0.200096   120.655587
	   52 B(10,5,18)      =    121.842653    -0.000238    -0.346411   121.496242
	   53 B(10,6,19)      =    121.835480    -0.000237    -0.338479   121.497001
	   54 B(11,3,16)      =    120.328425    -0.000239    -0.370665   119.957760
	   55 B(11,4,17)      =    120.315955    -0.000183    -0.268281   120.047673
	   56 B(11,13,22)     =    110.322421    -0.000437    -0.724755   109.597666
	   57 B(12,7,20)      =    115.140330     0.000012     0.058317   115.198648
	   58 B(12,8,21)      =    115.184984     0.000000     0.043997   115.228980
	   59 D(1,3,11,4)     =     -0.018609     0.000001     0.007689    -0.010920
	   60 D(1,3,11,13)    =    179.964785     0.000002     0.025200   179.989985
	   61 D(1,9,2,4)      =      0.018608    -0.000002    -0.034956    -0.016348
	   62 D(1,9,2,15)     =   -179.994534    -0.000018    -0.197876  -180.192410
	   63 D(1,9,10,5)     =    -15.072747    -0.000019    -0.126455   -15.199202
	   64 D(1,9,10,6)     =    164.971768    -0.000027    -0.246057   164.725711
	   65 D(2,4,11,3)     =      0.017261     0.000002     0.024682     0.041944
	   66 D(2,4,11,13)    =   -179.966135     0.000001     0.007151  -179.958984
	   67 D(2,9,1,3)      =     -0.019945     0.000005     0.067639     0.047695
	   68 D(2,9,1,14)     =   -179.978731    -0.000011    -0.100717  -180.079448
	   69 D(2,9,10,5)     =    164.979756    -0.000027    -0.247308   164.732448
	   70 D(2,9,10,6)     =    -14.975729    -0.000036    -0.366910   -15.342639
	   71 D(3,1,9,10)     =   -179.967461    -0.000003    -0.051614  -180.019075
	   72 D(3,11,4,17)    =    179.978848     0.000006     0.062896   180.041744
	   73 D(3,11,13,22)   =    179.956172    -0.000000    -0.005622   179.950550
	   74 D(4,2,9,10)     =    179.966149     0.000006     0.084233   180.050382
	   75 D(4,11,3,16)    =    180.000000     0.000004     0.033132   180.033132
	   76 D(4,11,13,22)   =     -0.060434     0.000001     0.011905    -0.048529
	   77 D(5,7,12,8)     =     -0.097631     0.000001     0.010945    -0.086686
	   78 D(5,10,6,8)     =      0.134669    -0.000004    -0.057252     0.077417
	   79 D(5,10,6,19)    =   -179.970253    -0.000018    -0.196019  -180.166272
	   80 D(6,8,12,7)     =      0.110006     0.000000     0.005083     0.115090
	   81 D(6,10,5,7)     =     -0.123542     0.000006     0.071812    -0.051730
	   82 D(6,10,5,18)    =   -179.944259    -0.000011    -0.102423  -180.046682
	   83 D(7,5,10,9)     =    179.920812    -0.000003    -0.045083   179.875729
	   84 D(7,12,8,21)    =    179.933290     0.000008     0.084325   180.017614
	   85 D(8,6,10,9)     =   -179.909686     0.000004     0.059680  -179.850005
	   86 D(8,12,7,20)    =    179.901402     0.000006     0.051953   179.953355
	   87 D(9,1,3,11)     =      0.019955    -0.000005    -0.054385    -0.034431
	   88 D(9,1,3,16)     =   -179.998735    -0.000007    -0.079780  -180.078514
	   89 D(9,2,4,11)     =     -0.017270    -0.000002    -0.010912    -0.028182
	   90 D(9,2,4,17)     =   -179.979086    -0.000005    -0.048897  -180.027983
	   91 D(9,10,5,18)    =      0.100095    -0.000019    -0.219318    -0.119223
	   92 D(9,10,6,19)    =     -0.014608    -0.000009    -0.079086    -0.093694
	   93 D(10,5,7,12)    =      0.107641    -0.000004    -0.048661     0.058981
	   94 D(10,5,7,20)    =   -179.891340    -0.000008    -0.091786  -179.983126
	   95 D(10,6,8,12)    =     -0.131645     0.000001     0.016968    -0.114677
	   96 D(10,6,8,21)    =   -179.945562    -0.000007    -0.066637  -180.012199
	   97 D(10,9,1,14)    =      0.073752    -0.000019    -0.219970    -0.146218
	   98 D(10,9,2,15)    =     -0.046992    -0.000009    -0.078687    -0.125680
	   99 D(11,3,1,14)    =    179.979432     0.000011     0.110665   180.090097
	  100 D(11,4,2,15)    =    179.995641     0.000014     0.148725   180.144366
	  101 D(12,7,5,18)    =    179.931265     0.000012     0.122766   180.054031
	  102 D(12,8,6,19)    =    179.971580     0.000014     0.152626   180.124206
	  103 D(13,11,3,16)   =     -0.016400     0.000005     0.050437     0.034037
	  104 D(13,11,4,17)   =     -0.004548     0.000005     0.045364     0.040816
	  105 D(14,1,3,16)    =     -0.039257     0.000008     0.085270     0.046013
	  106 D(15,2,4,17)    =      0.033826     0.000010     0.110740     0.144565
	  107 D(18,5,7,20)    =     -0.067716     0.000008     0.079641     0.011925
	  108 D(19,6,8,21)    =      0.157663     0.000006     0.069021     0.226684
	 ---------------------------------------------------------------------------
	Successfully symmetrized geometry.
	 Forces used to impose fixed constraints are not included.
	  Forces zeroed: 63 

  ==> Convergence Check <==

  Measures of convergence in internal coordinates in au.
  Criteria marked as inactive (o), active & met (*), and active & unmet ( ).
  --------------------------------------------------------------------------------------------- ~
   Step     Total Energy     Delta E     MAX Force     RMS Force      MAX Disp      RMS Disp    ~
  --------------------------------------------------------------------------------------------- ~
    Convergence Criteria    1.00e-06 *    3.00e-04 *             o    1.20e-03 *             o  ~
  --------------------------------------------------------------------------------------------- ~
      1    -553.71944713   -5.54e+02      2.62e-02      5.84e-03 o    3.86e-02      9.61e-03 o  ~
  ---------------------------------------------------------------------------------------------

	Writing optimization data to binary file.
	Structure for next step:
	Cartesian Geometry (in Angstrom)
	    C    -1.2702166269   0.7210600230  -0.5627604959
	    C    -0.2823262930   0.1028338281   1.5338367821
	    C    -2.3447310412   1.2924063572   0.1061264094
	    C    -1.3561909071   0.6729849446   2.2054145241
	    C     0.8408261839  -0.7578592094  -1.9354986767
	    C     2.0916128248  -0.8011298015   0.0943666897
	    C     1.9389158962  -1.3252378979  -2.5608574363
	    C     3.1336872995  -1.3661994066  -0.6229182041
	    C    -0.2237192495   0.1187962885   0.1394702453
	    C     0.9092933232  -0.4839626763  -0.5709050475
	    C    -2.3904626317   1.2699628934   1.4918326860
	    N     3.0841545351  -1.6368209029  -1.9359362089
	    O    -3.4533171260   1.8363378483   2.1247098404
	    H    -1.2596489325   0.7541328415  -1.6428137513
	    H     0.5062237603  -0.3562972501   2.1134144549
	    H    -3.1467453510   1.7561713489  -0.4537437244
	    H    -1.3860315982   0.6514005785   3.2883169986
	    H    -0.0455162565  -0.5378569804  -2.5111087930
	    H     2.2124850354  -0.6128551167   1.1504558418
	    H     1.9159208690  -1.5493787667  -3.6202755532
	    H     4.0645594728  -1.6232430733  -0.1335887199
	    H    -3.3481951835   1.7443876687   3.0788378323
			--------------------------
			 OPTKING Finished Execution 
			--------------------------

    Structure for next step:
    Molecular point group: c1
    Full point group: C1

    Geometry (in Angstrom), charge = 0, multiplicity = 1:

    C           -1.270343116531     0.721038743246    -0.562598061613
    C           -0.282452782636     0.102812548321     1.533999216365
    C           -2.344857530828     1.292385077402     0.106288843660
    C           -1.356317396727     0.672963664851     2.205576958444
    C            0.840699694277    -0.757880489180    -1.935336242382
    C            2.091486335148    -0.801151081270     0.094529123997
    C            1.938789406527    -1.325259177640    -2.560695002033
    C            3.133560809832    -1.366220686351    -0.622755769840
    C           -0.223845739121     0.118775008756     0.139632679570
    C            0.909166833567    -0.483983956041    -0.570742613163
    C           -2.390589121339     1.269941613658     1.491995120330
    N            3.084028045438    -1.636842182630    -1.935773774569
    O           -3.453443615593     1.836316568525     2.124872274740
    H           -1.259775422120     0.754111561725    -1.642651316958
    H            0.506097270652    -0.356318529865     2.113576889203
    H           -3.146871840656     1.756150069124    -0.453581290097
    H           -1.386158087823     0.651379298741     3.288479432944
    H           -0.045642746152    -0.537878260188    -2.510946358693
    H            2.212358545744    -0.612876396460     1.150618276074
    H            1.915794379382    -1.549400046464    -3.620113118910
    H            4.064432983142    -1.623264353019    -0.133426285620
    H           -3.348321673178     1.744366388949     3.079000266594

gradient() will perform analytic gradient computation.

*** tstart() called on gpu-1-17.local
*** at Sun Nov 12 13:33:58 2017

    SCF Algorithm Type (re)set to DF.

*** tstart() called on gpu-1-17.local
*** at Sun Nov 12 13:33:58 2017

   => Loading Basis Set <=

    Name: AUG-CC-PVTZ
    Role: ORBITAL
    Keyword: BASIS
    atoms 1-11  entry C          line   221 file /cbio/jclab/home/chayas/anaconda/envs/py35/share/psi4/basis/aug-cc-pvtz.gbs 
    atoms 12    entry N          line   267 file /cbio/jclab/home/chayas/anaconda/envs/py35/share/psi4/basis/aug-cc-pvtz.gbs 
    atoms 13    entry O          line   313 file /cbio/jclab/home/chayas/anaconda/envs/py35/share/psi4/basis/aug-cc-pvtz.gbs 
    atoms 14-22 entry H          line    34 file /cbio/jclab/home/chayas/anaconda/envs/py35/share/psi4/basis/aug-cc-pvtz.gbs 


         ---------------------------------------------------------
                                   SCF
            by Justin Turney, Rob Parrish, and Andy Simmonett
                              RHF Reference
                        8 Threads,   4768 MiB Core
         ---------------------------------------------------------

  ==> Geometry <==

    Molecular point group: c1
    Full point group: C1

    Geometry (in Angstrom), charge = 0, multiplicity = 1:

       Center              X                  Y                   Z               Mass       
    ------------   -----------------  -----------------  -----------------  -----------------
           C         -1.270343116531     0.721038743246    -0.562598061613    12.000000000000
           C         -0.282452782636     0.102812548321     1.533999216365    12.000000000000
           C         -2.344857530828     1.292385077402     0.106288843660    12.000000000000
           C         -1.356317396727     0.672963664851     2.205576958444    12.000000000000
           C          0.840699694277    -0.757880489180    -1.935336242382    12.000000000000
           C          2.091486335148    -0.801151081270     0.094529123997    12.000000000000
           C          1.938789406527    -1.325259177640    -2.560695002033    12.000000000000
           C          3.133560809832    -1.366220686351    -0.622755769840    12.000000000000
           C         -0.223845739121     0.118775008756     0.139632679570    12.000000000000
           C          0.909166833567    -0.483983956041    -0.570742613163    12.000000000000
           C         -2.390589121339     1.269941613658     1.491995120330    12.000000000000
           N          3.084028045438    -1.636842182630    -1.935773774569    14.003074004780
           O         -3.453443615593     1.836316568525     2.124872274740    15.994914619560
           H         -1.259775422120     0.754111561725    -1.642651316958     1.007825032070
           H          0.506097270652    -0.356318529865     2.113576889203     1.007825032070
           H         -3.146871840656     1.756150069124    -0.453581290097     1.007825032070
           H         -1.386158087823     0.651379298741     3.288479432944     1.007825032070
           H         -0.045642746152    -0.537878260188    -2.510946358693     1.007825032070
           H          2.212358545744    -0.612876396460     1.150618276074     1.007825032070
           H          1.915794379382    -1.549400046464    -3.620113118910     1.007825032070
           H          4.064432983142    -1.623264353019    -0.133426285620     1.007825032070
           H         -3.348321673178     1.744366388949     3.079000266594     1.007825032070

  Running in c1 symmetry.

  Rotational constants: A =      0.09832  B =      0.01341  C =      0.01185 [cm^-1]
  Rotational constants: A =   2947.62482  B =    401.95516  C =    355.22878 [MHz]
  Nuclear repulsion =  697.553642957856596

  Charge       = 0
  Multiplicity = 1
  Electrons    = 90
  Nalpha       = 45
  Nbeta        = 45

  ==> Algorithm <==

  SCF Algorithm Type is DF.
  DIIS enabled.
  MOM disabled.
  Fractional occupation disabled.
  Guess Type is READ.
  Energy threshold   = 1.00e-10
  Density threshold  = 1.00e-10
  Integral threshold = 0.00e+00

  ==> Primary Basis <==

  Basis Set: AUG-CC-PVTZ
    Blend: AUG-CC-PVTZ
    Number of shells: 263
    Number of basis function: 805
    Number of Cartesian functions: 940
    Spherical Harmonics?: true
    Max angular momentum: 3

   => Loading Basis Set <=

    Name: (AUG-CC-PVTZ AUX)
    Role: JKFIT
    Keyword: DF_BASIS_SCF
    atoms 1-11  entry C          line   161 file /cbio/jclab/home/chayas/anaconda/envs/py35/share/psi4/basis/aug-cc-pvtz-jkfit.gbs 
    atoms 12    entry N          line   223 file /cbio/jclab/home/chayas/anaconda/envs/py35/share/psi4/basis/aug-cc-pvtz-jkfit.gbs 
    atoms 13    entry O          line   285 file /cbio/jclab/home/chayas/anaconda/envs/py35/share/psi4/basis/aug-cc-pvtz-jkfit.gbs 
    atoms 14-22 entry H          line    69 file /cbio/jclab/home/chayas/anaconda/envs/py35/share/psi4/basis/aug-cc-pvtz-jkfit.gbs 

  Reading orbitals from file 180, no projection.

  ==> Pre-Iterations <==

   -------------------------------------------------------
    Irrep   Nso     Nmo     Nalpha   Nbeta   Ndocc  Nsocc
   -------------------------------------------------------
     A        805     805       0       0       0       0
   -------------------------------------------------------
    Total     805     805      45      45      45       0
   -------------------------------------------------------

  ==> Integral Setup <==

  ==> DFJK: Density-Fitted J/K Matrices <==

    J tasked:                  Yes
    K tasked:                  Yes
    wK tasked:                  No
    OpenMP threads:              8
    Integrals threads:           8
    Memory (MB):              3576
    Algorithm:                Disk
    Integral Cache:           NONE
    Schwarz Cutoff:          1E-12
    Fitting Condition:       1E-12

   => Auxiliary Basis Set <=

  Basis Set: (AUG-CC-PVTZ AUX)
    Blend: AUG-CC-PVTZ-JKFIT
    Number of shells: 516
    Number of basis function: 1766
    Number of Cartesian functions: 2198
    Spherical Harmonics?: true
    Max angular momentum: 4

  Minimum eigenvalue in the overlap matrix is 5.1102836328E-07.
  Using Symmetric Orthogonalization.

  SCF Guess: Orbitals guess was supplied from a previous computation.

  ==> Iterations <==

                           Total Energy        Delta E     RMS |[F,P]|

   @DF-RHF iter   0:  -551.44991991146048   -5.51450e+02   5.86552e-04 
   @DF-RHF iter   1:  -551.28637410628153    1.63546e-01   2.08819e-04 
   @DF-RHF iter   2:  -551.28764939822895   -1.27529e-03   1.58712e-04 DIIS
   @DF-RHF iter   3:  -551.28889373019103   -1.24433e-03   2.05814e-05 DIIS
   @DF-RHF iter   4:  -551.28891165375239   -1.79236e-05   5.19224e-06 DIIS
   @DF-RHF iter   5:  -551.28891389040245   -2.23665e-06   1.58681e-06 DIIS
   @DF-RHF iter   6:  -551.28891418632077   -2.95918e-07   9.45201e-07 DIIS
   @DF-RHF iter   7:  -551.28891429311068   -1.06790e-07   3.67260e-07 DIIS
   @DF-RHF iter   8:  -551.28891432935222   -3.62415e-08   1.31234e-07 DIIS
   @DF-RHF iter   9:  -551.28891433576746   -6.41523e-09   5.40757e-08 DIIS
   @DF-RHF iter  10:  -551.28891433640513   -6.37669e-10   2.19740e-08 DIIS
   @DF-RHF iter  11:  -551.28891433650278   -9.76570e-11   6.12680e-09 DIIS
   @DF-RHF iter  12:  -551.28891433651643   -1.36424e-11   3.48407e-09 DIIS
   @DF-RHF iter  13:  -551.28891433650892    7.50333e-12   1.77603e-09 DIIS
   @DF-RHF iter  14:  -551.28891433651597   -7.04858e-12   7.99318e-10 DIIS
   @DF-RHF iter  15:  -551.28891433653610   -2.01226e-11   2.98241e-10 DIIS
   @DF-RHF iter  16:  -551.28891433649278    4.33147e-11   9.24934e-11 DIIS

  ==> Post-Iterations <==

    Orbital Energies (a.u.)
    -----------------------

    Doubly Occupied:                                                      

       1A    -20.602805     2A    -15.558972     3A    -11.315680  
       4A    -11.271844     5A    -11.271680     6A    -11.266958  
       7A    -11.255201     8A    -11.253432     9A    -11.247945  
      10A    -11.245376    11A    -11.240078    12A    -11.235101  
      13A    -11.234857    14A     -1.419829    15A     -1.253134  
      16A     -1.174853    17A     -1.104475    18A     -1.040657  
      19A     -1.029038    20A     -1.012288    21A     -0.883059  
      22A     -0.875058    23A     -0.840017    24A     -0.812651  
      25A     -0.752406    26A     -0.725886    27A     -0.686417  
      28A     -0.667791    29A     -0.649816    30A     -0.633657  
      31A     -0.615022    32A     -0.609256    33A     -0.604633  
      34A     -0.589651    35A     -0.577144    36A     -0.547872  
      37A     -0.533046    38A     -0.525596    39A     -0.501788  
      40A     -0.494785    41A     -0.416916    42A     -0.400572  
      43A     -0.358007    44A     -0.347034    45A     -0.305320  

    Virtual:                                                              

      46A      0.021096    47A      0.029480    48A      0.032041  
      49A      0.040183    50A      0.043012    51A      0.047347  
      52A      0.057811    53A      0.059482    54A      0.066269  
      55A      0.075093    56A      0.077568    57A      0.083548  
      58A      0.086773    59A      0.090573    60A      0.095830  
      61A      0.101508    62A      0.103100    63A      0.109027  
      64A      0.110192    65A      0.111369    66A      0.115855  
      67A      0.120297    68A      0.126590    69A      0.128399  
      70A      0.133142    71A      0.135270    72A      0.138708  
      73A      0.139180    74A      0.143591    75A      0.144769  
      76A      0.148894    77A      0.150463    78A      0.155352  
      79A      0.164129    80A      0.167101    81A      0.170579  
      82A      0.172093    83A      0.179336    84A      0.182644  
      85A      0.186962    86A      0.189898    87A      0.197422  
      88A      0.201467    89A      0.209244    90A      0.215094  
      91A      0.220111    92A      0.226262    93A      0.229361  
      94A      0.236254    95A      0.237907    96A      0.248229  
      97A      0.249825    98A      0.252163    99A      0.254572  
     100A      0.258328   101A      0.259766   102A      0.264779  
     103A      0.267530   104A      0.270723   105A      0.274972  
     106A      0.280350   107A      0.289116   108A      0.290940  
     109A      0.293627   110A      0.298111   111A      0.301926  
     112A      0.305805   113A      0.308272   114A      0.311575  
     115A      0.318329   116A      0.320795   117A      0.328209  
     118A      0.328475   119A      0.331080   120A      0.336000  
     121A      0.342761   122A      0.345665   123A      0.352796  
     124A      0.359016   125A      0.364083   126A      0.367980  
     127A      0.373503   128A      0.381542   129A      0.384107  
     130A      0.394074   131A      0.396493   132A      0.400251  
     133A      0.406323   134A      0.412432   135A      0.417431  
     136A      0.421194   137A      0.422730   138A      0.429808  
     139A      0.431541   140A      0.435720   141A      0.438332  
     142A      0.439536   143A      0.444167   144A      0.447516  
     145A      0.449820   146A      0.450382   147A      0.457965  
     148A      0.464405   149A      0.465557   150A      0.468748  
     151A      0.474056   152A      0.477873   153A      0.486691  
     154A      0.487892   155A      0.492945   156A      0.496271  
     157A      0.500301   158A      0.500735   159A      0.503513  
     160A      0.506120   161A      0.508935   162A      0.510460  
     163A      0.513540   164A      0.517136   165A      0.519314  
     166A      0.522404   167A      0.526576   168A      0.531629  
     169A      0.538483   170A      0.543536   171A      0.549769  
     172A      0.551376   173A      0.555890   174A      0.562803  
     175A      0.567737   176A      0.569535   177A      0.571317  
     178A      0.579364   179A      0.588229   180A      0.593088  
     181A      0.594252   182A      0.601822   183A      0.609898  
     184A      0.614695   185A      0.621613   186A      0.630973  
     187A      0.635014   188A      0.639872   189A      0.648876  
     190A      0.656982   191A      0.659206   192A      0.660018  
     193A      0.680519   194A      0.686896   195A      0.690351  
     196A      0.694419   197A      0.699141   198A      0.700610  
     199A      0.705007   200A      0.707841   201A      0.708121  
     202A      0.716054   203A      0.722270   204A      0.727001  
     205A      0.736783   206A      0.740875   207A      0.747179  
     208A      0.749354   209A      0.755298   210A      0.768577  
     211A      0.771799   212A      0.775674   213A      0.781950  
     214A      0.795647   215A      0.800121   216A      0.807254  
     217A      0.807773   218A      0.811203   219A      0.821423  
     220A      0.825224   221A      0.833367   222A      0.836153  
     223A      0.840846   224A      0.846628   225A      0.847775  
     226A      0.858836   227A      0.860356   228A      0.872467  
     229A      0.874354   230A      0.880748   231A      0.883245  
     232A      0.886033   233A      0.890933   234A      0.892674  
     235A      0.898018   236A      0.899592   237A      0.904667  
     238A      0.914737   239A      0.915786   240A      0.921300  
     241A      0.927201   242A      0.936129   243A      0.937224  
     244A      0.939285   245A      0.942089   246A      0.946264  
     247A      0.955070   248A      0.959922   249A      0.965647  
     250A      0.972922   251A      0.973737   252A      0.976167  
     253A      0.983751   254A      0.986711   255A      0.990953  
     256A      0.993128   257A      0.995297   258A      0.999231  
     259A      1.006611   260A      1.013738   261A      1.016754  
     262A      1.024124   263A      1.025963   264A      1.028617  
     265A      1.030590   266A      1.038432   267A      1.039258  
     268A      1.043128   269A      1.045759   270A      1.054710  
     271A      1.057766   272A      1.064660   273A      1.068281  
     274A      1.069565   275A      1.078560   276A      1.080155  
     277A      1.084830   278A      1.093919   279A      1.097965  
     280A      1.099159   281A      1.104188   282A      1.109721  
     283A      1.120036   284A      1.126901   285A      1.127441  
     286A      1.134044   287A      1.139989   288A      1.144849  
     289A      1.149714   290A      1.154751   291A      1.161066  
     292A      1.166292   293A      1.168849   294A      1.177317  
     295A      1.178223   296A      1.182620   297A      1.183076  
     298A      1.191357   299A      1.193579   300A      1.201106  
     301A      1.207088   302A      1.211538   303A      1.215567  
     304A      1.217949   305A      1.220850   306A      1.228517  
     307A      1.233772   308A      1.242122   309A      1.249377  
     310A      1.254030   311A      1.258930   312A      1.265020  
     313A      1.278615   314A      1.282192   315A      1.284212  
     316A      1.288877   317A      1.300906   318A      1.305079  
     319A      1.308519   320A      1.311335   321A      1.315793  
     322A      1.323420   323A      1.329874   324A      1.331897  
     325A      1.344313   326A      1.352622   327A      1.363534  
     328A      1.378445   329A      1.385250   330A      1.389135  
     331A      1.392959   332A      1.399386   333A      1.406132  
     334A      1.412048   335A      1.419735   336A      1.436418  
     337A      1.440493   338A      1.458272   339A      1.459269  
     340A      1.466455   341A      1.469218   342A      1.480163  
[...]
	 R(8,12)          =         2.522374	       1.334783
	 R(8,21)          =         2.043214	       1.081222
	 R(9,10)          =         2.768559	       1.465058
	 R(11,13)         =         2.571901	       1.360991
	 R(13,22)         =         1.817915	       0.961999
	 B(1,3,11)        =         2.094435	     120.002280
	 B(1,3,16)        =         2.111736	     120.993575
	 B(1,9,2)         =         2.049266	     117.414309
	 B(1,9,10)        =         2.119021	     121.410940
	 B(2,4,11)        =         2.096604	     120.126541
	 B(2,4,17)        =         2.092161	     119.871977
	 B(2,9,10)        =         2.114271	     121.138831
	 B(3,1,9)         =         2.122738	     121.623923
	 B(3,1,14)        =         2.064531	     118.288922
	 B(3,11,4)        =         2.083870	     119.396963
	 B(3,11,13)       =         2.049824	     117.446292
	 B(4,2,9)         =         2.119347	     121.429619
	 B(4,2,15)        =         2.066635	     118.409445
	 B(4,11,13)       =         2.149485	     123.156421
	 B(5,7,12)        =         2.162262	     123.888504
	 B(5,7,20)        =         2.091733	     119.847486
	 B(5,10,6)        =         2.022081	     115.856702
	 B(5,10,9)        =         2.131604	     122.131892
	 B(6,8,12)        =         2.161768	     123.860185
	 B(6,8,21)        =         2.092021	     119.863999
	 B(6,10,9)        =         2.128960	     121.980400
	 B(7,5,10)        =         2.095759	     120.078147
	 B(7,5,18)        =         2.073746	     118.816901
	 B(7,12,8)        =         2.028149	     116.204392
	 B(8,6,10)        =         2.096241	     120.105764
	 B(8,6,19)        =         2.073758	     118.817579
	 B(9,1,14)        =         2.095447	     120.060266
	 B(9,2,15)        =         2.096835	     120.139777
	 B(10,5,18)       =         2.113256	     121.080631
	 B(10,6,19)       =         2.112922	     121.061518
	 B(11,3,16)       =         2.076994	     119.002967
	 B(11,4,17)       =         2.094373	     119.998750
	 B(11,13,22)      =         1.902613	     109.011704
	 B(12,7,20)       =         2.029188	     116.263931
	 B(12,8,21)       =         2.029371	     116.274380
	 D(1,3,11,4)      =        -0.003859	      -0.221111
	 D(1,3,11,13)     =         3.141232	     179.979358
	 D(1,9,2,4)       =        -0.015026	      -0.860909
	 D(1,9,2,15)      =         3.096897	     177.439110
	 D(1,9,10,5)      =        -0.266599	     -15.274989
	 D(1,9,10,6)      =         2.838171	     162.615204
	 D(2,4,11,3)      =         0.004361	       0.249892
	 D(2,4,11,13)     =        -3.140940	    -179.962613
	 D(2,9,1,3)       =         0.015564	       0.891776
	 D(2,9,1,14)      =         3.123669	     178.973069
	 D(2,9,10,5)      =         2.835960	     162.488550
	 D(2,9,10,6)      =        -0.342456	     -19.621257
	 D(3,1,9,10)      =         3.119522	     178.735429
	 D(3,11,4,17)     =        -3.126724	    -179.148098
	 D(3,11,13,22)    =        -3.138699	    -179.834203
	 D(4,2,9,10)      =        -3.119091	    -178.710777
	 D(4,11,3,16)     =        -3.138627	    -179.830105
	 D(4,11,13,22)    =         0.006535	       0.374422
	 D(5,7,12,8)      =        -0.002639	      -0.151196
	 D(5,10,6,8)      =        -0.015910	      -0.911601
	 D(5,10,6,19)     =         3.100686	     177.656211
	 D(6,8,12,7)      =         0.001267	       0.072567
	 D(6,10,5,7)      =         0.014643	       0.838970
	 D(6,10,5,18)     =         3.124555	     179.023824
	 D(7,5,10,9)      =         3.121527	     178.850328
	 D(7,12,8,21)     =        -3.132684	    -179.489590
	 D(8,6,10,9)      =        -3.122852	    -178.926250
	 D(8,12,7,20)     =         3.140742	     179.951278
	 D(9,1,3,11)      =        -0.006381	      -0.365621
	 D(9,1,3,16)      =         3.128249	     179.235450
	 D(9,2,4,11)      =         0.005360	       0.307098
	 D(9,2,4,17)      =         3.136459	     179.705854
	 D(9,10,5,18)     =        -0.051746	      -2.964818
	 D(9,10,6,19)     =        -0.006256	      -0.358438
	 D(10,5,7,12)     =        -0.005716	      -0.327528
	 D(10,5,7,20)     =         3.134027	     179.566524
	 D(10,6,8,12)     =         0.008451	       0.484208
	 D(10,6,8,21)     =        -3.141043	    -179.968517
	 D(10,9,1,14)     =        -0.055559	      -3.183277
	 D(10,9,2,15)     =        -0.007169	      -0.410758
	 D(11,3,1,14)     =        -3.115060	    -178.479763
	 D(11,4,2,15)     =        -3.107061	    -178.021471
	 D(12,7,5,18)     =        -3.116342	    -178.553255
	 D(12,8,6,19)     =        -3.108703	    -178.115559
	 D(13,11,3,16)    =         0.006464	       0.370364
	 D(13,11,4,17)    =         0.011160	       0.639397
	 D(14,1,3,16)     =         0.019571	       1.121309
	 D(15,2,4,17)     =         0.024038	       1.377286
	 D(18,5,7,20)     =         0.023401	       1.340797
	 D(19,6,8,21)     =         0.024988	       1.431715

	Current energy   :      -553.7245862710

	Energy change for the previous step:
		Projected    :        -0.0000027120
		Actual       :         0.0000008207

	Performing BFGS update.
	Previous computed or guess Hessian on step 1.
	Steps to be used in Hessian update: 5 4
	Adding user-defined constraint: Fragment 1; Coordinate 63:
		Value =    -0.266599; Fixed value    =    -0.261800
		Force =     0.002999; Force constant =     0.625000
	Removing off-diagonal coupling between coordinate 63 and others.
	Taking RFO optimization step.
	Going to follow RFO solution 1.
	Using RFO vector 1.
	Norm of target step-size    0.00595
	Projected energy change by RFO approximation:        -0.0000009505

	Back-transformation to cartesian coordinates...
	Could not converge backtransformation.
	Using first guess instead.

	--- Internal Coordinate Step in ANG or DEG, aJ/ANG or AJ/DEG ---
	 ---------------------------------------------------------------------------
	   Coordinate                Previous        Force       Change         New 
	   ----------                --------       ------       ------       ------
	    1 R(1,3)          =      1.382714    -0.000078     0.000090     1.382804
	    2 R(1,9)          =      1.396267     0.000411     0.000039     1.396306
	    3 R(1,14)         =      1.078515    -0.000067     0.000007     1.078522
	    4 R(2,4)          =      1.384944     0.000080     0.000001     1.384945
	    5 R(2,9)          =      1.394386    -0.000003     0.000020     1.394406
	    6 R(2,15)         =      1.078576     0.000251     0.000130     1.078706
	    7 R(3,11)         =      1.387442     0.000288     0.000078     1.387520
	    8 R(3,16)         =      1.078852     0.000101     0.000038     1.078890
	    9 R(4,11)         =      1.387828    -0.000054     0.000027     1.387855
	   10 R(4,17)         =      1.081277     0.000081     0.000057     1.081334
	   11 R(5,7)          =      1.385209     0.000003     0.000052     1.385261
	   12 R(5,10)         =      1.393600     0.000209     0.000055     1.393655
	   13 R(5,18)         =      1.078411    -0.000066     0.000011     1.078422
	   14 R(6,8)          =      1.385091    -0.000055     0.000050     1.385141
	   15 R(6,10)         =      1.393754    -0.000083    -0.000055     1.393698
	   16 R(6,19)         =      1.078525     0.000239     0.000131     1.078656
	   17 R(7,12)         =      1.334748    -0.000010     0.000008     1.334756
	   18 R(7,20)         =      1.081198     0.000028    -0.000008     1.081189
	   19 R(8,12)         =      1.334783     0.000084     0.000002     1.334785
	   20 R(8,21)         =      1.081222     0.000023    -0.000008     1.081214
	   21 R(9,10)         =      1.465058     0.000256     0.000106     1.465164
	   22 R(11,13)        =      1.360991     0.000259     0.000037     1.361028
	   23 R(13,22)        =      0.961999     0.000141     0.000078     0.962077
	   24 B(1,3,11)       =    120.002280     0.000000    -0.001623   120.000657
	   25 B(1,3,16)       =    120.993575     0.000001    -0.010006   120.983569
	   26 B(1,9,2)        =    117.414309     0.000001    -0.007897   117.406412
	   27 B(1,9,10)       =    121.410940     0.000005     0.038142   121.449082
	   28 B(2,4,11)       =    120.126541    -0.000001     0.003347   120.129888
	   29 B(2,4,17)       =    119.871977     0.000000     0.002123   119.874100
	   30 B(2,9,10)       =    121.138831    -0.000006    -0.029291   121.109540
	   31 B(3,1,9)        =    121.623923    -0.000002     0.005340   121.629262
	   32 B(3,1,14)       =    118.288922     0.000001    -0.031529   118.257393
	   33 B(3,11,4)       =    119.396963     0.000001    -0.004969   119.391994
	   34 B(3,11,13)      =    117.446292    -0.000000     0.010494   117.456786
	   35 B(4,2,9)        =    121.429619     0.000001     0.006200   121.435819
	   36 B(4,2,15)       =    118.409445     0.000001    -0.015328   118.394117
	   37 B(4,11,13)      =    123.156421    -0.000001    -0.005420   123.151001
	   38 B(5,7,12)       =    123.888504    -0.000001     0.001562   123.890066
	   39 B(5,7,20)       =    119.847486     0.000001    -0.001866   119.845620
	   40 B(5,10,6)       =    115.856702     0.000001    -0.006997   115.849705
	   41 B(5,10,9)       =    122.131892     0.000006     0.039432   122.171323
	   42 B(6,8,12)       =    123.860185    -0.000000     0.003403   123.863588
	   43 B(6,8,21)       =    119.863999     0.000001    -0.004565   119.859434
	   44 B(6,10,9)       =    121.980400    -0.000006    -0.031259   121.949141
	   45 B(7,5,10)       =    120.078147    -0.000001     0.003644   120.081791
	   46 B(7,5,18)       =    118.816901     0.000000    -0.020046   118.796855
	   47 B(7,12,8)       =    116.204392     0.000001    -0.006151   116.198241
	   48 B(8,6,10)       =    120.105764    -0.000000     0.004593   120.110357
	   49 B(8,6,19)       =    118.817579     0.000002    -0.006312   118.811267
	   50 B(9,1,14)       =    120.060266     0.000000     0.026052   120.086319
	   51 B(9,2,15)       =    120.139777    -0.000001     0.008844   120.148622
	   52 B(10,5,18)      =    121.080631     0.000000     0.016183   121.096814
	   53 B(10,6,19)      =    121.061518    -0.000001     0.002274   121.063791
	   54 B(11,3,16)      =    119.002967    -0.000002     0.011283   119.014250
	   55 B(11,4,17)      =    119.998750     0.000001    -0.005536   119.993214
	   56 B(11,13,22)     =    109.011704     0.000002     0.005997   109.017701
	   57 B(12,7,20)      =    116.263931    -0.000000    -0.000108   116.263824
	   58 B(12,8,21)      =    116.274380    -0.000001     0.000333   116.274713
	   59 D(1,3,11,4)     =     -0.221111     0.000000    -0.013508    -0.234619
	   60 D(1,3,11,13)    =    179.979358    -0.000000    -0.049028   179.930330
	   61 D(1,9,2,4)      =     -0.860909     0.000000     0.015897    -0.845012
	   62 D(1,9,2,15)     =    177.439110     0.000000     0.004290   177.443400
	   63 D(1,9,10,5)     =    -15.274989    -0.000000     0.017927   -15.257063
	   64 D(1,9,10,6)     =    162.615204    -0.000000     0.058157   162.673361
	   65 D(2,4,11,3)     =      0.249892    -0.000000    -0.012735     0.237157
	   66 D(2,4,11,13)    =   -179.962613     0.000000     0.024946  -179.937667
	   67 D(2,9,1,3)      =      0.891776    -0.000000    -0.042751     0.849025
	   68 D(2,9,1,14)     =    178.973069    -0.000000    -0.048222   178.924847
	   69 D(2,9,10,5)     =    162.488550    -0.000000     0.047610   162.536160
	   70 D(2,9,10,6)     =    -19.621257     0.000000     0.087840   -19.533416
	   71 D(3,1,9,10)     =    178.735429    -0.000000    -0.014637   178.720792
	   72 D(3,11,4,17)    =   -179.148098    -0.000000    -0.005505  -179.153604
	   73 D(3,11,13,22)   =   -179.834203     0.000000     0.027892  -179.806310
	   74 D(4,2,9,10)     =   -178.710777    -0.000000    -0.013654  -178.724431
	   75 D(4,11,3,16)    =   -179.830105     0.000000     0.040213  -179.789892
	   76 D(4,11,13,22)   =      0.374422    -0.000000    -0.009075     0.365347
	   77 D(5,7,12,8)     =     -0.151196    -0.000000    -0.013473    -0.164668
	   78 D(5,10,6,8)     =     -0.911601    -0.000000    -0.016470    -0.928071
	   79 D(5,10,6,19)    =    177.656211     0.000000     0.009926   177.666137
	   80 D(6,8,12,7)     =      0.072567    -0.000000    -0.048914     0.023653
	   81 D(6,10,5,7)     =      0.838970    -0.000000    -0.040989     0.797981
	   82 D(6,10,5,18)    =    179.023824    -0.000000    -0.049527   178.974297
	   83 D(7,5,10,9)     =    178.850328    -0.000000    -0.003620   178.846708
	   84 D(7,12,8,21)    =   -179.489590     0.000000     0.063152  -179.426438
	   85 D(8,6,10,9)     =   -178.926250    -0.000000    -0.055283  -178.981533
	   86 D(8,12,7,20)    =    179.951278     0.000000     0.140028   180.091306
	   87 D(9,1,3,11)     =     -0.365621     0.000000     0.042162    -0.323459
	   88 D(9,1,3,16)     =    179.235450    -0.000000    -0.012551   179.222900
	   89 D(9,2,4,11)     =      0.307098     0.000000     0.011379     0.318477
	   90 D(9,2,4,17)     =    179.705854    -0.000000     0.004113   179.709967
	   91 D(9,10,5,18)    =     -2.964818    -0.000000    -0.012158    -2.976976
	   92 D(9,10,6,19)    =     -0.358438    -0.000000    -0.028887    -0.387325
	   93 D(10,5,7,12)    =     -0.327528     0.000000     0.059283    -0.268244
	   94 D(10,5,7,20)    =    179.566524    -0.000000    -0.099418   179.467106
	   95 D(10,6,8,12)    =      0.484208     0.000000     0.065078     0.549286
	   96 D(10,6,8,21)    =   -179.968517    -0.000000    -0.050769  -180.019286
	   97 D(10,9,1,14)    =     -3.183277    -0.000000    -0.020108    -3.203386
	   98 D(10,9,2,15)    =     -0.410758    -0.000000    -0.025262    -0.436019
	   99 D(11,3,1,14)    =   -178.479763     0.000000     0.046482  -178.433281
	  100 D(11,4,2,15)    =   -178.021471    -0.000000     0.022397  -177.999073
	  101 D(12,7,5,18)    =   -178.553255     0.000000     0.066982  -178.486272
	  102 D(12,8,6,19)    =   -178.115559     0.000000     0.039155  -178.076404
	  103 D(13,11,3,16)   =      0.370364    -0.000000     0.004693     0.375057
	  104 D(13,11,4,17)   =      0.639397     0.000000     0.032175     0.671572
	  105 D(14,1,3,16)    =      1.121309    -0.000000    -0.008231     1.113078
	  106 D(15,2,4,17)    =      1.377286    -0.000000     0.015130     1.392416
	  107 D(18,5,7,20)    =      1.340797    -0.000000    -0.091719     1.249078
	  108 D(19,6,8,21)    =      1.431715    -0.000000    -0.076692     1.355023
	 ---------------------------------------------------------------------------
	Successfully symmetrized geometry.
	 Forces used to impose fixed constraints are not included.
	  Forces zeroed: 63 

  ==> Convergence Check <==

  Measures of convergence in internal coordinates in au.
  Criteria marked as inactive (o), active & met (*), and active & unmet ( ).
  ---------------------------------------------------------------------------------------------
   Step     Total Energy     Delta E     MAX Force     RMS Force      MAX Disp      RMS Disp   
  ---------------------------------------------------------------------------------------------
    Convergence Criteria    1.00e-06 *    3.00e-04 *             o    1.20e-03 *             o
  ---------------------------------------------------------------------------------------------
      6    -553.72458627    8.21e-07 *    8.41e-05 *    1.94e-05 o    2.44e-03      5.72e-04 o  ~
  ---------------------------------------------------------------------------------------------


  **** Optimization is complete! (in 6 steps) ****

  ==> Optimization Summary <==

  Measures of convergence in internal coordinates in au.
  --------------------------------------------------------------------------------------------------------------- ~
   Step         Total Energy             Delta E       MAX Force       RMS Force        MAX Disp        RMS Disp  ~
  --------------------------------------------------------------------------------------------------------------- ~
      1    -553.719447129358   -553.719447129358      0.02621260      0.00584335      0.03857414      0.00961470  ~
      2    -553.723482556908     -0.004035427550      0.00815601      0.00217286      0.02711844      0.00960851  ~
      3    -553.724489171373     -0.001006614465      0.00130843      0.00036685      0.04007746      0.00789569  ~
      4    -553.724577312273     -0.000088140900      0.00057286      0.00012649      0.00973468      0.00214052  ~
      5    -553.724587091691     -0.000009779418      0.00020022      0.00004574      0.00176368      0.00045397  ~
      6    -553.724586270956      0.000000820735      0.00008413      0.00001941      0.00244395      0.00057222  ~
  --------------------------------------------------------------------------------------------------------------- ~

	Writing optimization data to binary file.
	Final energy is   -553.7245862709561
	Final (previous) structure:
	Cartesian Geometry (in Angstrom)
	    C    -1.2652482513   0.7439374329  -0.5444603469
	    C    -0.3000174580   0.0921455985   1.5364504880
	    C    -2.3380834172   1.3088399133   0.1202254798
	    C    -1.3702585502   0.6543170884   2.2121856920
	    C     0.8479247058  -0.7837473630  -1.9258892107
	    C     2.1086842660  -0.7838429103   0.0714456002
	    C     1.9420028596  -1.3496584516  -2.5595628746
	    C     3.1511644518  -1.3510938252  -0.6426542006
	    C    -0.2170438349   0.1312759005   0.1450857097
	    C     0.9039640743  -0.4898759759  -0.5647788729
	    C    -2.3948509045   1.2687037844   1.5059244173
	    N     3.0903604441  -1.6400858569  -1.9443574596
	    O    -3.4738928024   1.8409028937   2.1063861612
	    H    -1.2368598204   0.8127576106  -1.6204028705
	    H     0.4646453284  -0.4066338146   2.1107645562
	    H    -3.1366073663   1.7904696004  -0.4222819187
	    H    -1.4113940279   0.6053158794   3.2915683133
	    H    -0.0487657338  -0.6047672953  -2.4976258553
	    H     2.2569264093  -0.5558662845   1.1151254653
	    H     1.8919849602  -1.5826029194  -3.6141827809
	    H     4.0838743529  -1.5780085547  -0.1450566789
	    H    -3.3884810130   1.7467013519   3.0599445488
	Saving final (previous) structure.
			--------------------------
			 OPTKING Finished Execution 
			--------------------------

    Final optimized geometry and variables:
    Molecular point group: c1
    Full point group: C1

    Geometry (in Angstrom), charge = 0, multiplicity = 1:

    C           -1.265248251330     0.743937432900    -0.544460346894
    C           -0.300017458002     0.092145598473     1.536450488049
    C           -2.338083417220     1.308839913304     0.120225479824
    C           -1.370258550189     0.654317088444     2.212185691979
    C            0.847924705831    -0.783747362969    -1.925889210699
    C            2.108684265957    -0.783842910265     0.071445600247
    C            1.942002859606    -1.349658451642    -2.559562874589
    C            3.151164451756    -1.351093825190    -0.642654200622
    C           -0.217043834948     0.131275900465     0.145085709689
    C            0.903964074323    -0.489875975939    -0.564778872852
    C           -2.394850904465     1.268703784403     1.505924417257
    N            3.090360444138    -1.640085856850    -1.944357459623
    O           -3.473892802421     1.840902893673     2.106386161185
    H           -1.236859820372     0.812757610581    -1.620402870524
    H            0.464645328439    -0.406633814646     2.110764556196
    H           -3.136607366338     1.790469600407    -0.422281918740
    H           -1.411394027892     0.605315879450     3.291568313291
    H           -0.048765733781    -0.604767295332    -2.497625855328
    H            2.256926409293    -0.555866284538     1.115125465279
    H            1.891984960160    -1.582602919410    -3.614182780893
    H            4.083874352857    -1.578008554670    -0.145056678859
    H           -3.388481012991     1.746701351924     3.059944548800

	Cleaning optimization helper files.

*** Psi4 exiting successfully. Buy a developer a beer!
