
    -----------------------------------------------------------------------
          Psi4: An Open-Source Ab Initio Electronic Structure Package
                               Psi4 1.1 release

                         Git: Rev {HEAD} add49b9 


    R. M. Parrish, L. A. Burns, D. G. A. Smith, A. C. Simmonett,
    A. E. DePrince III, E. G. Hohenstein, U. Bozkaya, A. Yu. Sokolov,
    R. Di Remigio, R. M. Richard, J. F. Gonthier, A. M. James,
    H. R. McAlexander, A. Kumar, M. Saitow, X. Wang, B. P. Pritchard,
    P. Verma, H. F. Schaefer III, K. Patkowski, R. A. King, E. F. Valeev,
    F. A. Evangelista, J. M. Turney, T. D. Crawford, and C. D. Sherrill,
    J. Chem. Theory Comput. in press (2017).
    (doi: 10.1021/acs.jctc.7b00174)

    -----------------------------------------------------------------------


    Psi4 started on: Sunday, 12 November 2017 12:32AM

    Process ID:  21205
    PSIDATADIR: /cbio/jclab/home/chayas/anaconda/envs/py35/share/psi4
    Memory:     500.0 MiB
    Threads:    8
    
  ==> Input File <==

--------------------------------------------------------------------------

memory 5 Gb

molecule phepyrFOH_neutral {
  symmetry C1
  0 1 
  C      1.885   -1.036   -0.112
  C      0.807   -0.463   0.561
  C      3.825   -3.269   -0.988
  C      5.328   -1.753   0.119
  C      1.800   -1.079   2.676
  C      4.927   -3.802   -1.637
  C      6.363   -2.354   -0.579
  C      2.921   -1.631   0.608
  C      4.038   -2.225   -0.095
  C      0.764   -0.484   1.955
  C      2.878   -1.652   2.002
  N      6.195   -3.370   -1.455
  O      -0.289   0.076   2.612
  F      3.866   -2.220   2.709
  H      1.904   -1.012   -1.199
  H      0.002   -0.002   -0.006
  H      2.833   -3.663   -1.183
  H      5.532   -0.940   0.809
  H      1.772   -1.099   3.762
  H      4.814   -4.616   -2.345
  H      7.387   -2.023   -0.446
  H      -1.070   -0.496   2.543
  units Angstrom
}

dih_string = "2 10 13 22 75"
set optking fixed_dihedral = $dih_string

optimize('MP2/aug-cc-PVTZ')
--------------------------------------------------------------------------

  Memory set to   4.657 GiB by Python driver.
gradient() will perform analytic gradient computation.

*** tstart() called on gpu-1-11.local
*** at Sun Nov 12 00:32:20 2017

    SCF Algorithm Type (re)set to DF.

*** tstart() called on gpu-1-11.local
*** at Sun Nov 12 00:32:20 2017

   => Loading Basis Set <=

    Name: AUG-CC-PVTZ
    Role: ORBITAL
    Keyword: BASIS
    atoms 1-11  entry C          line   221 file /cbio/jclab/home/chayas/anaconda/envs/py35/share/psi4/basis/aug-cc-pvtz.gbs 
    atoms 12    entry N          line   267 file /cbio/jclab/home/chayas/anaconda/envs/py35/share/psi4/basis/aug-cc-pvtz.gbs 
    atoms 13    entry O          line   313 file /cbio/jclab/home/chayas/anaconda/envs/py35/share/psi4/basis/aug-cc-pvtz.gbs 
    atoms 14    entry F          line   359 file /cbio/jclab/home/chayas/anaconda/envs/py35/share/psi4/basis/aug-cc-pvtz.gbs 
    atoms 15-22 entry H          line    34 file /cbio/jclab/home/chayas/anaconda/envs/py35/share/psi4/basis/aug-cc-pvtz.gbs 


         ---------------------------------------------------------
                                   SCF
            by Justin Turney, Rob Parrish, and Andy Simmonett
                              RHF Reference
                        8 Threads,   4768 MiB Core
         ---------------------------------------------------------

  ==> Geometry <==

    Molecular point group: c1
    Full point group: C1

    Geometry (in Angstrom), charge = 0, multiplicity = 1:

       Center              X                  Y                   Z               Mass       
    ------------   -----------------  -----------------  -----------------  -----------------
           C         -1.316972413752     0.757549102247    -0.794014955462    12.000000000000
           C         -2.394972413752     1.330549102247    -0.121014955462    12.000000000000
           C          0.623027586248    -1.475450897753    -1.670014955462    12.000000000000
           C          2.126027586248     0.040549102247    -0.563014955462    12.000000000000
           C         -1.401972413752     0.714549102247     1.993985044538    12.000000000000
           C          1.725027586248    -2.008450897753    -2.319014955462    12.000000000000
           C          3.161027586248    -0.560450897753    -1.261014955462    12.000000000000
           C         -0.280972413752     0.162549102247    -0.074014955462    12.000000000000
           C          0.836027586248    -0.431450897753    -0.777014955462    12.000000000000
           C         -2.437972413752     1.309549102247     1.272985044538    12.000000000000
           C         -0.323972413752     0.141549102247     1.319985044538    12.000000000000
           N          2.993027586248    -1.576450897753    -2.137014955462    14.003074004780
           O         -3.490972413752     1.869549102247     1.929985044538    15.994914619560
           F          0.664027586248    -0.426450897753     2.026985044538    18.998403224000
           H         -1.297972413752     0.781549102247    -1.881014955462     1.007825032070
           H         -3.199972413752     1.791549102247    -0.688014955462     1.007825032070
           H         -0.368972413752    -1.869450897753    -1.865014955462     1.007825032070
           H          2.330027586248     0.853549102247     0.126985044538     1.007825032070
           H         -1.429972413752     0.694549102247     3.079985044538     1.007825032070
           H          1.612027586248    -2.822450897753    -3.027014955462     1.007825032070
           H          4.185027586248    -0.229450897753    -1.128014955462     1.007825032070
           H         -4.271972413752     1.297549102247     1.860985044538     1.007825032070

  Running in c1 symmetry.

  Rotational constants: A =      0.06311  B =      0.01307  C =      0.01165 [cm^-1]
  Rotational constants: A =   1891.89349  B =    391.86143  C =    349.23387 [MHz]
  Nuclear repulsion =  813.829270352154367

  Charge       = 0
  Multiplicity = 1
  Electrons    = 98
  Nalpha       = 49
  Nbeta        = 49

  ==> Algorithm <==

  SCF Algorithm Type is DF.
  DIIS enabled.
  MOM disabled.
  Fractional occupation disabled.
  Guess Type is SAD.
  Energy threshold   = 1.00e-10
  Density threshold  = 1.00e-10
  Integral threshold = 0.00e+00

  ==> Primary Basis <==

  Basis Set: AUG-CC-PVTZ
    Blend: AUG-CC-PVTZ
    Number of shells: 268
    Number of basis function: 828
    Number of Cartesian functions: 970
    Spherical Harmonics?: true
    Max angular momentum: 3

   => Loading Basis Set <=

    Name: (AUG-CC-PVTZ AUX)
    Role: JKFIT
    Keyword: DF_BASIS_SCF
    atoms 1-11  entry C          line   161 file /cbio/jclab/home/chayas/anaconda/envs/py35/share/psi4/basis/aug-cc-pvtz-jkfit.gbs 
    atoms 12    entry N          line   223 file /cbio/jclab/home/chayas/anaconda/envs/py35/share/psi4/basis/aug-cc-pvtz-jkfit.gbs 
    atoms 13    entry O          line   285 file /cbio/jclab/home/chayas/anaconda/envs/py35/share/psi4/basis/aug-cc-pvtz-jkfit.gbs 
    atoms 14    entry F          line   347 file /cbio/jclab/home/chayas/anaconda/envs/py35/share/psi4/basis/aug-cc-pvtz-jkfit.gbs 
    atoms 15-22 entry H          line    69 file /cbio/jclab/home/chayas/anaconda/envs/py35/share/psi4/basis/aug-cc-pvtz-jkfit.gbs 

  ==> Pre-Iterations <==

   -------------------------------------------------------
    Irrep   Nso     Nmo     Nalpha   Nbeta   Ndocc  Nsocc
   -------------------------------------------------------
     A        828     828       0       0       0       0
   -------------------------------------------------------
    Total     828     828      49      49      49       0
   -------------------------------------------------------

  ==> Integral Setup <==

  ==> DFJK: Density-Fitted J/K Matrices <==

    J tasked:                  Yes
    K tasked:                  Yes
    wK tasked:                  No
    OpenMP threads:              8
    Integrals threads:           8
    Memory (MB):              3576
    Algorithm:                Disk
    Integral Cache:           NONE
    Schwarz Cutoff:          1E-12
    Fitting Condition:       1E-12

   => Auxiliary Basis Set <=

  Basis Set: (AUG-CC-PVTZ AUX)
    Blend: AUG-CC-PVTZ-JKFIT
    Number of shells: 532
    Number of basis function: 1824
    Number of Cartesian functions: 2274
    Spherical Harmonics?: true
    Max angular momentum: 4

  Minimum eigenvalue in the overlap matrix is 7.7294055591E-07.
  Using Symmetric Orthogonalization.

  SCF Guess: Superposition of Atomic Densities via on-the-fly atomic UHF.

  ==> Iterations <==

                           Total Energy        Delta E     RMS |[F,P]|

   @DF-RHF iter   0:  -655.94117063694603   -6.55941e+02   1.47479e-02 
   @DF-RHF iter   1:  -649.78788004375065    6.15329e+00   1.47293e-03 
   @DF-RHF iter   2:  -650.10574777883153   -3.17868e-01   6.86771e-04 DIIS
   @DF-RHF iter   3:  -650.15473942853532   -4.89916e-02   2.37715e-04 DIIS
   @DF-RHF iter   4:  -650.16836091015284   -1.36215e-02   1.07019e-04 DIIS
   @DF-RHF iter   5:  -650.16961917484082   -1.25826e-03   3.94361e-05 DIIS
   @DF-RHF iter   6:  -650.16984147326980   -2.22298e-04   9.37005e-06 DIIS
   @DF-RHF iter   7:  -650.16986837817592   -2.69049e-05   4.42031e-06 DIIS
   @DF-RHF iter   8:  -650.16987061931684   -2.24114e-06   2.29853e-06 DIIS
   @DF-RHF iter   9:  -650.16987122481646   -6.05500e-07   9.88423e-07 DIIS
   @DF-RHF iter  10:  -650.16987141931122   -1.94495e-07   5.44826e-07 DIIS
   @DF-RHF iter  11:  -650.16987148339285   -6.40816e-08   1.94926e-07 DIIS
   @DF-RHF iter  12:  -650.16987149148724   -8.09439e-09   7.37391e-08 DIIS
   @DF-RHF iter  13:  -650.16987149228191   -7.94671e-10   1.90646e-08 DIIS
   @DF-RHF iter  14:  -650.16987149235183   -6.99174e-11   5.88603e-09 DIIS
   @DF-RHF iter  15:  -650.16987149238241   -3.05818e-11   2.64323e-09 DIIS
   @DF-RHF iter  16:  -650.16987149237218    1.02318e-11   9.91581e-10 DIIS
   @DF-RHF iter  17:  -650.16987149238309   -1.09139e-11   4.06467e-10 DIIS
   @DF-RHF iter  18:  -650.16987149238321   -1.13687e-13   1.93702e-10 DIIS
   @DF-RHF iter  19:  -650.16987149237127    1.19371e-11   7.95926e-11 DIIS

  ==> Post-Iterations <==

    Orbital Energies (a.u.)
    -----------------------

    Doubly Occupied:                                                      

       1A    -26.325361     2A    -20.596674     3A    -15.566691  
       4A    -11.346259     5A    -11.318865     6A    -11.276209  
       7A    -11.275275     8A    -11.266844     9A    -11.263468  
      10A    -11.257574    11A    -11.252690    12A    -11.248067  
      13A    -11.241360    14A    -11.239767    15A     -1.643677  
      16A     -1.414652    17A     -1.251769    18A     -1.181805  
      19A     -1.110513    20A     -1.040506    21A     -1.035400  
      22A     -1.018688    23A     -0.889495    24A     -0.874300  
      25A     -0.852955    26A     -0.826294    27A     -0.774648  
      28A     -0.732793    29A     -0.726376    30A     -0.710744  
      31A     -0.700242    32A     -0.665259    33A     -0.661953  
      34A     -0.649173    35A     -0.632157    36A     -0.628322  
      37A     -0.603703    38A     -0.600274    39A     -0.561229  
      40A     -0.539535    41A     -0.534831    42A     -0.523880  
      43A     -0.507394    44A     -0.497100    45A     -0.420704  
      46A     -0.390614    47A     -0.357865    48A     -0.350175  
      49A     -0.333461  

    Virtual:                                                              

      50A      0.020767    51A      0.030535    52A      0.033706  
      53A      0.035271    54A      0.042493    55A      0.047627  
      56A      0.051639    57A      0.055328    58A      0.073762  
      59A      0.082274    60A      0.083299    61A      0.083600  
      62A      0.089510    63A      0.092789    64A      0.097475  
      65A      0.100840    66A      0.105602    67A      0.107463  
      68A      0.110098    69A      0.111610    70A      0.117160  
      71A      0.119200    72A      0.119463    73A      0.125043  
      74A      0.126838    75A      0.130913    76A      0.132796  
      77A      0.134326    78A      0.140472    79A      0.144616  
      80A      0.146825    81A      0.148715    82A      0.151689  
      83A      0.155549    84A      0.155917    85A      0.165650  
      86A      0.171638    87A      0.173231    88A      0.178876  
      89A      0.185116    90A      0.195147    91A      0.198666  
      92A      0.209611    93A      0.213767    94A      0.216623  
      95A      0.221956    96A      0.233125    97A      0.234950  
      98A      0.235441    99A      0.238919   100A      0.240407  
     101A      0.243615   102A      0.250443   103A      0.252482  
     104A      0.256288   105A      0.259504   106A      0.265313  
     107A      0.267640   108A      0.269982   109A      0.276219  
     110A      0.277643   111A      0.282491   112A      0.283856  
     113A      0.292302   114A      0.297062   115A      0.299580  
     116A      0.307724   117A      0.310470   118A      0.312002  
     119A      0.314395   120A      0.317346   121A      0.319861  
     122A      0.322664   123A      0.328419   124A      0.330488  
     125A      0.337096   126A      0.340790   127A      0.345589  
     128A      0.351057   129A      0.354529   130A      0.359618  
     131A      0.362716   132A      0.369582   133A      0.378271  
     134A      0.380940   135A      0.384730   136A      0.391580  
     137A      0.398861   138A      0.401429   139A      0.410764  
     140A      0.411100   141A      0.417012   142A      0.420879  
     143A      0.424387   144A      0.426118   145A      0.431295  
     146A      0.433291   147A      0.439001   148A      0.442459  
     149A      0.450369   150A      0.455505   151A      0.460217  
     152A      0.465629   153A      0.470465   154A      0.471599  
     155A      0.476897   156A      0.477705   157A      0.480432  
     158A      0.481426   159A      0.484429   160A      0.490160  
     161A      0.494635   162A      0.496993   163A      0.498459  
     164A      0.503697   165A      0.508398   166A      0.512244  
     167A      0.514101   168A      0.514866   169A      0.519941  
     170A      0.520701   171A      0.528028   172A      0.529206  
     173A      0.536073   174A      0.539980   175A      0.541615  
     176A      0.548547   177A      0.549520   178A      0.555093  
     179A      0.561027   180A      0.564886   181A      0.571426  
     182A      0.577268   183A      0.585173   184A      0.585577  
     185A      0.589220   186A      0.599295   187A      0.605071  
     188A      0.609219   189A      0.615697   190A      0.621624  
     191A      0.627100   192A      0.630781   193A      0.637409  
     194A      0.642287   195A      0.645219   196A      0.655278  
     197A      0.661328   198A      0.668194   199A      0.675697  
     200A      0.678847   201A      0.684122   202A      0.691605  
     203A      0.698916   204A      0.701866   205A      0.706099  
     206A      0.710435   207A      0.721806   208A      0.723754  
     209A      0.727433   210A      0.730597   211A      0.735129  
     212A      0.738782   213A      0.742298   214A      0.755675  
     215A      0.762543   216A      0.763502   217A      0.768920  
     218A      0.776775   219A      0.787909   220A      0.793876  
     221A      0.799190   222A      0.803145   223A      0.809085  
     224A      0.819135   225A      0.825562   226A      0.833042  
     227A      0.834858   228A      0.844877   229A      0.847564  
     230A      0.850971   231A      0.851654   232A      0.859823  
     233A      0.866351   234A      0.872294   235A      0.873175  
     236A      0.879895   237A      0.883890   238A      0.894316  
     239A      0.896033   240A      0.901029   241A      0.905809  
     242A      0.910504   243A      0.918270   244A      0.925463  
     245A      0.928435   246A      0.931970   247A      0.935352  
     248A      0.944205   249A      0.948228   250A      0.951331  
     251A      0.955380   252A      0.958141   253A      0.962127  
     254A      0.963099   255A      0.966031   256A      0.975109  
     257A      0.978161   258A      0.982244   259A      0.987105  
     260A      0.992165   261A      0.993639   262A      1.004539  
     263A      1.008361   264A      1.014124   265A      1.016277  
     266A      1.023790   267A      1.025432   268A      1.031561  
     269A      1.032903   270A      1.037126   271A      1.041704  
     272A      1.049490   273A      1.052596   274A      1.064309  
     275A      1.066569   276A      1.068310   277A      1.073504  
     278A      1.078181   279A      1.081535   280A      1.084737  
     281A      1.089239   282A      1.090213   283A      1.097765  
     284A      1.099535   285A      1.107984   286A      1.114238  
     287A      1.116026   288A      1.120364   289A      1.131250  
     290A      1.133022   291A      1.139358   292A      1.144875  
     293A      1.146850   294A      1.151090   295A      1.155154  
     296A      1.160002   297A      1.162905   298A      1.168477  
     299A      1.177299   300A      1.182012   301A      1.183859  
     302A      1.188749   303A      1.195915   304A      1.198723  
     305A      1.203013   306A      1.206303   307A      1.215671  
     308A      1.216731   309A      1.224878   310A      1.233164  
     311A      1.237590   312A      1.242268   313A      1.248926  
     314A      1.253300   315A      1.264466   316A      1.269760  
     317A      1.272422   318A      1.274789   319A      1.288090  
     320A      1.288447   321A      1.302600   322A      1.304841  
     323A      1.307388   324A      1.317386   325A      1.321286  
     326A      1.329313   327A      1.336387   328A      1.348369  
     329A      1.350948   330A      1.355121   331A      1.357544  
     332A      1.366028   333A      1.371175   334A      1.380987  
     335A      1.394734   336A      1.395884   337A      1.403024  
     338A      1.406021   339A      1.413866   340A      1.424303  
     341A      1.427231   342A      1.437661   343A      1.450701  
     344A      1.454241   345A      1.465764   346A      1.469169  
     347A      1.483459   348A      1.487516   349A      1.493325  
     350A      1.502467   351A      1.507501   352A      1.513507  
     353A      1.525553   354A      1.538004   355A      1.548570  
     356A      1.557145   357A      1.561315   358A      1.569145  
     359A      1.574614   360A      1.581729   361A      1.583314  
     362A      1.589997   363A      1.609986   364A      1.621197  
     365A      1.624360   366A      1.628738   367A      1.634552  
     368A      1.641872   369A      1.646531   370A      1.655816  
     371A      1.659545   372A      1.665935   373A      1.671938  
     374A      1.684281   375A      1.688611   376A      1.692961  
     377A      1.702565   378A      1.713750   379A      1.715644  
     380A      1.727612   381A      1.731930   382A      1.739233  
     383A      1.743712   384A      1.745740   385A      1.761372  
     386A      1.765272   387A      1.770172   388A      1.784701  
     389A      1.790620   390A      1.799561   391A      1.808628  
     392A      1.812446   393A      1.829797   394A      1.836284  
     395A      1.841890   396A      1.846192   397A      1.864079  
     398A      1.867976   399A      1.879685   400A      1.882209  
     401A      1.890371   402A      1.894970   403A      1.897834  
     404A      1.909203   405A      1.910713   406A      1.920893  
     407A      1.938115   408A      1.940802   409A      1.946231  
     410A      1.954905   411A      1.956076   412A      1.963422  
     413A      1.971170   414A      1.990793   415A      1.998442  
     416A      2.002479   417A      2.009405   418A      2.013700  
     419A      2.022839   420A      2.035086   421A      2.037258  
     422A      2.044127   423A      2.052990   424A      2.061821  
     425A      2.074565   426A      2.078434   427A      2.083596  
     428A      2.091019   429A      2.098229   430A      2.099053  
     431A      2.104913   432A      2.116213   433A      2.123667  
     434A      2.125491   435A      2.142527   436A      2.147495  
     437A      2.159106   438A      2.166403   439A      2.176098  
     440A      2.186972   441A      2.192051   442A      2.199211  
     443A      2.205204   444A      2.211252   445A      2.220934  
     446A      2.225328   447A      2.244882   448A      2.256867  
     449A      2.259154   450A      2.266253   451A      2.276415  
     452A      2.282729   453A      2.296849   454A      2.302060  
     455A      2.311924   456A      2.320137   457A      2.327045  
     458A      2.340297   459A      2.353207   460A      2.360156  
     461A      2.377985   462A      2.383433   463A      2.391530  
     464A      2.413681   465A      2.421999   466A      2.426148  
     467A      2.441979   468A      2.458478   469A      2.464970  
     470A      2.470486   471A      2.475108   472A      2.495715  
     473A      2.516837   474A      2.528141   475A      2.543905  
     476A      2.556893   477A      2.567871   478A      2.571180  
     479A      2.583824   480A      2.585634   481A      2.595011  
     482A      2.609528   483A      2.626733   484A      2.649584  
     485A      2.655468   486A      2.679576   487A      2.689279  
     488A      2.698199   489A      2.709090   490A      2.732552  
     491A      2.736319   492A      2.760171   493A      2.769068  
     494A      2.775394   495A      2.789378   496A      2.816765  
     497A      2.830107   498A      2.839496   499A      2.857719  
     500A      2.861207   501A      2.877508   502A      2.879799  
     503A      2.944464   504A      2.958652   505A      2.975484  
     506A      2.992429   507A      3.000399   508A      3.012175  
     509A      3.044962   510A      3.060905   511A      3.085173  
     512A      3.097577   513A      3.105345   514A      3.118192  
     515A      3.128502   516A      3.146422   517A      3.167296  
     518A      3.175093   519A      3.184815   520A      3.190095  
     521A      3.204599   522A      3.211867   523A      3.217296  
     524A      3.232703   525A      3.253722   526A      3.268354  
     527A      3.282175   528A      3.292525   529A      3.301799  
     530A      3.317655   531A      3.333222   532A      3.339987  
     533A      3.353947   534A      3.362293   535A      3.378708  
     536A      3.396115   537A      3.397442   538A      3.406454  
     539A      3.427259   540A      3.428330   541A      3.434552  
     542A      3.441638   543A      3.445915   544A      3.452394  
     545A      3.455339   546A      3.472084   547A      3.480728  
     548A      3.498892   549A      3.503182   550A      3.514558  
     551A      3.523966   552A      3.532325   553A      3.542458  
     554A      3.548701   555A      3.560461   556A      3.562163  
     557A      3.569941   558A      3.581292   559A      3.588456  
     560A      3.590579   561A      3.597173   562A      3.607107  
     563A      3.621119   564A      3.623756   565A      3.635475  
     566A      3.637841   567A      3.652130   568A      3.657569  
     569A      3.664770   570A      3.675452   571A      3.690495  
     572A      3.698907   573A      3.702948   574A      3.712476  
     575A      3.727145   576A      3.741897   577A      3.744554  
     578A      3.752413   579A      3.758916   580A      3.772214  
     581A      3.782942   582A      3.795187   583A      3.798910  
     584A      3.815808   585A      3.819130   586A      3.821870  
     587A      3.836214   588A      3.850923   589A      3.857642  
     590A      3.865957   591A      3.870385   592A      3.881811  
     593A      3.884671   594A      3.895671   595A      3.908281  
     596A      3.920955   597A      3.923347   598A      3.929661  
     599A      3.938603   600A      3.942312   601A      3.950340  
     602A      3.954644   603A      3.961450   604A      3.969866  
     605A      3.973169   606A      3.989070   607A      3.997969  
     608A      4.009932   609A      4.016066   610A      4.022021  
     611A      4.032968   612A      4.040947   613A      4.045783  
     614A      4.060396   615A      4.071595   616A      4.082804  
     617A      4.091443   618A      4.095618   619A      4.100533  
     620A      4.115341   621A      4.125375   622A      4.133112  
     623A      4.140951   624A      4.155684   625A      4.157758  
     626A      4.171737   627A      4.184663   628A      4.189779  
     629A      4.195913   630A      4.209704   631A      4.220597  
     632A      4.223091   633A      4.232693   634A      4.241592  
     635A      4.249905   636A      4.262126   637A      4.281334  
     638A      4.288739   639A      4.299042   640A      4.302827  
     641A      4.313993   642A      4.320409   643A      4.332076  
     644A      4.339599   645A      4.347851   646A      4.353171  
     647A      4.362621   648A      4.373765   649A      4.387501  
     650A      4.389818   651A      4.404172   652A      4.413262  
     653A      4.425061   654A      4.430427   655A      4.440740  
     656A      4.449353   657A      4.458147   658A      4.465510  
     659A      4.474541   660A      4.487018   661A      4.498981  
     662A      4.510901   663A      4.525433   664A      4.529458  
     665A      4.552463   666A      4.570722   667A      4.579622  
     668A      4.584031   669A      4.597922   670A      4.605038  
     671A      4.613159   672A      4.624482   673A      4.627466  
     674A      4.649639   675A      4.655380   676A      4.682728  
     677A      4.704128   678A      4.712433   679A      4.721222  
     680A      4.733265   681A      4.747199   682A      4.752312  
     683A      4.764796   684A      4.770965   685A      4.789927  
     686A      4.808366   687A      4.812935   688A      4.858528  
     689A      4.861513   690A      4.885560   691A      4.906609  
     692A      4.911217   693A      4.928726   694A      4.942932  
     695A      4.949599   696A      4.967196   697A      4.969959  
     698A      4.978915   699A      4.997816   700A      5.006513  
     701A      5.016289   702A      5.029763   703A      5.036960  
     704A      5.046679   705A      5.050319   706A      5.057707  
     707A      5.076251   708A      5.089524   709A      5.099225  
     710A      5.110812   711A      5.132918   712A      5.138961  
     713A      5.155723   714A      5.166965   715A      5.174449  
     716A      5.179121   717A      5.183596   718A      5.188443  
     719A      5.193330   720A      5.203069   721A      5.224584  
     722A      5.232748   723A      5.281007   724A      5.292386  
     725A      5.305097   726A      5.318430   727A      5.330383  
     728A      5.343589   729A      5.369140   730A      5.380893  
     731A      5.386971   732A      5.405031   733A      5.442662  
     734A      5.454987   735A      5.462817   736A      5.468320  
     737A      5.500295   738A      5.509080   739A      5.543243  
     740A      5.555638   741A      5.580477   742A      5.598597  
     743A      5.625621   744A      5.646793   745A      5.667566  
     746A      5.706906   747A      5.728427   748A      5.739815  
     749A      5.757228   750A      5.777602   751A      5.796530  
     752A      5.800686   753A      5.832051   754A      5.846704  
     755A      5.871564   756A      5.881432   757A      5.908358  
     758A      5.951885   759A      6.007786   760A      6.025489  
     761A      6.080041   762A      6.113931   763A      6.166650  
     764A      6.183191   765A      6.215257   766A      6.248738  
     767A      6.271417   768A      6.287480   769A      6.303372  
     770A      6.344385   771A      6.360129   772A      6.449012  
     773A      6.484921   774A      6.510244   775A      6.552780  
     776A      6.572693   777A      6.677841   778A      6.698084  
     779A      6.708008   780A      6.726721   781A      6.742890  
     782A      6.800796   783A      6.869677   784A      6.872157  
     785A      6.905691   786A      6.927215   787A      6.959109  
     788A      7.051617   789A      7.071925   790A      7.125649  
     791A      7.282244   792A      7.336740   793A      7.400428  
     794A      7.415089   795A      7.439441   796A      7.529199  
     797A      7.569377   798A      7.663622   799A      7.858372  
     800A      7.945246   801A      8.161750   802A      8.598679  
     803A      9.004735   804A      9.046941   805A      9.268991  
     806A      9.290121   807A      9.406584   808A      9.517397  
     809A      9.540616   810A      9.587153   811A      9.638899  
     812A      9.717247   813A     10.028275   814A     10.075517  
     815A     15.524926   816A     16.120440   817A     16.553738  
     818A     16.602000   819A     16.709021   820A     17.095639  
     821A     18.462330   822A     18.710178   823A     19.175505  
     824A     19.886667   825A     20.157584   826A     20.296122  
     827A     20.557327   828A     21.776995  

    Final Occupation by Irrep:
              A 
    DOCC [    49 ]

  Energy converged.

  @DF-RHF Final Energy:  -650.16987149237127

   => Energetics <=

    Nuclear Repulsion Energy =            813.8292703521543672
    One-Electron Energy =               -2502.5631023093574186
    Two-Electron Energy =                1038.5639604648320073
    DFT Exchange-Correlation Energy =       0.0000000000000000
    Empirical Dispersion Energy =           0.0000000000000000
    PCM Polarization Energy =               0.0000000000000000
    EFP Energy =                            0.0000000000000000
    Total Energy =                       -650.1698714923711577



Properties will be evaluated at   0.000000,   0.000000,   0.000000 Bohr

Properties computed using the SCF density matrix

  Nuclear Dipole Moment: (a.u.)
     X:    -2.9410      Y:     0.8821      Z:    -5.1976

  Electronic Dipole Moment: (a.u.)
     X:     1.4982      Y:    -0.7084      Z:     5.1757

  Dipole Moment: (a.u.)
     X:    -1.4428      Y:     0.1738      Z:    -0.0219     Total:     1.4534

  Dipole Moment: (Debye)
     X:    -3.6672      Y:     0.4417      Z:    -0.0556     Total:     3.6942


*** tstop() called on gpu-1-11.local at Sun Nov 12 00:40:18 2017
Module time:
	user time   =    1123.71 seconds =      18.73 minutes
	system time =      47.96 seconds =       0.80 minutes
	total time  =        478 seconds =       7.97 minutes
Total time:
	user time   =    1123.72 seconds =      18.73 minutes
	system time =      47.96 seconds =       0.80 minutes
	total time  =        478 seconds =       7.97 minutes

  //>>>>>>>>>>>>>>>>>>>>>>>>>>>>>>>>>>>//
  //               DFMP2               //
  //<<<<<<<<<<<<<<<<<<<<<<<<<<<<<<<<<<<//

   => Loading Basis Set <=

    Name: (AUG-CC-PVTZ AUX)
    Role: RIFIT
    Keyword: DF_BASIS_MP2
    atoms 1-11  entry C          line   147 file /cbio/jclab/home/chayas/anaconda/envs/py35/share/psi4/basis/aug-cc-pvtz-ri.gbs 
    atoms 12    entry N          line   205 file /cbio/jclab/home/chayas/anaconda/envs/py35/share/psi4/basis/aug-cc-pvtz-ri.gbs 
    atoms 13    entry O          line   263 file /cbio/jclab/home/chayas/anaconda/envs/py35/share/psi4/basis/aug-cc-pvtz-ri.gbs 
    atoms 14    entry F          line   321 file /cbio/jclab/home/chayas/anaconda/envs/py35/share/psi4/basis/aug-cc-pvtz-ri.gbs 
    atoms 15-22 entry H          line    29 file /cbio/jclab/home/chayas/anaconda/envs/py35/share/psi4/basis/aug-cc-pvtz-ri.gbs 

	 --------------------------------------------------------
	                          DF-MP2                         
	      2nd-Order Density-Fitted Moller-Plesset Theory     
	              RMP2 Wavefunction,   8 Threads             
	                                                         
	        Rob Parrish, Justin Turney, Andy Simmonett,      
	           Ed Hohenstein, and C. David Sherrill          
	 --------------------------------------------------------

   => Auxiliary Basis Set <=

  Basis Set: (AUG-CC-PVTZ AUX)
    Blend: AUG-CC-PVTZ-RI
    Number of shells: 504
    Number of basis function: 1852
    Number of Cartesian functions: 2344
    Spherical Harmonics?: true
    Max angular momentum: 4

	 --------------------------------------------------------
	                 NBF =   828, NAUX =  1852
	 --------------------------------------------------------
	   CLASS    FOCC     OCC    AOCC    AVIR     VIR    FVIR
	   PAIRS       0      49      49     779     779       0
	 --------------------------------------------------------


         ------------------------------------------------------------
                                     CPHF                           
                                  Rob Parrish                       
         ------------------------------------------------------------

  ==> Geometry <==

    Molecular point group: c1
    Full point group: C1

    Geometry (in Angstrom), charge = 0, multiplicity = 1:

       Center              X                  Y                   Z               Mass       
    ------------   -----------------  -----------------  -----------------  -----------------
           C         -1.316972413752     0.757549102247    -0.794014955462    12.000000000000
           C         -2.394972413752     1.330549102247    -0.121014955462    12.000000000000
           C          0.623027586248    -1.475450897753    -1.670014955462    12.000000000000
           C          2.126027586248     0.040549102247    -0.563014955462    12.000000000000
           C         -1.401972413752     0.714549102247     1.993985044538    12.000000000000
           C          1.725027586248    -2.008450897753    -2.319014955462    12.000000000000
           C          3.161027586248    -0.560450897753    -1.261014955462    12.000000000000
           C         -0.280972413752     0.162549102247    -0.074014955462    12.000000000000
           C          0.836027586248    -0.431450897753    -0.777014955462    12.000000000000
           C         -2.437972413752     1.309549102247     1.272985044538    12.000000000000
           C         -0.323972413752     0.141549102247     1.319985044538    12.000000000000
           N          2.993027586248    -1.576450897753    -2.137014955462    14.003074004780
           O         -3.490972413752     1.869549102247     1.929985044538    15.994914619560
           F          0.664027586248    -0.426450897753     2.026985044538    18.998403224000
           H         -1.297972413752     0.781549102247    -1.881014955462     1.007825032070
           H         -3.199972413752     1.791549102247    -0.688014955462     1.007825032070
           H         -0.368972413752    -1.869450897753    -1.865014955462     1.007825032070
           H          2.330027586248     0.853549102247     0.126985044538     1.007825032070
           H         -1.429972413752     0.694549102247     3.079985044538     1.007825032070
           H          1.612027586248    -2.822450897753    -3.027014955462     1.007825032070
           H          4.185027586248    -0.229450897753    -1.128014955462     1.007825032070
           H         -4.271972413752     1.297549102247     1.860985044538     1.007825032070

  Nuclear repulsion =  813.829270352154367
  Reference energy  = -650.169871492371271

  ==> Basis Set <==

  Basis Set: AUG-CC-PVTZ
    Blend: AUG-CC-PVTZ
    Number of shells: 268
    Number of basis function: 828
    Number of Cartesian functions: 970
    Spherical Harmonics?: true
    Max angular momentum: 3

  ==> CGRSolver (by Rob Parrish) <==

   Number of roots    =         1
   Preconditioning    =    JACOBI
   Convergence cutoff =     1E-06
   Maximum iterations =       100

  ==> CPHFRHamiltonian (by Rob Parrish) <== 

  ==> DFJK: Density-Fitted J/K Matrices <==

    J tasked:                  Yes
    K tasked:                  Yes
    wK tasked:                  No
    OpenMP threads:              8
    Integrals threads:           8
    Memory (MB):              3576
    Algorithm:                Disk
    Integral Cache:           NONE
    Schwarz Cutoff:          1E-12
    Fitting Condition:       1E-12

   => Auxiliary Basis Set <=

  Basis Set: (AUG-CC-PVTZ AUX)
    Blend: AUG-CC-PVTZ-JKFIT
    Number of shells: 532
    Number of basis function: 1824
    Number of Cartesian functions: 2274
    Spherical Harmonics?: true
    Max angular momentum: 4

  ==> CPHF Iterations <==

  => Iterations <=

             Iter  Converged  Remaining    Residual
  CGR           1          0          1   9.779E-02
  CGR           2          0          1   3.120E-02
  CGR           3          0          1   2.051E-02
  CGR           4          0          1   9.434E-03
  CGR           5          0          1   3.847E-03
  CGR           6          0          1   1.366E-03
  CGR           7          0          1   3.927E-04
  CGR           8          0          1   1.246E-04
  CGR           9          0          1   4.465E-05
  CGR          10          0          1   1.396E-05
  CGR          11          0          1   6.626E-06
  CGR          12          0          1   2.804E-06
  CGR          13          0          1   1.358E-06
  CGR          14          1          0   5.131E-07

    CGRSolver converged.

  ==> DFCorrGrad: Density-Fitted Correlated Gradients <==

    OpenMP threads:              8
    Integrals threads:           8
    Memory (MB):              3576
    Schwarz Cutoff:          0E+00
    Fitting Condition:       1E-12

   => Auxiliary Basis Set <=

  Basis Set: (AUG-CC-PVTZ AUX)
    Blend: AUG-CC-PVTZ-JKFIT
    Number of shells: 532
    Number of basis function: 1824
    Number of Cartesian functions: 2274
    Spherical Harmonics?: true
    Max angular momentum: 4

	-----------------------------------------------------------
	 ==================> DF-MP2 Energies <==================== 
	-----------------------------------------------------------
	 Reference Energy          =    -650.1698714923712714 [Eh]
	 Singles Energy            =      -0.0000000000000003 [Eh]
	 Same-Spin Energy          =      -0.6770673293275042 [Eh]
	 Opposite-Spin Energy      =      -2.0187622473068849 [Eh]
	 Correlation Energy        =      -2.6958295766343894 [Eh]
	 Total Energy              =    -652.8657010690056950 [Eh]
	-----------------------------------------------------------
	 ================> DF-SCS-MP2 Energies <================== 
	-----------------------------------------------------------
	 SCS Same-Spin Scale       =       0.3333333333333333 [-]
	 SCS Opposite-Spin Scale   =       1.2000000000000000 [-]
	 SCS Same-Spin Energy      =      -0.2256891097758347 [Eh]
	 SCS Opposite-Spin Energy  =      -2.4225146967682618 [Eh]
	 SCS Correlation Energy    =      -2.6482038065440969 [Eh]
	 SCS Total Energy          =    -652.8180752989153461 [Eh]
	-----------------------------------------------------------


  -Total Gradient:
     Atom            X                  Y                   Z
    ------   -----------------  -----------------  -----------------
       1        0.009955017801    -0.002348924815    -0.011011251176
       2       -0.002512137927     0.000907932223     0.004081599062
       3       -0.007096871238    -0.001029153079     0.002904003993
       4       -0.003667564481     0.005749667171     0.003575371994
       5       -0.005238114437     0.001260894868    -0.003546989516
       6       -0.014054435620    -0.000976546575     0.002573420787
       7       -0.003130416129     0.009486861248     0.008796873807
       8       -0.000551577688     0.000347970765    -0.002603378146
       9       -0.001876071683     0.001153346536    -0.000559968905
      10       -0.008983636942     0.013054685721     0.012619637753
      11        0.020681089464    -0.016087228471     0.005346100299
      12        0.013597002835    -0.006737345081    -0.008468067487
      13        0.012678509251    -0.001328765323    -0.010267914533
      14        0.001824285510    -0.000298539617     0.002714105894
      15       -0.003351756589     0.001556112160    -0.006023970511
      16       -0.003315813312     0.001249989595    -0.005184777817
      17       -0.003132160033    -0.002578491364    -0.002726577392
      18        0.002856363441     0.003652441406     0.002777403450
      19        0.000926130893    -0.000133295701     0.005536432761
      20        0.000401298192    -0.001777613424    -0.001992906206
      21        0.002534929964     0.000176063702     0.000072056607
      22       -0.008544071272    -0.005300061935     0.001388795276


*** tstop() called on gpu-1-11.local at Sun Nov 12 01:18:16 2017
Module time:
	user time   =    5926.13 seconds =      98.77 minutes
	system time =     109.52 seconds =       1.83 minutes
	total time  =       2756 seconds =      45.93 minutes
Total time:
	user time   =    5926.14 seconds =      98.77 minutes
	system time =     109.52 seconds =       1.83 minutes
	total time  =       2756 seconds =      45.93 minutes

			-----------------------------------------
			 OPTKING 2.0: for geometry optimizations 
			  - R.A. King,  Bethel University        
			-----------------------------------------

	Internal coordinates to be generated automatically.
	Detected frag 1 with atoms:  1 2 3 4 5 6 7 8 9 10 11 12 13 14 15 16 17 18 19 20
	 21 22
	---Fragment 1 Bond Connectivity---
	 1 : 2 8 15
	 2 : 1 10 16
	 3 : 6 9 17
	 4 : 7 9 18
	 5 : 10 11 19
	 6 : 3 12 20
	 7 : 4 12 21
	 8 : 1 9 11
	 9 : 3 4 8
	 10 : 2 5 13
	 11 : 5 8 14
	 12 : 6 7
	 13 : 10 22
	 14 : 11
	 15 : 1
	 16 : 2
	 17 : 3
	 18 : 4
	 19 : 5
	 20 : 6
	 21 : 7
	 22 : 13

	Assuming in current code that numbering for constraints corresponds to unified fragment.
	Fixed dihedral atom list: 
	     2    10    13    22
	---Fragment 1 Geometry and Gradient---
	 C          -2.4887171866        1.4315603355       -1.5004708112
	 C          -4.5258419578        2.5143734096       -0.2286851238
	 C           1.1773515112       -2.7881981193       -3.1558709036
	 C           4.0176098890        0.0766266982       -1.0639440745
	 C          -2.6493439079        1.3503021117        3.7680856472
	 C           3.2598297097       -3.7954221481       -4.3823031639
	 C           5.9734764365       -1.0590987077       -2.3829729153
	 C          -0.5309609129        0.3071732864       -0.1398679956
	 C           1.5798631775       -0.8153240365       -1.4683454670
	 C          -4.6071001815        2.4746891608        2.4055931054
	 C          -0.6122191366        0.2674890376        2.4944102337
	 N           5.6560024462       -2.9790604587       -4.0383730077
	 O          -6.5969817995        3.5329357952        3.6471431747
	 F           1.2548302827       -0.8058754059        3.8304466096
	 H          -2.4528123900        1.4769137626       -3.5546031177
	 H          -6.0470714948        3.3855371569       -1.3001598412
	 H          -0.6972568126       -3.5327502156       -3.5243674996
	 H           4.4031140201        1.6129740442        0.2399669571
	 H          -2.7022562396        1.3125075891        5.8203282276
	 H           3.0462906567       -5.3336592203       -5.7202292660
	 H           7.9085559966       -0.4335993577       -2.1316393396
	 H          -8.0728579092        2.4520124472        3.5167520716
	             0.0099550178       -0.0023489248       -0.0110112512
	            -0.0025121379        0.0009079322        0.0040815991
	            -0.0070968712       -0.0010291531        0.0029040040
	            -0.0036675645        0.0057496672        0.0035753720
	            -0.0052381144        0.0012608949       -0.0035469895
	            -0.0140544356       -0.0009765466        0.0025734208
	            -0.0031304161        0.0094868612        0.0087968738
	            -0.0005515777        0.0003479708       -0.0026033781
	            -0.0018760717        0.0011533465       -0.0005599689
	            -0.0089836369        0.0130546857        0.0126196378
	             0.0206810895       -0.0160872285        0.0053461003
	             0.0135970028       -0.0067373451       -0.0084680675
	             0.0126785093       -0.0013287653       -0.0102679145
	             0.0018242855       -0.0002985396        0.0027141059
	            -0.0033517566        0.0015561122       -0.0060239705
	            -0.0033158133        0.0012499896       -0.0051847778
	            -0.0031321600       -0.0025784914       -0.0027265774
	             0.0028563634        0.0036524414        0.0027774034
	             0.0009261309       -0.0001332957        0.0055364328
	             0.0004012982       -0.0017776134       -0.0019929062
	             0.0025349300        0.0001760637        0.0000720566
	            -0.0085440713       -0.0053000619        0.0013887953

	Previous optimization step data not found.  Starting new optimization.

	---Fragment 1 Intrafragment Coordinates---
	 - Coordinate -           - BOHR/RAD -       - ANG/DEG -
	 R(1,2)           =         2.634350	       1.394038
	 R(1,8)           =         2.635962	       1.394891
	 R(1,15)          =         2.054947	       1.087431
	 R(2,10)          =         2.635830	       1.394821
	 R(2,16)          =         2.054537	       1.087214
	 R(3,6)           =         2.618273	       1.385530
	 R(3,9)           =         2.627164	       1.390235
	 R(3,17)          =         2.050440	       1.085046
	 R(4,7)           =         2.618229	       1.385507
	 R(4,9)           =         2.627114	       1.390209
	 R(4,18)          =         2.051624	       1.085673
	 R(5,10)          =         2.636938	       1.395407
	 R(5,11)          =         2.635263	       1.394521
	 R(5,19)          =         2.053272	       1.086545
	 R(6,12)          =         2.554678	       1.351877
	 R(6,20)          =         2.049834	       1.084725
	 R(7,12)          =         2.554876	       1.351982
	 R(7,21)          =         2.049134	       1.084355
	 R(8,9)           =         2.735038	       1.447320
	 R(8,11)          =         2.635830	       1.394821
	 R(10,13)         =         2.573123	       1.361638
	 R(11,14)         =         2.534359	       1.341125
	 R(13,22)         =         1.834014	       0.970518
	 B(1,2,10)        =         2.094553	     120.009056
	 B(1,2,16)        =         2.088723	     119.675016
	 B(1,8,9)         =         2.091569	     119.838095
	 B(1,8,11)        =         2.093692	     119.959722
	 B(2,1,8)         =         2.094940	     120.031219
	 B(2,1,15)        =         2.079469	     119.144799
	 B(2,10,5)        =         2.094306	     119.994870
	 B(2,10,13)       =         2.094247	     119.991510
	 B(3,6,12)        =         2.165211	     124.057445
	 B(3,6,20)        =         2.107791	     120.767548
	 B(3,9,4)         =         2.089790	     119.736135
	 B(3,9,8)         =         2.096656	     120.129524
	 B(4,7,12)        =         2.164668	     124.026364
	 B(4,7,21)        =         2.107421	     120.746344
	 B(4,9,8)         =         2.096739	     120.134309
	 B(5,10,13)       =         2.094633	     120.013619
	 B(5,11,8)        =         2.095181	     120.045019
	 B(5,11,14)       =         2.081414	     119.256220
	 B(6,3,9)         =         2.057714	     117.898335
	 B(6,3,17)        =         2.098197	     120.217854
	 B(6,12,7)        =         2.030771	     116.354583
	 B(7,4,9)         =         2.058217	     117.927126
	 B(7,4,18)        =         2.099769	     120.307895
	 B(8,1,15)        =         2.108776	     120.823969
	 B(8,11,14)       =         2.106591	     120.698759
	 B(9,3,17)        =         2.127271	     121.883627
	 B(9,4,18)        =         2.125200	     121.764971
	 B(9,8,11)        =         2.097924	     120.202184
	 B(10,2,16)       =         2.099909	     120.315896
	 B(10,5,11)       =         2.093699	     119.960108
	 B(10,5,19)       =         2.100355	     120.341451
	 B(10,13,22)      =         1.923700	     110.219878
	 B(11,5,19)       =         2.089132	     119.698439
	 B(12,6,20)       =         2.010181	     115.174900
	 B(12,7,21)       =         2.011095	     115.227270
	 D(1,2,10,5)      =        -0.000325	      -0.018609
	 D(1,2,10,13)     =         3.141388	     179.988267
	 D(1,8,9,3)       =        -1.047732	     -60.030615
	 D(1,8,9,4)       =         2.092736	     119.904915
	 D(1,8,11,5)      =         0.000325	       0.018608
	 D(1,8,11,14)     =        -3.141528	    -179.996269
	 D(2,1,8,9)       =         3.141277	     179.981897
	 D(2,1,8,11)      =        -0.000348	      -0.019945
	 D(2,10,5,11)     =         0.000301	       0.017261
	 D(2,10,5,19)     =        -3.141029	    -179.967685
	 D(2,10,13,22)    =         1.309263	      75.015228
	 D(3,6,12,7)      =         0.000000	       0.000000
	 D(3,9,4,7)       =        -0.000043	      -0.002444
	 D(3,9,4,18)      =        -3.141070	    -179.970061
	 D(3,9,8,11)      =         2.093893	     119.971231
	 D(4,7,12,6)      =        -0.000490	      -0.028079
	 D(4,9,3,6)       =        -0.000394	      -0.022595
	 D(4,9,3,17)      =        -3.139269	    -179.866889
	 D(4,9,8,11)      =        -1.048825	     -60.093239
	 D(5,10,2,16)     =         3.140149	     179.917291
	 D(5,10,13,22)    =        -1.832210	    -104.977895
	 D(5,11,8,9)      =        -3.141300	    -179.983240
	 D(6,3,9,8)       =         3.140078	     179.913192
	 D(6,12,7,21)     =         3.140154	     179.917593
	 D(7,4,9,8)       =        -3.140515	    -179.938228
	 D(7,12,6,20)     =         3.139530	     179.881843
	 D(8,1,2,10)      =         0.000348	       0.019955
	 D(8,1,2,16)      =        -3.140133	    -179.916358
	 D(8,9,3,17)      =         0.001202	       0.068898
	 D(8,9,4,18)      =         0.001643	       0.094154
	 D(8,11,5,10)     =        -0.000301	      -0.017270
	 D(8,11,5,19)     =         3.141030	     179.967774
	 D(9,3,6,12)      =         0.000430	       0.024638
	 D(9,3,6,20)      =        -3.138988	    -179.850775
	 D(9,4,7,12)      =         0.000513	       0.029399
	 D(9,4,7,21)      =        -3.140081	    -179.913416
	 D(9,8,1,15)      =         0.000403	       0.023110
	 D(9,8,11,14)     =         0.000033	       0.001883
	 D(10,2,1,15)     =         3.141234	     179.979432
	 D(10,5,11,14)    =         3.141547	     179.997392
	 D(11,5,10,13)    =        -3.141411	    -179.989616
	 D(11,8,1,15)     =        -3.141221	    -179.978731
	 D(12,6,3,17)     =         3.139352	     179.871634
	 D(12,7,4,18)     =         3.141549	     179.997508
	 D(13,10,2,16)    =        -0.001324	      -0.075833
	 D(13,10,5,19)    =         0.000444	       0.025437
	 D(14,11,5,19)    =        -0.000307	      -0.017564
	 D(15,1,2,16)     =         0.000753	       0.043120
	 D(17,3,6,20)     =        -0.000066	      -0.003779
	 D(18,4,7,21)     =         0.000955	       0.054693
	 R(4,14)          =         5.689185	       3.010587

	Current energy   :      -652.8657010690

	Generating empirical Hessian (Schlegel '84) for each fragment.
	Adding user-defined constraint: Fragment 1; Coordinate 69:
		Value =     1.309263; Fixed value    =     1.308997
		Force =    -0.000133; Force constant =     0.500000
	Removing off-diagonal coupling between coordinate 69 and others.
	Taking RFO optimization step.
	Going to follow RFO solution 1.
	Using RFO vector 1.

	Determining step-restricting scale parameter for RS-RFO.
	Maximum step size allowed    0.10000

	 Iter      |step|        alpha        rfo_root  
	------------------------------------------------
	    0     0.26178       1.00000           1
	    1     0.18377       3.85286           1
	    2     0.14111      10.04440           1
	    3     0.11574      20.98978           1
	    4     0.10332      31.35338           1
	    5     0.10019      34.81580           1
	    6     0.10000      35.04174           1
	------------------------------------------------
	Norm of target step-size    0.10000
	Projected energy change by RFO approximation:        -0.0045794059

	Back-transformation to cartesian coordinates...
	Could not converge backtransformation.
	Using first guess instead.

	--- Internal Coordinate Step in ANG or DEG, aJ/ANG or AJ/DEG ---
	 ---------------------------------------------------------------------------
	   Coordinate                Previous        Force       Change         New 
	   ----------                --------       ------       ------       ------
	    1 R(1,2)          =      1.394038    -0.047040    -0.004731     1.389307
	    2 R(1,8)          =      1.394891    -0.033264    -0.003184     1.391707
	    3 R(1,15)         =      1.087431    -0.049411    -0.006187     1.081244
	    4 R(2,10)         =      1.394821    -0.050933    -0.005242     1.389580
	    5 R(2,16)         =      1.087214    -0.046871    -0.005838     1.081376
	    6 R(3,6)          =      1.385530     0.005663     0.000564     1.386094
	    7 R(3,9)          =      1.390235    -0.018280    -0.001372     1.388863
	    8 R(3,17)         =      1.085046    -0.035343    -0.004404     1.080643
	    9 R(4,7)          =      1.385507     0.001881     0.000180     1.385687
	   10 R(4,9)          =      1.390209    -0.018324    -0.001336     1.388873
	   11 R(4,18)         =      1.085673    -0.041498    -0.005183     1.080490
	   12 R(5,10)         =      1.395407    -0.080258    -0.008340     1.387067
	   13 R(5,11)         =      1.394521    -0.099706    -0.010233     1.384288
	   14 R(5,19)         =      1.086545    -0.045414    -0.005675     1.080870
	   15 R(6,12)         =      1.351877    -0.121469    -0.011295     1.340582
	   16 R(6,20)         =      1.084725    -0.021362    -0.002665     1.082060
	   17 R(7,12)         =      1.351982    -0.116874    -0.010910     1.341072
	   18 R(7,21)         =      1.084355    -0.020238    -0.002501     1.081854
	   19 R(8,9)          =      1.447320     0.131935     0.015763     1.463083
	   20 R(8,11)         =      1.394821    -0.067809    -0.006525     1.388296
	   21 R(10,13)        =      1.361638     0.084099     0.008030     1.369668
	   22 R(11,14)        =      1.341125    -0.025281    -0.002166     1.338959
	   23 R(13,22)        =      0.970518    -0.081568    -0.007557     0.962961
	   24 B(1,2,10)       =    120.009056    -0.000069    -0.109634   119.899422
	   25 B(1,2,16)       =    119.675016     0.000236     0.531454   120.206470
	   26 B(1,8,9)        =    119.838095     0.000604     1.040767   120.878861
	   27 B(1,8,11)       =    119.959722    -0.000880    -1.638566   118.321156
	   28 B(2,1,8)        =    120.031219     0.000356     0.754906   120.786125
	   29 B(2,1,15)       =    119.144799     0.000112     0.307465   119.452265
	   30 B(2,10,5)       =    119.994870    -0.000037    -0.075679   119.919192
	   31 B(2,10,13)      =    119.991510     0.000384     0.703642   120.695153
	   32 B(3,6,12)       =    124.057445    -0.000035    -0.131266   123.926180
	   33 B(3,6,20)       =    120.767548    -0.000038    -0.065500   120.702048
	   34 B(3,9,4)        =    119.736135    -0.000816    -1.415556   118.320579
	   35 B(3,9,8)        =    120.129524     0.000401     0.657751   120.787275
	   36 B(4,7,12)       =    124.026364    -0.000011    -0.084110   123.942254
	   37 B(4,7,21)       =    120.746344    -0.000042    -0.070169   120.676175
	   38 B(4,9,8)        =    120.134309     0.000415     0.757760   120.892069
	   39 B(5,10,13)      =    120.013619    -0.000347    -0.630901   119.382718
	   40 B(5,11,8)       =    120.045019     0.000855     1.540069   121.585088
	   41 B(5,11,14)      =    119.256220    -0.000203    -0.412122   118.844098
	   42 B(6,3,9)        =    117.898335     0.000362     0.775217   118.673552
	   43 B(6,3,17)       =    120.217854    -0.000006     0.023434   120.241288
	   44 B(6,12,7)       =    116.354583     0.000156     0.117672   116.472255
	   45 B(7,4,9)        =    117.927126     0.000344     0.738009   118.665135
	   46 B(7,4,18)       =    120.307895    -0.000019    -0.008914   120.298981
	   47 B(8,1,15)       =    120.823969    -0.000468    -1.062522   119.761447
	   48 B(8,11,14)      =    120.698759    -0.000652    -1.128216   119.570543
	   49 B(9,3,17)       =    121.883627    -0.000356    -0.798529   121.085098
	   50 B(9,4,18)       =    121.764971    -0.000325    -0.729092   121.035878
	   51 B(9,8,11)       =    120.202184     0.000277     0.597787   120.799971
	   52 B(10,2,16)      =    120.315896    -0.000167    -0.421802   119.894094
	   53 B(10,5,11)      =    119.960108    -0.000225    -0.471472   119.488637
	   54 B(10,5,19)      =    120.341451     0.000038     0.060145   120.401596
	   55 B(10,13,22)     =    110.219878    -0.000249    -0.582702   109.637176
	   56 B(11,5,19)      =    119.698439     0.000187     0.411310   120.109749
	   57 B(12,6,20)      =    115.174900     0.000073     0.196870   115.371770
	   58 B(12,7,21)      =    115.227270     0.000053     0.154300   115.381569
	   59 D(1,2,10,5)     =     -0.018609     0.000011     0.207159     0.188550
	   60 D(1,2,10,13)    =    179.988267    -0.000023    -0.427071   179.561196
	   61 D(1,8,9,3)      =    -60.030615     0.000030     0.558360   -59.472255
	   62 D(1,8,9,4)      =    119.904915     0.000030     0.520675   120.425589
	   63 D(1,8,11,5)     =      0.018608     0.000007     0.134759     0.153367
	   64 D(1,8,11,14)    =   -179.996269    -0.000001    -0.041884  -180.038153
	   65 D(2,1,8,9)      =    179.981897     0.000003     0.045690   180.027587
	   66 D(2,1,8,11)     =     -0.019945     0.000000     0.008355    -0.011590
	   67 D(2,10,5,11)    =      0.017261    -0.000004    -0.067344    -0.050083
	   68 D(2,10,5,19)    =   -179.967685    -0.000007    -0.131746  -180.099432
	   69 D(2,10,13,22)   =     75.015228    -0.000003    -0.017893    74.997335
	   70 D(3,6,12,7)     =      0.000000    -0.000001    -0.017608    -0.017608
	   71 D(3,9,4,7)      =     -0.002444     0.000004     0.050677     0.048233
	   72 D(3,9,4,18)     =   -179.970061     0.000000    -0.008886  -179.978947
	   73 D(3,9,8,11)     =    119.971231     0.000033     0.596664   120.567895
	   74 D(4,7,12,6)     =     -0.028079     0.000000     0.010699    -0.017380
	   75 D(4,9,3,6)      =     -0.022595    -0.000004    -0.057272    -0.079868
	   76 D(4,9,3,17)     =   -179.866889    -0.000007    -0.122134  -179.989023
	   77 D(4,9,8,11)     =    -60.093239     0.000032     0.558979   -59.534261
	   78 D(5,10,2,16)    =    179.917291     0.000017     0.313817   180.231109
	   79 D(5,10,13,22)   =   -104.977895    -0.000037    -0.648789  -105.626684
	   80 D(5,11,8,9)     =   -179.983240     0.000005     0.097463  -179.885777
	   81 D(6,3,9,8)      =    179.913192    -0.000004    -0.092643   179.820549
	   82 D(6,12,7,21)    =    179.917593     0.000002     0.051818   179.969411
	   83 D(7,4,9,8)      =   -179.938228     0.000004     0.086153  -179.852075
	   84 D(7,12,6,20)    =    179.881843     0.000005     0.085370   179.967213
	   85 D(8,1,2,10)     =      0.019955    -0.000009    -0.177833    -0.157878
	   86 D(8,1,2,16)     =   -179.916358    -0.000015    -0.284213  -180.200571
	   87 D(8,9,3,17)     =      0.068898    -0.000008    -0.157504    -0.088606
	   88 D(8,9,4,18)     =      0.094154     0.000001     0.026590     0.120745
	   89 D(8,11,5,10)    =     -0.017270    -0.000006    -0.106125    -0.123395
	   90 D(8,11,5,19)    =    179.967774    -0.000002    -0.041967   179.925807
	   91 D(9,3,6,12)     =      0.024638     0.000003     0.042491     0.067128
	   92 D(9,3,6,20)     =   -179.850775    -0.000003    -0.066147  -179.916922
	   93 D(9,4,7,12)     =      0.029399    -0.000002    -0.028105     0.001294
	   94 D(9,4,7,21)     =   -179.913416    -0.000004    -0.071415  -179.984831
	   95 D(9,8,1,15)     =      0.023110    -0.000007    -0.143513    -0.120403
	   96 D(9,8,11,14)    =      0.001883    -0.000003    -0.079180    -0.077297
	   97 D(10,2,1,15)    =    179.979432     0.000001     0.010226   179.989658
	   98 D(10,5,11,14)   =    179.997392     0.000002     0.069379   180.066771
	   99 D(11,5,10,13)   =   -179.989616     0.000030     0.558632  -179.430984
	  100 D(11,8,1,15)    =   -179.978731    -0.000010    -0.180848  -180.159579
	  101 D(12,6,3,17)    =    179.871634     0.000006     0.105440   179.977073
	  102 D(12,7,4,18)    =    179.997508     0.000001     0.030759   180.028268
	  103 D(13,10,2,16)   =     -0.075833    -0.000017    -0.320412    -0.396245
	  104 D(13,10,5,19)   =      0.025437     0.000027     0.494229     0.519667
	  105 D(14,11,5,19)   =     -0.017564     0.000006     0.133538     0.115974
	  106 D(15,1,2,16)    =      0.043120    -0.000005    -0.096155    -0.053035
	  107 D(17,3,6,20)    =     -0.003779    -0.000000    -0.003198    -0.006977
	  108 D(18,4,7,21)    =      0.054693    -0.000001    -0.012550     0.042143
	  109 R(4,14)         =      3.010587     0.008540     0.002588     3.013175
	 ---------------------------------------------------------------------------
	Successfully symmetrized geometry.
	 Forces used to impose fixed constraints are not included.
	  Forces zeroed: 69 

  ==> Convergence Check <==

  Measures of convergence in internal coordinates in au.
  Criteria marked as inactive (o), active & met (*), and active & unmet ( ).
  --------------------------------------------------------------------------------------------- ~
   Step     Total Energy     Delta E     MAX Force     RMS Force      MAX Disp      RMS Disp    ~
  --------------------------------------------------------------------------------------------- ~
    Convergence Criteria    1.00e-06 *    3.00e-04 *             o    1.20e-03 *             o  ~
  --------------------------------------------------------------------------------------------- ~
      1    -652.86570107   -6.53e+02      1.60e-02      4.60e-03 o    2.98e-02      9.59e-03 o  ~
  ---------------------------------------------------------------------------------------------

	Writing optimization data to binary file.
	Structure for next step:
	Cartesian Geometry (in Angstrom)
	    C    -1.3363087024   0.7598502172  -0.7820903085
	    C    -2.4107388913   1.3310223259  -0.1116161266
	    C     0.6479695795  -1.4758044392  -1.6814425272
	    C     2.1357626053   0.0221691423  -0.5720887554
	    C    -1.4156183900   0.7240362515   1.9905067530
	    C     1.7518199750  -2.0107114711  -2.3269240806
	    C     3.1738862602  -0.5789415276  -1.2656976311
	    C    -0.2916012741   0.1671953572  -0.0791005789
	    C     0.8411513685  -0.4343706391  -0.7830898228
	    C    -2.4504643815   1.3108176366   1.2772485642
	    C    -0.3506586146   0.1617195332   1.3079278944
	    N     3.0086307960  -1.5843945192  -2.1376086438
	    O    -3.4973947291   1.8769282198   1.9550736318
	    F     0.6406190287  -0.4024473758   2.0092807199
	    H    -1.3128698785   0.7794947227  -1.8629020450
	    H    -3.2159188277   1.7919061449  -0.6671754371
	    H    -0.3402315243  -1.8656579471  -1.8795866092
	    H     2.3362838518   0.8296649683   0.1172590825
	    H    -1.4377582880   0.7053742334   3.0709887060
	    H     1.6389332213  -2.8218297490  -3.0341710024
	    H     4.1947911911  -0.2492963893  -1.1260689502
	    H    -4.2716774782   1.3083555537   1.8879481467
			--------------------------
			 OPTKING Finished Execution 
			--------------------------

    Structure for next step:
    Molecular point group: c1
    Full point group: C1

    Geometry (in Angstrom), charge = 0, multiplicity = 1:

    C           -1.333533847489     0.757763058956    -0.780365043658
    C           -2.407964036376     1.328935167632    -0.109890861773
    C            0.650744434426    -1.477891597441    -1.679717262353
    C            2.138537460196     0.020081984014    -0.570363490618
    C           -1.412843535113     0.721949093275     1.992232017813
    C            1.754594829873    -2.012798629319    -2.325198815730
    C            3.176661115068    -0.581028685811    -1.263972366279
    C           -0.288826419147     0.165108198941    -0.077375314121
    C            0.843926223374    -0.436457797311    -0.781364557924
    C           -2.447689526603     1.308730478376     1.278973829048
    C           -0.347883759651     0.159632375000     1.309653159200
    N            3.011405650885    -1.586481677422    -2.135883378964
    O           -3.494619874178     1.874841061604     1.956798896659
    F            0.643393883587    -0.404534534047     2.011005984754
    H           -1.310095023625     0.777407564486    -1.861176780178
    H           -3.213143972828     1.789818986701    -0.665450172263
    H           -0.337456669348    -1.867745105374    -1.877861344350
    H            2.339058706670     0.827577810108     0.118984347289
    H           -1.434983433124     0.703287075161     3.072713970873
    H            1.641708076257    -2.823916907224    -3.032445737532
    H            4.197566046001    -0.251383547532    -1.124343685393
    H           -4.268902623284     1.306268395412     1.889673411528

gradient() will perform analytic gradient computation.

*** tstart() called on gpu-1-11.local
*** at Sun Nov 12 01:18:18 2017

    SCF Algorithm Type (re)set to DF.

*** tstart() called on gpu-1-11.local
*** at Sun Nov 12 01:18:18 2017

   => Loading Basis Set <=

    Name: AUG-CC-PVTZ
    Role: ORBITAL
    Keyword: BASIS
    atoms 1-11  entry C          line   221 file /cbio/jclab/home/chayas/anaconda/envs/py35/share/psi4/basis/aug-cc-pvtz.gbs 
    atoms 12    entry N          line   267 file /cbio/jclab/home/chayas/anaconda/envs/py35/share/psi4/basis/aug-cc-pvtz.gbs 
    atoms 13    entry O          line   313 file /cbio/jclab/home/chayas/anaconda/envs/py35/share/psi4/basis/aug-cc-pvtz.gbs 
    atoms 14    entry F          line   359 file /cbio/jclab/home/chayas/anaconda/envs/py35/share/psi4/basis/aug-cc-pvtz.gbs 
    atoms 15-22 entry H          line    34 file /cbio/jclab/home/chayas/anaconda/envs/py35/share/psi4/basis/aug-cc-pvtz.gbs 


         ---------------------------------------------------------
                                   SCF
            by Justin Turney, Rob Parrish, and Andy Simmonett
                              RHF Reference
                        8 Threads,   4768 MiB Core
         ---------------------------------------------------------

  ==> Geometry <==

    Molecular point group: c1
    Full point group: C1

    Geometry (in Angstrom), charge = 0, multiplicity = 1:

       Center              X                  Y                   Z               Mass       
    ------------   -----------------  -----------------  -----------------  -----------------
           C         -1.333533847489     0.757763058956    -0.780365043658    12.000000000000
           C         -2.407964036376     1.328935167632    -0.109890861773    12.000000000000
           C          0.650744434426    -1.477891597441    -1.679717262353    12.000000000000
           C          2.138537460196     0.020081984014    -0.570363490618    12.000000000000
           C         -1.412843535113     0.721949093275     1.992232017813    12.000000000000
           C          1.754594829873    -2.012798629319    -2.325198815730    12.000000000000
           C          3.176661115068    -0.581028685811    -1.263972366279    12.000000000000
           C         -0.288826419147     0.165108198941    -0.077375314121    12.000000000000
           C          0.843926223374    -0.436457797311    -0.781364557924    12.000000000000
           C         -2.447689526603     1.308730478376     1.278973829048    12.000000000000
           C         -0.347883759651     0.159632375000     1.309653159200    12.000000000000
           N          3.011405650885    -1.586481677422    -2.135883378964    14.003074004780
           O         -3.494619874178     1.874841061604     1.956798896659    15.994914619560
           F          0.643393883587    -0.404534534047     2.011005984754    18.998403224000
           H         -1.310095023625     0.777407564486    -1.861176780178     1.007825032070
           H         -3.213143972828     1.789818986701    -0.665450172263     1.007825032070
           H         -0.337456669348    -1.867745105374    -1.877861344350     1.007825032070
           H          2.339058706670     0.827577810108     0.118984347289     1.007825032070
           H         -1.434983433124     0.703287075161     3.072713970873     1.007825032070
           H          1.641708076257    -2.823916907224    -3.032445737532     1.007825032070
           H          4.197566046001    -0.251383547532    -1.124343685393     1.007825032070
           H         -4.268902623284     1.306268395412     1.889673411528     1.007825032070

  Running in c1 symmetry.

  Rotational constants: A =      0.06435  B =      0.01294  C =      0.01156 [cm^-1]
  Rotational constants: A =   1929.15967  B =    387.81532  C =    346.46772 [MHz]
  Nuclear repulsion =  814.118377284918211

  Charge       = 0
  Multiplicity = 1
  Electrons    = 98
  Nalpha       = 49
  Nbeta        = 49

  ==> Algorithm <==

  SCF Algorithm Type is DF.
  DIIS enabled.
  MOM disabled.
  Fractional occupation disabled.
  Guess Type is READ.
  Energy threshold   = 1.00e-10
  Density threshold  = 1.00e-10
  Integral threshold = 0.00e+00

  ==> Primary Basis <==

  Basis Set: AUG-CC-PVTZ
    Blend: AUG-CC-PVTZ
    Number of shells: 268
    Number of basis function: 828
    Number of Cartesian functions: 970
    Spherical Harmonics?: true
    Max angular momentum: 3

   => Loading Basis Set <=

    Name: (AUG-CC-PVTZ AUX)
    Role: JKFIT
    Keyword: DF_BASIS_SCF
    atoms 1-11  entry C          line   161 file /cbio/jclab/home/chayas/anaconda/envs/py35/share/psi4/basis/aug-cc-pvtz-jkfit.gbs 
    atoms 12    entry N          line   223 file /cbio/jclab/home/chayas/anaconda/envs/py35/share/psi4/basis/aug-cc-pvtz-jkfit.gbs 
    atoms 13    entry O          line   285 file /cbio/jclab/home/chayas/anaconda/envs/py35/share/psi4/basis/aug-cc-pvtz-jkfit.gbs 
    atoms 14    entry F          line   347 file /cbio/jclab/home/chayas/anaconda/envs/py35/share/psi4/basis/aug-cc-pvtz-jkfit.gbs 
    atoms 15-22 entry H          line    69 file /cbio/jclab/home/chayas/anaconda/envs/py35/share/psi4/basis/aug-cc-pvtz-jkfit.gbs 

  Reading orbitals from file 180, no projection.

  ==> Pre-Iterations <==

   -------------------------------------------------------
    Irrep   Nso     Nmo     Nalpha   Nbeta   Ndocc  Nsocc
   -------------------------------------------------------
     A        828     828       0       0       0       0
   -------------------------------------------------------
    Total     828     828      49      49      49       0
   -------------------------------------------------------

  ==> Integral Setup <==

  ==> DFJK: Density-Fitted J/K Matrices <==

    J tasked:                  Yes
    K tasked:                  Yes
    wK tasked:                  No
    OpenMP threads:              8
    Integrals threads:           8
    Memory (MB):              3576
    Algorithm:                Disk
    Integral Cache:           NONE
    Schwarz Cutoff:          1E-12
    Fitting Condition:       1E-12

   => Auxiliary Basis Set <=

  Basis Set: (AUG-CC-PVTZ AUX)
    Blend: AUG-CC-PVTZ-JKFIT
    Number of shells: 532
    Number of basis function: 1824
    Number of Cartesian functions: 2274
    Spherical Harmonics?: true
    Max angular momentum: 4

  Minimum eigenvalue in the overlap matrix is 7.4081081728E-07.
  Using Symmetric Orthogonalization.

  SCF Guess: Orbitals guess was supplied from a previous computation.

  ==> Iterations <==

                           Total Energy        Delta E     RMS |[F,P]|

   @DF-RHF iter   0:  -650.23283569780165   -6.50233e+02   4.12355e-04 
   @DF-RHF iter   1:  -650.17534091336415    5.74948e-02   8.08279e-05 
   @DF-RHF iter   2:  -650.17564551196301   -3.04599e-04   6.19631e-05 DIIS
   @DF-RHF iter   3:  -650.17582154090564   -1.76029e-04   9.38456e-06 DIIS
   @DF-RHF iter   4:  -650.17582800379159   -6.46289e-06   3.83065e-06 DIIS
   @DF-RHF iter   5:  -650.17582985150727   -1.84772e-06   1.31609e-06 DIIS
   @DF-RHF iter   6:  -650.17583020731252   -3.55805e-07   8.63750e-07 DIIS
   @DF-RHF iter   7:  -650.17583033864480   -1.31332e-07   3.39065e-07 DIIS
   @DF-RHF iter   8:  -650.17583037032841   -3.16836e-08   1.33270e-07 DIIS
   @DF-RHF iter   9:  -650.17583037373777   -3.40935e-09   4.63820e-08 DIIS
   @DF-RHF iter  10:  -650.17583037419558   -4.57817e-10   1.33686e-08 DIIS
   @DF-RHF iter  11:  -650.17583037422264   -2.70575e-11   4.26934e-09 DIIS
   @DF-RHF iter  12:  -650.17583037422810   -5.45697e-12   1.74148e-09 DIIS
   @DF-RHF iter  13:  -650.17583037422401    4.09273e-12   7.18991e-10 DIIS
   @DF-RHF iter  14:  -650.17583037421866    5.34328e-12   3.82514e-10 DIIS
   @DF-RHF iter  15:  -650.17583037422321   -4.54747e-12   1.61230e-10 DIIS
   @DF-RHF iter  16:  -650.17583037422753   -4.32010e-12   7.48029e-11 DIIS

  ==> Post-Iterations <==

    Orbital Energies (a.u.)
    -----------------------

    Doubly Occupied:                                                      

       1A    -26.322991     2A    -20.596031     3A    -15.565233  
       4A    -11.343629     5A    -11.317745     6A    -11.274601  
       7A    -11.273610     8A    -11.268402     9A    -11.262362  
      10A    -11.258031    11A    -11.249397    12A    -11.246549  
      13A    -11.240835    14A    -11.239099    15A     -1.643358  
      16A     -1.413304    17A     -1.257945    18A     -1.184354  
      19A     -1.112242    20A     -1.042245    21A     -1.035951  
      22A     -1.022291    23A     -0.889325    24A     -0.875630  
      25A     -0.855660    26A     -0.828551    27A     -0.774533  
      28A     -0.733483    29A     -0.727310    30A     -0.710348  
      31A     -0.699527    32A     -0.666925    33A     -0.663345  
      34A     -0.650562    35A     -0.633759    36A     -0.627325  
      37A     -0.604702    38A     -0.599317    39A     -0.561706  
      40A     -0.542026    41A     -0.538515    42A     -0.524702  
      43A     -0.509903    44A     -0.498480    45A     -0.420566  
      46A     -0.393472    47A     -0.358914    48A     -0.349663  
      49A     -0.336134  

    Virtual:                                                              

      50A      0.020973    51A      0.030585    52A      0.033731  
      53A      0.035363    54A      0.042500    55A      0.047655  
      56A      0.051631    57A      0.055379    58A      0.073954  
      59A      0.082555    60A      0.083506    61A      0.083798  
      62A      0.090270    63A      0.092924    64A      0.097573  
      65A      0.100850    66A      0.105839    67A      0.107531  
      68A      0.110220    69A      0.111652    70A      0.117021  
      71A      0.119003    72A      0.119625    73A      0.125199  
      74A      0.126609    75A      0.130980    76A      0.132826  
      77A      0.134400    78A      0.140437    79A      0.145002  
      80A      0.146916    81A      0.148916    82A      0.151636  
      83A      0.155322    84A      0.156011    85A      0.165633  
      86A      0.171290    87A      0.173127    88A      0.178614  
      89A      0.185006    90A      0.195506    91A      0.198749  
      92A      0.209517    93A      0.213278    94A      0.216933  
      95A      0.221768    96A      0.233018    97A      0.235011  
      98A      0.235097    99A      0.238830   100A      0.240239  
     101A      0.243308   102A      0.249886   103A      0.252211  
     104A      0.256012   105A      0.259512   106A      0.265160  
     107A      0.267508   108A      0.270021   109A      0.276051  
     110A      0.278202   111A      0.283054   112A      0.284212  
     113A      0.291895   114A      0.297866   115A      0.299807  
     116A      0.307957   117A      0.310681   118A      0.312110  
     119A      0.314946   120A      0.317885   121A      0.320750  
     122A      0.322802   123A      0.328226   124A      0.331535  
     125A      0.337751   126A      0.341192   127A      0.346194  
     128A      0.351669   129A      0.354597   130A      0.359731  
     131A      0.363651   132A      0.370191   133A      0.379019  
     134A      0.381934   135A      0.384456   136A      0.392072  
     137A      0.399155   138A      0.401355   139A      0.410542  
     140A      0.410911   141A      0.417746   142A      0.422009  
     143A      0.424991   144A      0.425890   145A      0.431437  
     146A      0.433439   147A      0.439558   148A      0.442345  
     149A      0.450539   150A      0.455964   151A      0.459916  
     152A      0.465941   153A      0.470058   154A      0.472519  
     155A      0.477307   156A      0.478216   157A      0.481058  
     158A      0.481779   159A      0.485446   160A      0.491193  
     161A      0.494529   162A      0.497146   163A      0.497979  
     164A      0.504925   165A      0.508769   166A      0.512493  
     167A      0.514850   168A      0.514985   169A      0.520090  
     170A      0.520806   171A      0.528634   172A      0.529456  
     173A      0.536543   174A      0.539727   175A      0.541784  
     176A      0.548052   177A      0.549632   178A      0.556324  
     179A      0.559975   180A      0.563440   181A      0.571287  
     182A      0.577271   183A      0.586660   184A      0.586756  
     185A      0.589061   186A      0.598722   187A      0.604757  
     188A      0.608232   189A      0.614470   190A      0.620716  
     191A      0.626935   192A      0.630826   193A      0.637324  
     194A      0.642380   195A      0.646626   196A      0.655996  
     197A      0.662695   198A      0.668594   199A      0.675816  
     200A      0.679865   201A      0.685155   202A      0.692355  
     203A      0.699024   204A      0.702349   205A      0.706921  
     206A      0.712392   207A      0.722530   208A      0.723389  
     209A      0.727262   210A      0.731277   211A      0.735965  
     212A      0.739431   213A      0.743236   214A      0.756564  
     215A      0.762448   216A      0.763935   217A      0.767866  
     218A      0.776608   219A      0.788889   220A      0.793651  
     221A      0.798929   222A      0.804435   223A      0.809911  
     224A      0.820033   225A      0.826594   226A      0.834733  
     227A      0.836108   228A      0.844567   229A      0.847800  
     230A      0.850605   231A      0.852000   232A      0.860541  
     233A      0.866217   234A      0.871940   235A      0.873732  
     236A      0.882273   237A      0.883343   238A      0.895011  
     239A      0.895414   240A      0.900771   241A      0.909007  
     242A      0.910862   243A      0.919206   244A      0.925162  
     245A      0.929999   246A      0.930824   247A      0.935313  
     248A      0.944795   249A      0.949356   250A      0.950515  
     251A      0.956633   252A      0.958524   253A      0.960148  
     254A      0.964446   255A      0.966615   256A      0.974517  
     257A      0.976997   258A      0.982213   259A      0.987445  
     260A      0.992733   261A      0.993565   262A      1.002977  
     263A      1.008206   264A      1.013964   265A      1.016560  
     266A      1.023814   267A      1.027561   268A      1.031792  
     269A      1.034075   270A      1.038065   271A      1.042174  
     272A      1.048870   273A      1.053038   274A      1.064957  
     275A      1.067044   276A      1.068861   277A      1.073260  
     278A      1.078358   279A      1.081891   280A      1.084220  
     281A      1.088211   282A      1.090414   283A      1.097327  
     284A      1.099371   285A      1.108073   286A      1.113652  
     287A      1.115783   288A      1.121013   289A      1.129992  
     290A      1.132724   291A      1.138162   292A      1.144675  
[...]
	 --------------------------------------------------------

   => Auxiliary Basis Set <=

  Basis Set: (AUG-CC-PVTZ AUX)
    Blend: AUG-CC-PVTZ-RI
    Number of shells: 504
    Number of basis function: 1852
    Number of Cartesian functions: 2344
    Spherical Harmonics?: true
    Max angular momentum: 4

	 --------------------------------------------------------
	                 NBF =   828, NAUX =  1852
	 --------------------------------------------------------
	   CLASS    FOCC     OCC    AOCC    AVIR     VIR    FVIR
	   PAIRS       0      49      49     779     779       0
	 --------------------------------------------------------


         ------------------------------------------------------------
                                     CPHF                           
                                  Rob Parrish                       
         ------------------------------------------------------------

  ==> Geometry <==

    Molecular point group: c1
    Full point group: C1

    Geometry (in Angstrom), charge = 0, multiplicity = 1:

       Center              X                  Y                   Z               Mass       
    ------------   -----------------  -----------------  -----------------  -----------------
           C         -1.360572262675     0.674444693983    -0.766308658502    12.000000000000
           C         -2.442457521777     1.247042616341    -0.118253201028    12.000000000000
           C          0.655695976186    -1.442358323872    -1.721736487829    12.000000000000
           C          2.164619824698    -0.047349570915    -0.530213091154    12.000000000000
           C         -1.412227030383     0.762548797865     1.999263860463    12.000000000000
           C          1.748834165349    -1.969732667416    -2.392027868468    12.000000000000
           C          3.193591172237    -0.634104238191    -1.249595217347    12.000000000000
           C         -0.280533365565     0.144309480745    -0.062186829692    12.000000000000
           C          0.855433174582    -0.453775977663    -0.764392373810    12.000000000000
           C         -2.471759387670     1.276769265320     1.268508561477    12.000000000000
           C         -0.343335292659     0.211994237759     1.323586578192    12.000000000000
           N          3.006647352897    -1.582849138761    -2.171042404651    14.003074004780
           O         -3.502361316859     1.893200578645     1.944990446298    15.994914619560
           F          0.667573074846    -0.298120707217     2.051741144662    18.998403224000
           H         -1.330180250443     0.650327239064    -1.845865572251     1.007825032070
           H         -3.257836068955     1.680735241345    -0.675702547602     1.007825032070
           H         -0.340830909495    -1.799485016577    -1.935945396661     1.007825032070
           H          2.376804602992     0.718242181370     0.200592970753     1.007825032070
           H         -1.421938329312     0.790144432750     3.076486342623     1.007825032070
           H          1.608074464163    -2.741082644165    -3.136684357095     1.007825032070
           H          4.215935080213    -0.326265791404    -1.080891244893     1.007825032070
           H         -4.283616728073     1.334510736845     1.897166506485     1.007825032070

  Nuclear repulsion =  813.336222329095335
  Reference energy  = -650.177352020721742

  ==> Basis Set <==

  Basis Set: AUG-CC-PVTZ
    Blend: AUG-CC-PVTZ
    Number of shells: 268
    Number of basis function: 828
    Number of Cartesian functions: 970
    Spherical Harmonics?: true
    Max angular momentum: 3

  ==> CGRSolver (by Rob Parrish) <==

   Number of roots    =         1
   Preconditioning    =    JACOBI
   Convergence cutoff =     1E-06
   Maximum iterations =       100

  ==> CPHFRHamiltonian (by Rob Parrish) <== 

  ==> DFJK: Density-Fitted J/K Matrices <==

    J tasked:                  Yes
    K tasked:                  Yes
    wK tasked:                  No
    OpenMP threads:              8
    Integrals threads:           8
    Memory (MB):              3576
    Algorithm:                Disk
    Integral Cache:           NONE
    Schwarz Cutoff:          1E-12
    Fitting Condition:       1E-12

   => Auxiliary Basis Set <=

  Basis Set: (AUG-CC-PVTZ AUX)
    Blend: AUG-CC-PVTZ-JKFIT
    Number of shells: 532
    Number of basis function: 1824
    Number of Cartesian functions: 2274
    Spherical Harmonics?: true
    Max angular momentum: 4

  ==> CPHF Iterations <==

  => Iterations <=

             Iter  Converged  Remaining    Residual
  CGR           1          0          1   9.691E-02
  CGR           2          0          1   2.984E-02
  CGR           3          0          1   1.972E-02
  CGR           4          0          1   8.818E-03
  CGR           5          0          1   3.665E-03
  CGR           6          0          1   1.335E-03
  CGR           7          0          1   3.817E-04
  CGR           8          0          1   1.186E-04
  CGR           9          0          1   4.056E-05
  CGR          10          0          1   1.114E-05
  CGR          11          0          1   4.539E-06
  CGR          12          0          1   1.320E-06
  CGR          13          1          0   5.523E-07

    CGRSolver converged.

  ==> DFCorrGrad: Density-Fitted Correlated Gradients <==

    OpenMP threads:              8
    Integrals threads:           8
    Memory (MB):              3576
    Schwarz Cutoff:          0E+00
    Fitting Condition:       1E-12

   => Auxiliary Basis Set <=

  Basis Set: (AUG-CC-PVTZ AUX)
    Blend: AUG-CC-PVTZ-JKFIT
    Number of shells: 532
    Number of basis function: 1824
    Number of Cartesian functions: 2274
    Spherical Harmonics?: true
    Max angular momentum: 4

	-----------------------------------------------------------
	 ==================> DF-MP2 Energies <==================== 
	-----------------------------------------------------------
	 Reference Energy          =    -650.1773520207217416 [Eh]
	 Singles Energy            =      -0.0000000000000006 [Eh]
	 Same-Spin Energy          =      -0.6762503816134048 [Eh]
	 Opposite-Spin Energy      =      -2.0166740557000780 [Eh]
	 Correlation Energy        =      -2.6929244373134833 [Eh]
	 Total Energy              =    -652.8702764580352778 [Eh]
	-----------------------------------------------------------
	 ================> DF-SCS-MP2 Energies <================== 
	-----------------------------------------------------------
	 SCS Same-Spin Scale       =       0.3333333333333333 [-]
	 SCS Opposite-Spin Scale   =       1.2000000000000000 [-]
	 SCS Same-Spin Energy      =      -0.2254167938711349 [Eh]
	 SCS Opposite-Spin Energy  =      -2.4200088668400936 [Eh]
	 SCS Correlation Energy    =      -2.6454256607112292 [Eh]
	 SCS Total Energy          =    -652.8227776814329673 [Eh]
	-----------------------------------------------------------


  -Total Gradient:
     Atom            X                  Y                   Z
    ------   -----------------  -----------------  -----------------
       1        0.000378239469     0.001136881723     0.000178503516
       2        0.000597641341     0.001120125812    -0.000131725853
       3        0.000002139669    -0.000943839825     0.000808771394
       4        0.000379023279     0.000747208862    -0.001313337047
       5        0.000181142708    -0.000338961091     0.000533851824
       6        0.000377123618    -0.000081001514    -0.000060263336
       7        0.000226852622     0.000013397732     0.000049115627
       8        0.000015309454    -0.000139658947    -0.000541950555
       9       -0.000116315684     0.000228935371    -0.000024670244
      10       -0.000511274146    -0.001689676590    -0.000363856282
      11       -0.000850232978    -0.000834607297     0.000083834664
      12       -0.000205863648    -0.000156791752    -0.000122056541
      13       -0.000438860340     0.001924501554    -0.001444022094
      14        0.000129820442    -0.000255816173     0.000980511223
      15        0.000022009347    -0.000161877293    -0.000243194892
      16       -0.000130387738     0.000043939649    -0.000026541851
      17       -0.000216266097     0.000123166985    -0.000147848487
      18       -0.000021691085     0.000305565577     0.000229070842
      19        0.000027519653     0.000094199051     0.000129566735
      20       -0.000137251166    -0.000160128734    -0.000132077318
      21        0.000047921268     0.000097536964     0.000099150430
      22        0.000243400019    -0.001073100075     0.001459168259


*** tstop() called on gpu-1-11.local at Sun Nov 12 04:18:11 2017
Module time:
	user time   =    5570.46 seconds =      92.84 minutes
	system time =     113.53 seconds =       1.89 minutes
	total time  =       2724 seconds =      45.40 minutes
Total time:
	user time   =   28637.69 seconds =     477.29 minutes
	system time =     541.50 seconds =       9.03 minutes
	total time  =      13551 seconds =     225.85 minutes

			-----------------------------------------
			 OPTKING 2.0: for geometry optimizations 
			  - R.A. King,  Bethel University        
			-----------------------------------------

	Previous internal coordinate definitions found.
	---Fragment 1 Geometry and Gradient---
	 C          -2.5711089605        1.2745157634       -1.4481134978
	 C          -4.6155758074        2.3565690209       -0.2234661643
	 C           1.2390858214       -2.7256622176       -3.2536104350
	 C           4.0905386505       -0.0894777215       -1.0019575344
	 C          -2.6687223249        1.4410083909        3.7780611637
	 C           3.3048176243       -3.7222552964       -4.5202775736
	 C           6.0350126959       -1.1982833499       -2.3613927378
	 C          -0.5301312321        0.2727053970       -0.1175160772
	 C           1.6165344249       -0.8575123235       -1.4444922446
	 C          -4.6709483091        2.4127442463        2.3971337784
	 C          -0.6488096749        0.4006110511        2.5012161459
	 N           5.6817400751       -2.9911513819       -4.1026755677
	 O          -6.6185037073        3.5776306083        3.6754992746
	 F           1.2615302851       -0.5633664912        3.8772288590
	 H          -2.5136763807        1.2289403786       -3.4881804097
	 H          -6.1564179562        3.1761293080       -1.2768927623
	 H          -0.6440770766       -3.4005338616       -3.6584066079
	 H           4.4915097710        1.3572810199        0.3790657789
	 H          -2.6870740203        1.4931565833        5.8137166391
	 H           3.0388203386       -5.1798955051       -5.9274744002
	 H           7.9669626956       -0.6165529923       -2.0425884323
	 H          -8.0948624743        2.5218598140        3.5851251257
	             0.0003782395        0.0011368817        0.0001785035
	             0.0005976413        0.0011201258       -0.0001317259
	             0.0000021397       -0.0009438398        0.0008087714
	             0.0003790233        0.0007472089       -0.0013133370
	             0.0001811427       -0.0003389611        0.0005338518
	             0.0003771236       -0.0000810015       -0.0000602633
	             0.0002268526        0.0000133977        0.0000491156
	             0.0000153095       -0.0001396589       -0.0005419506
	            -0.0001163157        0.0002289354       -0.0000246702
	            -0.0005112741       -0.0016896766       -0.0003638563
	            -0.0008502330       -0.0008346073        0.0000838347
	            -0.0002058636       -0.0001567918       -0.0001220565
	            -0.0004388603        0.0019245016       -0.0014440221
	             0.0001298204       -0.0002558162        0.0009805112
	             0.0000220093       -0.0001618773       -0.0002431949
	            -0.0001303877        0.0000439396       -0.0000265419
	            -0.0002162661        0.0001231670       -0.0001478485
	            -0.0000216911        0.0003055656        0.0002290708
	             0.0000275197        0.0000941991        0.0001295667
	            -0.0001372512       -0.0001601287       -0.0001320773
	             0.0000479213        0.0000975370        0.0000991504
	             0.0002434000       -0.0010731001        0.0014591683

	---Fragment 1 Intrafragment Coordinates---
	 - Coordinate -           - BOHR/RAD -       - ANG/DEG -
	 R(1,2)           =         2.617335	       1.385034
	 R(1,8)           =         2.634332	       1.394028
	 R(1,15)          =         2.041384	       1.080254
	 R(2,10)          =         2.621787	       1.387390
	 R(2,16)          =         2.038524	       1.078741
	 R(3,6)           =         2.620094	       1.386494
	 R(3,9)           =         2.627805	       1.390575
	 R(3,17)          =         2.040984	       1.080042
	 R(4,7)           =         2.618873	       1.385848
	 R(4,9)           =         2.628005	       1.390680
	 R(4,18)          =         2.039881	       1.079458
	 R(5,10)          =         2.619187	       1.386014
	 R(5,11)          =         2.606301	       1.379195
	 R(5,19)          =         2.036406	       1.077620
	 R(6,12)          =         2.521639	       1.334394
	 R(6,20)          =         2.043446	       1.081345
	 R(7,12)          =         2.524132	       1.335713
	 R(7,21)          =         2.042664	       1.080931
	 R(8,9)           =         2.765218	       1.463290
	 R(8,11)          =         2.624539	       1.388846
	 R(10,13)         =         2.604640	       1.378316
	 R(11,14)         =         2.544025	       1.346240
	 R(13,22)         =         1.817266	       0.961656
	 B(1,2,10)        =         2.086379	     119.540732
	 B(1,2,16)        =         2.111618	     120.986795
	 B(1,8,9)         =         2.111223	     120.964163
	 B(1,8,11)        =         2.038026	     116.770261
	 B(2,1,8)         =         2.124768	     121.740255
	 B(2,1,15)        =         2.093013	     119.920822
	 B(2,10,5)        =         2.097749	     120.192180
	 B(2,10,13)       =         2.112919	     121.061349
	 B(3,6,12)        =         2.156553	     123.561366
	 B(3,6,20)        =         2.096258	     120.106757
	 B(3,9,4)         =         2.047569	     117.317082
	 B(3,9,8)         =         2.105329	     120.626483
	 B(4,7,12)        =         2.159053	     123.704596
	 B(4,7,21)        =         2.095144	     120.042904
	 B(4,9,8)         =         2.130057	     122.043273
	 B(5,10,13)       =         2.070031	     118.604048
	 B(5,11,8)        =         2.145186	     122.910085
	 B(5,11,14)       =         2.058098	     117.920320
	 B(6,3,9)         =         2.082875	     119.339925
	 B(6,3,17)        =         2.101104	     120.384410
	 B(6,12,7)        =         2.039922	     116.878936
	 B(7,4,9)         =         2.080397	     119.197980
	 B(7,4,18)        =         2.101068	     120.382350
	 B(8,1,15)        =         2.065176	     118.325842
	 B(8,11,14)       =         2.079748	     119.160769
	 B(9,3,17)        =         2.099188	     120.274589
	 B(9,4,18)        =         2.101714	     120.419347
	 B(9,8,11)        =         2.133934	     122.265440
	 B(10,2,16)       =         2.085121	     119.468661
	 B(10,5,11)       =         2.074027	     118.832993
	 B(10,5,19)       =         2.106738	     120.707207
	 B(10,13,22)      =         1.899927	     108.857789
	 B(11,5,19)       =         2.102419	     120.459747
	 B(12,6,20)       =         2.030363	     116.331225
	 B(12,7,21)       =         2.028984	     116.252217
	 D(1,2,10,5)      =         0.023943	       1.371815
	 D(1,2,10,13)     =         3.088764	     176.973124
	 D(1,8,9,3)       =        -0.913591	     -52.344889
	 D(1,8,9,4)       =         2.204346	     126.299699
	 D(1,8,11,5)      =         0.007366	       0.422053
	 D(1,8,11,14)     =         3.129689	     179.317994
	 D(2,1,8,9)       =        -3.138894	    -179.845393
	 D(2,1,8,11)      =         0.004989	       0.285861
	 D(2,10,5,11)     =        -0.012042	      -0.689938
	 D(2,10,5,19)     =         3.131005	     179.393375
	 D(2,10,13,22)    =         1.306496	      74.856707
	 D(3,6,12,7)      =        -0.000792	      -0.045377
	 D(3,9,4,7)       =         0.001224	       0.070146
	 D(3,9,4,18)      =         3.139223	     179.864247
	 D(3,9,8,11)      =         2.225583	     127.516524
	 D(4,7,12,6)      =        -0.000252	      -0.014410
	 D(4,9,3,6)       =        -0.002181	      -0.124968
	 D(4,9,3,17)      =         3.132849	     179.499044
	 D(4,9,8,11)      =        -0.939666	     -53.838887
	 D(5,10,2,16)     =        -3.105379	    -177.925085
	 D(5,10,13,22)    =        -1.910676	    -109.473685
	 D(5,11,8,9)      =        -3.131903	    -179.444845
	 D(6,3,9,8)       =         3.116843	     178.581924
	 D(6,12,7,21)     =        -3.138456	    -179.820257
	 D(7,4,9,8)       =        -3.117457	    -178.617125
	 D(7,12,6,20)     =        -3.137248	    -179.751097
	 D(8,1,2,10)      =        -0.020522	      -1.175808
	 D(8,1,2,16)      =         3.108609	     178.110152
	 D(8,9,3,17)      =        -0.031312	      -1.794065
	 D(8,9,4,18)      =         0.020542	       1.176976
	 D(8,11,5,10)     =        -0.003871	      -0.221795
	 D(8,11,5,19)     =         3.136271	     179.695105
	 D(9,3,6,12)      =         0.002058	       0.117888
	 D(9,3,6,20)      =         3.138329	     179.813011
	 D(9,4,7,12)      =         0.000000	       0.000000
	 D(9,4,7,21)      =         3.138084	     179.798971
	 D(9,8,1,15)      =        -0.020293	      -1.162696
	 D(9,8,11,14)     =        -0.009580	      -0.548904
	 D(10,2,1,15)     =        -3.138764	    -179.837911
	 D(10,5,11,14)    =        -3.126420	    -179.130662
	 D(11,5,10,13)    =        -3.078732	    -176.398337
	 D(11,8,1,15)     =         3.123591	     178.968559
	 D(12,6,3,17)     =        -3.132966	    -179.505701
	 D(12,7,4,18)     =        -3.137998	    -179.794056
	 D(13,10,2,16)    =        -0.040558	      -2.323776
	 D(13,10,5,19)    =         0.064315	       3.684976
	 D(14,11,5,19)    =         0.013722	       0.786238
	 D(15,1,2,16)     =        -0.009633	      -0.551951
	 D(17,3,6,20)     =         0.003306	       0.189421
	 D(18,4,7,21)     =         0.000084	       0.004792
	 R(4,14)          =         5.659887	       2.995083

	Current energy   :      -652.8702764580

	Energy change for the previous step:
		Projected    :        -0.0002908682
		Actual       :        -0.0002575576

	Performing BFGS update.
	Previous computed or guess Hessian on step 1.
	Steps to be used in Hessian update: 4 3
	Adding user-defined constraint: Fragment 1; Coordinate 69:
		Value =     1.306496; Fixed value    =     1.309000
		Force =     0.001502; Force constant =     0.600000
	Removing off-diagonal coupling between coordinate 69 and others.
	Taking RFO optimization step.
	Going to follow RFO solution 1.
	Using RFO vector 1.

	Determining step-restricting scale parameter for RS-RFO.
	Maximum step size allowed    0.10000

	 Iter      |step|        alpha        rfo_root  
	------------------------------------------------
	    0     0.44396       1.00000           1
	    1     0.28888       5.66913           1
	    2     0.19357      17.08306           1
	    3     0.13904      37.91827           1
	    4     0.11152      62.59204           1
	    5     0.10156      77.01635           1
	    6     0.10004      79.61712           1
	    7     0.10000      79.67960           1
	------------------------------------------------
	Norm of target step-size    0.10000
	Projected energy change by RFO approximation:        -0.0002232871

	Back-transformation to cartesian coordinates...
	The INTCO_EXCEPTion handler:
	TORS::compute_val: unable to compute torsion value
	Dynamic level is 0.
	exc.g_really_quit() is 0.

  **** Optimization has failed! (in 5 steps) ****
			--------------------------
			 OPTKING Finished Execution 
			--------------------------
	Cleaning optimization helper files.

*** Psi4 exiting successfully. Buy a developer a beer!
