
    -----------------------------------------------------------------------
          Psi4: An Open-Source Ab Initio Electronic Structure Package
                               Psi4 1.1 release

                         Git: Rev {HEAD} add49b9 


    R. M. Parrish, L. A. Burns, D. G. A. Smith, A. C. Simmonett,
    A. E. DePrince III, E. G. Hohenstein, U. Bozkaya, A. Yu. Sokolov,
    R. Di Remigio, R. M. Richard, J. F. Gonthier, A. M. James,
    H. R. McAlexander, A. Kumar, M. Saitow, X. Wang, B. P. Pritchard,
    P. Verma, H. F. Schaefer III, K. Patkowski, R. A. King, E. F. Valeev,
    F. A. Evangelista, J. M. Turney, T. D. Crawford, and C. D. Sherrill,
    J. Chem. Theory Comput. in press (2017).
    (doi: 10.1021/acs.jctc.7b00174)

    -----------------------------------------------------------------------


    Psi4 started on: Sunday, 12 November 2017 08:17AM

    Process ID:  27399
    PSIDATADIR: /cbio/jclab/home/chayas/anaconda/envs/py35/share/psi4
    Memory:     500.0 MiB
    Threads:    8
    
  ==> Input File <==

--------------------------------------------------------------------------

memory 5 Gb

molecule phepyrOH_cation {
  symmetry C1
  1 1 
  C      1.885   -1.036   -0.112
  C      2.878   -1.652   2.002
  C      0.807   -0.463   0.561
  C      1.800   -1.079   2.676
  C      4.640   -1.549   -1.148
  C      4.517   -3.475   0.294
  C      5.711   -2.143   -1.800
  C      5.591   -4.020   -0.394
  C      2.921   -1.631   0.608
  C      4.040   -2.225   -0.090
  C      0.764   -0.484   1.955
  N      6.150   -3.347   -1.409
  O      -0.288   0.076   2.612
  H      1.904   -1.012   -1.199
  H      3.678   -2.112   2.578
  H      0.003   -0.001   -0.006
  H      1.772   -1.098   3.762
  H      4.288   -0.573   -1.469
  H      4.068   -4.025   1.116
  H      6.237   -1.692   -2.629
  H      6.028   -4.983   -0.165
  H      6.938   -3.767   -1.902
  H      -0.175   -0.018   3.571
  units Angstrom
}

dih_string = "1 9 10 5 45"
set optking fixed_dihedral = $dih_string

optimize('MP2/aug-cc-PVTZ')
--------------------------------------------------------------------------

  Memory set to   4.657 GiB by Python driver.
gradient() will perform analytic gradient computation.

*** tstart() called on gpu-2-11.local
*** at Sun Nov 12 08:17:23 2017

    SCF Algorithm Type (re)set to DF.

*** tstart() called on gpu-2-11.local
*** at Sun Nov 12 08:17:23 2017

   => Loading Basis Set <=

    Name: AUG-CC-PVTZ
    Role: ORBITAL
    Keyword: BASIS
    atoms 1-11  entry C          line   221 file /cbio/jclab/home/chayas/anaconda/envs/py35/share/psi4/basis/aug-cc-pvtz.gbs 
    atoms 12    entry N          line   267 file /cbio/jclab/home/chayas/anaconda/envs/py35/share/psi4/basis/aug-cc-pvtz.gbs 
    atoms 13    entry O          line   313 file /cbio/jclab/home/chayas/anaconda/envs/py35/share/psi4/basis/aug-cc-pvtz.gbs 
    atoms 14-23 entry H          line    34 file /cbio/jclab/home/chayas/anaconda/envs/py35/share/psi4/basis/aug-cc-pvtz.gbs 


         ---------------------------------------------------------
                                   SCF
            by Justin Turney, Rob Parrish, and Andy Simmonett
                              RHF Reference
                        8 Threads,   4768 MiB Core
         ---------------------------------------------------------

  ==> Geometry <==

    Molecular point group: c1
    Full point group: C1

    Geometry (in Angstrom), charge = 1, multiplicity = 1:

       Center              X                  Y                   Z               Mass       
    ------------   -----------------  -----------------  -----------------  -----------------
           C         -1.271584677165     0.720015539849    -0.578990691733    12.000000000000
           C         -0.278584677165     0.104015539849     1.535009308267    12.000000000000
           C         -2.349584677165     1.293015539849     0.094009308267    12.000000000000
           C         -1.356584677165     0.677015539849     2.209009308267    12.000000000000
           C          1.483415322835     0.207015539849    -1.614990691733    12.000000000000
           C          1.360415322835    -1.718984460151    -0.172990691733    12.000000000000
           C          2.554415322835    -0.386984460151    -2.266990691733    12.000000000000
           C          2.434415322835    -2.263984460151    -0.860990691733    12.000000000000
           C         -0.235584677165     0.125015539849     0.141009308267    12.000000000000
           C          0.883415322835    -0.468984460151    -0.556990691733    12.000000000000
           C         -2.392584677165     1.272015539849     1.488009308267    12.000000000000
           N          2.993415322835    -1.590984460151    -1.875990691733    14.003074004780
           O         -3.444584677165     1.832015539849     2.145009308267    15.994914619560
           H         -1.252584677165     0.744015539849    -1.665990691733     1.007825032070
           H          0.521415322835    -0.355984460151     2.111009308267     1.007825032070
           H         -3.153584677165     1.755015539849    -0.472990691733     1.007825032070
           H         -1.384584677165     0.658015539849     3.295009308267     1.007825032070
           H          1.131415322835     1.183015539849    -1.935990691733     1.007825032070
           H          0.911415322835    -2.268984460151     0.649009308267     1.007825032070
           H          3.080415322835     0.064015539849    -3.095990691733     1.007825032070
           H          2.871415322835    -3.226984460151    -0.631990691733     1.007825032070
           H          3.781415322835    -2.010984460151    -2.368990691733     1.007825032070
           H         -3.331584677165     1.738015539849     3.104009308267     1.007825032070

  Running in c1 symmetry.

  Rotational constants: A =      0.09610  B =      0.01321  C =      0.01204 [cm^-1]
  Rotational constants: A =   2880.99415  B =    396.04720  C =    360.96736 [MHz]
  Nuclear repulsion =  712.704176685465768

  Charge       = 1
  Multiplicity = 1
  Electrons    = 90
  Nalpha       = 45
  Nbeta        = 45

  ==> Algorithm <==

  SCF Algorithm Type is DF.
  DIIS enabled.
  MOM disabled.
  Fractional occupation disabled.
  Guess Type is SAD.
  Energy threshold   = 1.00e-10
  Density threshold  = 1.00e-10
  Integral threshold = 0.00e+00

  ==> Primary Basis <==

  Basis Set: AUG-CC-PVTZ
    Blend: AUG-CC-PVTZ
    Number of shells: 272
    Number of basis function: 828
    Number of Cartesian functions: 965
    Spherical Harmonics?: true
    Max angular momentum: 3

   => Loading Basis Set <=

    Name: (AUG-CC-PVTZ AUX)
    Role: JKFIT
    Keyword: DF_BASIS_SCF
    atoms 1-11  entry C          line   161 file /cbio/jclab/home/chayas/anaconda/envs/py35/share/psi4/basis/aug-cc-pvtz-jkfit.gbs 
    atoms 12    entry N          line   223 file /cbio/jclab/home/chayas/anaconda/envs/py35/share/psi4/basis/aug-cc-pvtz-jkfit.gbs 
    atoms 13    entry O          line   285 file /cbio/jclab/home/chayas/anaconda/envs/py35/share/psi4/basis/aug-cc-pvtz-jkfit.gbs 
    atoms 14-23 entry H          line    69 file /cbio/jclab/home/chayas/anaconda/envs/py35/share/psi4/basis/aug-cc-pvtz-jkfit.gbs 

  ==> Pre-Iterations <==

   -------------------------------------------------------
    Irrep   Nso     Nmo     Nalpha   Nbeta   Ndocc  Nsocc
   -------------------------------------------------------
     A        828     828       0       0       0       0
   -------------------------------------------------------
    Total     828     828      45      45      45       0
   -------------------------------------------------------

  ==> Integral Setup <==

  ==> DFJK: Density-Fitted J/K Matrices <==

    J tasked:                  Yes
    K tasked:                  Yes
    wK tasked:                  No
    OpenMP threads:              8
    Integrals threads:           8
    Memory (MB):              3576
    Algorithm:                Disk
    Integral Cache:           NONE
    Schwarz Cutoff:          1E-12
    Fitting Condition:       1E-12

   => Auxiliary Basis Set <=

  Basis Set: (AUG-CC-PVTZ AUX)
    Blend: AUG-CC-PVTZ-JKFIT
    Number of shells: 530
    Number of basis function: 1812
    Number of Cartesian functions: 2253
    Spherical Harmonics?: true
    Max angular momentum: 4

  Minimum eigenvalue in the overlap matrix is 5.5470983584E-07.
  Using Symmetric Orthogonalization.

  SCF Guess: Superposition of Atomic Densities via on-the-fly atomic UHF.

  ==> Iterations <==

                           Total Energy        Delta E     RMS |[F,P]|

   @DF-RHF iter   0:  -553.23023349720927   -5.53230e+02   2.33509e-02 
   @DF-RHF iter   1:  -551.19541476768234    2.03482e+00   2.64856e-03 
   @DF-RHF iter   2:  -551.56461198451245   -3.69197e-01   1.43676e-03 DIIS
   @DF-RHF iter   3:  -551.65375198617346   -8.91400e-02   5.11254e-04 DIIS
   @DF-RHF iter   4:  -551.67222158060747   -1.84696e-02   1.78724e-04 DIIS
   @DF-RHF iter   5:  -551.67522847656028   -3.00690e-03   4.99400e-05 DIIS
   @DF-RHF iter   6:  -551.67570548630806   -4.77010e-04   2.00341e-05 DIIS
   @DF-RHF iter   7:  -551.67577641542925   -7.09291e-05   5.96022e-06 DIIS
   @DF-RHF iter   8:  -551.67578550385406   -9.08842e-06   3.00655e-06 DIIS
   @DF-RHF iter   9:  -551.67578754516626   -2.04131e-06   1.61284e-06 DIIS
   @DF-RHF iter  10:  -551.67578828636442   -7.41198e-07   7.55348e-07 DIIS
   @DF-RHF iter  11:  -551.67578843234219   -1.45978e-07   2.10997e-07 DIIS
   @DF-RHF iter  12:  -551.67578844184027   -9.49808e-09   8.10463e-08 DIIS
   @DF-RHF iter  13:  -551.67578844290483   -1.06456e-09   3.88126e-08 DIIS
   @DF-RHF iter  14:  -551.67578844317643   -2.71598e-10   1.39110e-08 DIIS
   @DF-RHF iter  15:  -551.67578844323214   -5.57066e-11   5.93948e-09 DIIS
   @DF-RHF iter  16:  -551.67578844324009   -7.95808e-12   2.39596e-09 DIIS
   @DF-RHF iter  17:  -551.67578844325703   -1.69393e-11   1.28287e-09 DIIS
   @DF-RHF iter  18:  -551.67578844324157    1.54614e-11   4.94380e-10 DIIS
   @DF-RHF iter  19:  -551.67578844323589    5.68434e-12   2.01383e-10 DIIS
   @DF-RHF iter  20:  -551.67578844326329   -2.73985e-11   7.79722e-11 DIIS

  ==> Post-Iterations <==

    Orbital Energies (a.u.)
    -----------------------

    Doubly Occupied:                                                      

       1A    -20.699742     2A    -15.836906     3A    -11.485801  
       4A    -11.485702     5A    -11.446360     6A    -11.429731  
       7A    -11.416358     8A    -11.416158     9A    -11.377010  
      10A    -11.375358    11A    -11.369816    12A    -11.355235  
      13A    -11.351697    14A     -1.514831    15A     -1.513649  
      16A     -1.320207    17A     -1.263064    18A     -1.238959  
      19A     -1.153665    20A     -1.148145    21A     -1.068852  
      22A     -1.054644    23A     -0.974012    24A     -0.963889  
      25A     -0.948158    26A     -0.871144    27A     -0.858543  
      28A     -0.851979    29A     -0.821325    30A     -0.798976  
      31A     -0.785020    32A     -0.774018    33A     -0.753495  
      34A     -0.730482    35A     -0.718873    36A     -0.709188  
      37A     -0.701160    38A     -0.683605    39A     -0.651472  
      40A     -0.628092    41A     -0.616924    42A     -0.571826  
      43A     -0.538568    44A     -0.467607    45A     -0.436876  

    Virtual:                                                              

      46A     -0.103599    47A     -0.085585    48A     -0.064231  
      49A     -0.063035    50A     -0.059237    51A     -0.051057  
      52A     -0.042915    53A     -0.039415    54A     -0.037044  
      55A     -0.029944    56A     -0.024290    57A     -0.023730  
      58A     -0.015541    59A     -0.010460    60A     -0.005804  
      61A     -0.001846    62A      0.000872    63A      0.007219  
      64A      0.009071    65A      0.012965    66A      0.014843  
      67A      0.020649    68A      0.021004    69A      0.025048  
      70A      0.029878    71A      0.032274    72A      0.036696  
      73A      0.038447    74A      0.041773    75A      0.042552  
      76A      0.048935    77A      0.051714    78A      0.054856  
      79A      0.057589    80A      0.064215    81A      0.065969  
      82A      0.071769    83A      0.074502    84A      0.079763  
      85A      0.083045    86A      0.085295    87A      0.091138  
      88A      0.095291    89A      0.097101    90A      0.107532  
      91A      0.110410    92A      0.116751    93A      0.117718  
      94A      0.120453    95A      0.125825    96A      0.130401  
      97A      0.132180    98A      0.136347    99A      0.137267  
     100A      0.143626   101A      0.153171   102A      0.159270  
     103A      0.160680   104A      0.164590   105A      0.165974  
     106A      0.168334   107A      0.171693   108A      0.174767  
     109A      0.175427   110A      0.178900   111A      0.182198  
     112A      0.191433   113A      0.192825   114A      0.196408  
     115A      0.200480   116A      0.202390   117A      0.208339  
     118A      0.213777   119A      0.215923   120A      0.218256  
     121A      0.224021   122A      0.227242   123A      0.228055  
     124A      0.230793   125A      0.237699   126A      0.239339  
     127A      0.242398   128A      0.248930   129A      0.252579  
     130A      0.255527   131A      0.260121   132A      0.268634  
     133A      0.277129   134A      0.279431   135A      0.282068  
     136A      0.284463   137A      0.288249   138A      0.291412  
     139A      0.299491   140A      0.308430   141A      0.311019  
     142A      0.314316   143A      0.317169   144A      0.319393  
     145A      0.321120   146A      0.323521   147A      0.326458  
     148A      0.330801   149A      0.335711   150A      0.340691  
     151A      0.341865   152A      0.346025   153A      0.348818  
     154A      0.353456   155A      0.354082   156A      0.357550  
     157A      0.362622   158A      0.366695   159A      0.367725  
     160A      0.371064   161A      0.375554   162A      0.377438  
     163A      0.381849   164A      0.385580   165A      0.390746  
     166A      0.394081   167A      0.399312   168A      0.400346  
     169A      0.402200   170A      0.404726   171A      0.410845  
     172A      0.412368   173A      0.416841   174A      0.419390  
     175A      0.424190   176A      0.426643   177A      0.429597  
     178A      0.437012   179A      0.441829   180A      0.443193  
     181A      0.446231   182A      0.454136   183A      0.459337  
     184A      0.464882   185A      0.467724   186A      0.475324  
     187A      0.476754   188A      0.480511   189A      0.489651  
     190A      0.493805   191A      0.496565   192A      0.503854  
     193A      0.521608   194A      0.526237   195A      0.528196  
     196A      0.540170   197A      0.543223   198A      0.545189  
     199A      0.553870   200A      0.566223   201A      0.573353  
     202A      0.575112   203A      0.576512   204A      0.580554  
     205A      0.581275   206A      0.586060   207A      0.594215  
     208A      0.597748   209A      0.603561   210A      0.612111  
     211A      0.617984   212A      0.619467   213A      0.624866  
     214A      0.630418   215A      0.632285   216A      0.635014  
     217A      0.637779   218A      0.643950   219A      0.658133  
     220A      0.662238   221A      0.667522   222A      0.680810  
     223A      0.686535   224A      0.695662   225A      0.696659  
     226A      0.701942   227A      0.705061   228A      0.708284  
     229A      0.713725   230A      0.720263   231A      0.723230  
     232A      0.726586   233A      0.735479   234A      0.736424  
     235A      0.741312   236A      0.748842   237A      0.753480  
     238A      0.757971   239A      0.767682   240A      0.769582  
     241A      0.773426   242A      0.778611   243A      0.782792  
     244A      0.788953   245A      0.789775   246A      0.791755  
     247A      0.795546   248A      0.798984   249A      0.806280  
     250A      0.806715   251A      0.812315   252A      0.815781  
     253A      0.821134   254A      0.829226   255A      0.831657  
     256A      0.840478   257A      0.846116   258A      0.848611  
     259A      0.857534   260A      0.862540   261A      0.867157  
     262A      0.872824   263A      0.874479   264A      0.877844  
     265A      0.880015   266A      0.882716   267A      0.888971  
     268A      0.895860   269A      0.905291   270A      0.911097  
     271A      0.912663   272A      0.915241   273A      0.921253  
     274A      0.925300   275A      0.928734   276A      0.932673  
     277A      0.934866   278A      0.943354   279A      0.945264  
     280A      0.949762   281A      0.952701   282A      0.954444  
     283A      0.957828   284A      0.966623   285A      0.972719  
     286A      0.978085   287A      0.981798   288A      0.986812  
     289A      0.988728   290A      0.992372   291A      0.996469  
     292A      0.999522   293A      1.005959   294A      1.006465  
     295A      1.013799   296A      1.015981   297A      1.021972  
     298A      1.024649   299A      1.032379   300A      1.038193  
     301A      1.042073   302A      1.051393   303A      1.053255  
     304A      1.058055   305A      1.061440   306A      1.070954  
     307A      1.073889   308A      1.075322   309A      1.079629  
     310A      1.089680   311A      1.091724   312A      1.094948  
     313A      1.098882   314A      1.104598   315A      1.109582  
     316A      1.113974   317A      1.119568   318A      1.134636  
     319A      1.135455   320A      1.141996   321A      1.144011  
     322A      1.148573   323A      1.155975   324A      1.157202  
     325A      1.162150   326A      1.168379   327A      1.176796  
     328A      1.186739   329A      1.190987   330A      1.204281  
     331A      1.206132   332A      1.218130   333A      1.220566  
     334A      1.224594   335A      1.229603   336A      1.241499  
     337A      1.244065   338A      1.254198   339A      1.260678  
     340A      1.264008   341A      1.268761   342A      1.281695  
     343A      1.293760   344A      1.297282   345A      1.300182  
     346A      1.305221   347A      1.311345   348A      1.318653  
     349A      1.321467   350A      1.328240   351A      1.334791  
     352A      1.348380   353A      1.358624   354A      1.360825  
     355A      1.365153   356A      1.367602   357A      1.378391  
     358A      1.382227   359A      1.392612   360A      1.395441  
     361A      1.398553   362A      1.405591   363A      1.412761  
     364A      1.419857   365A      1.431486   366A      1.441758  
     367A      1.450083   368A      1.453461   369A      1.459410  
     370A      1.469769   371A      1.478530   372A      1.484452  
     373A      1.492924   374A      1.507348   375A      1.512068  
     376A      1.521172   377A      1.523784   378A      1.527380  
     379A      1.536109   380A      1.547507   381A      1.553560  
     382A      1.558656   383A      1.562620   384A      1.571587  
     385A      1.574601   386A      1.584444   387A      1.595724  
     388A      1.607080   389A      1.613370   390A      1.620264  
     391A      1.625304   392A      1.633014   393A      1.646348  
     394A      1.655368   395A      1.660405   396A      1.671044  
     397A      1.682969   398A      1.689362   399A      1.693651  
     400A      1.702959   401A      1.705411   402A      1.707507  
     403A      1.716160   404A      1.726515   405A      1.736517  
     406A      1.742137   407A      1.748601   408A      1.752704  
     409A      1.764521   410A      1.771558   411A      1.786898  
     412A      1.795575   413A      1.797063   414A      1.808627  
     415A      1.815034   416A      1.815767   417A      1.820713  
     418A      1.828053   419A      1.835201   420A      1.851474  
     421A      1.861046   422A      1.865759   423A      1.872080  
     424A      1.877410   425A      1.881835   426A      1.893336  
     427A      1.898091   428A      1.903498   429A      1.909121  
     430A      1.916516   431A      1.918237   432A      1.921706  
     433A      1.935880   434A      1.947772   435A      1.950031  
     436A      1.959989   437A      1.968013   438A      1.987044  
     439A      1.991135   440A      1.998224   441A      2.010276  
     442A      2.015310   443A      2.029564   444A      2.037219  
     445A      2.042207   446A      2.047442   447A      2.054727  
     448A      2.056054   449A      2.071815   450A      2.081971  
     451A      2.087265   452A      2.095444   453A      2.100348  
     454A      2.112484   455A      2.128927   456A      2.135820  
     457A      2.154684   458A      2.170331   459A      2.180445  
     460A      2.193092   461A      2.198366   462A      2.201952  
     463A      2.210816   464A      2.213386   465A      2.218613  
     466A      2.228651   467A      2.246147   468A      2.257357  
     469A      2.261688   470A      2.264424   471A      2.287938  
     472A      2.297072   473A      2.304157   474A      2.305245  
     475A      2.321015   476A      2.329550   477A      2.332751  
     478A      2.342867   479A      2.362082   480A      2.384320  
     481A      2.387461   482A      2.400016   483A      2.408462  
     484A      2.415665   485A      2.418439   486A      2.421315  
     487A      2.436543   488A      2.447240   489A      2.455175  
     490A      2.478354   491A      2.494692   492A      2.498388  
     493A      2.508871   494A      2.527633   495A      2.543746  
     496A      2.551027   497A      2.566636   498A      2.568994  
     499A      2.586669   500A      2.604915   501A      2.620367  
     502A      2.630403   503A      2.637035   504A      2.642008  
     505A      2.690130   506A      2.699121   507A      2.713853  
     508A      2.724197   509A      2.747036   510A      2.751674  
     511A      2.772994   512A      2.783056   513A      2.800865  
     514A      2.828782   515A      2.837003   516A      2.874936  
     517A      2.884958   518A      2.946410   519A      2.951385  
     520A      2.961074   521A      2.976568   522A      2.981473  
     523A      3.003435   524A      3.010951   525A      3.044539  
     526A      3.060406   527A      3.075494   528A      3.085500  
     529A      3.089786   530A      3.124702   531A      3.125898  
     532A      3.154599   533A      3.162126   534A      3.174224  
     535A      3.185524   536A      3.187650   537A      3.199839  
     538A      3.217625   539A      3.224165   540A      3.238466  
     541A      3.244712   542A      3.257272   543A      3.265876  
     544A      3.280358   545A      3.286587   546A      3.297772  
     547A      3.307298   548A      3.312034   549A      3.327892  
     550A      3.339754   551A      3.350239   552A      3.357271  
     553A      3.365299   554A      3.372015   555A      3.373673  
     556A      3.383799   557A      3.394048   558A      3.407146  
     559A      3.412602   560A      3.416816   561A      3.422233  
     562A      3.426481   563A      3.427871   564A      3.445278  
     565A      3.448586   566A      3.465805   567A      3.474754  
     568A      3.489722   569A      3.501111   570A      3.512034  
     571A      3.515632   572A      3.541835   573A      3.548578  
     574A      3.553002   575A      3.561707   576A      3.563669  
     577A      3.579680   578A      3.583002   579A      3.586256  
     580A      3.613676   581A      3.618914   582A      3.624243  
     583A      3.634953   584A      3.646274   585A      3.653284  
     586A      3.661682   587A      3.677938   588A      3.688472  
     589A      3.697185   590A      3.702075   591A      3.704408  
     592A      3.708293   593A      3.720089   594A      3.722319  
     595A      3.756108   596A      3.760891   597A      3.761447  
     598A      3.771691   599A      3.780928   600A      3.784267  
     601A      3.799082   602A      3.802232   603A      3.814307  
     604A      3.820861   605A      3.835316   606A      3.838353  
     607A      3.853957   608A      3.858131   609A      3.866040  
     610A      3.874281   611A      3.881655   612A      3.882179  
     613A      3.889016   614A      3.897865   615A      3.904833  
     616A      3.923044   617A      3.934245   618A      3.946726  
     619A      3.956222   620A      3.956805   621A      3.964968  
     622A      3.975901   623A      3.987370   624A      4.003627  
     625A      4.005859   626A      4.018799   627A      4.030321  
     628A      4.032876   629A      4.036760   630A      4.048580  
     631A      4.050985   632A      4.063959   633A      4.069041  
     634A      4.074402   635A      4.096669   636A      4.104327  
     637A      4.109884   638A      4.115349   639A      4.130439  
     640A      4.140319   641A      4.153729   642A      4.162105  
     643A      4.176646   644A      4.183620   645A      4.191304  
     646A      4.198646   647A      4.203821   648A      4.215347  
     649A      4.224047   650A      4.230616   651A      4.235187  
     652A      4.239457   653A      4.252764   654A      4.255547  
     655A      4.267118   656A      4.274208   657A      4.277721  
     658A      4.287984   659A      4.296619   660A      4.307912  
     661A      4.310863   662A      4.324417   663A      4.333937  
     664A      4.343139   665A      4.345530   666A      4.360522  
     667A      4.368455   668A      4.372691   669A      4.382493  
     670A      4.393718   671A      4.404981   672A      4.411527  
     673A      4.424086   674A      4.430913   675A      4.437099  
     676A      4.456146   677A      4.472293   678A      4.476306  
     679A      4.493822   680A      4.509614   681A      4.521072  
     682A      4.554383   683A      4.576870   684A      4.578310  
     685A      4.588666   686A      4.600868   687A      4.617301  
     688A      4.625872   689A      4.640777   690A      4.644586  
     691A      4.647954   692A      4.674606   693A      4.688428  
     694A      4.700444   695A      4.720734   696A      4.726063  
     697A      4.741789   698A      4.747923   699A      4.766515  
     700A      4.769330   701A      4.806432   702A      4.814156  
     703A      4.824765   704A      4.835127   705A      4.836906  
     706A      4.841961   707A      4.856437   708A      4.864356  
     709A      4.878789   710A      4.901831   711A      4.918403  
     712A      4.925345   713A      4.926247   714A      4.939283  
     715A      4.950940   716A      4.954625   717A      4.970828  
     718A      4.984120   719A      4.997885   720A      5.005894  
     721A      5.009242   722A      5.023067   723A      5.025333  
     724A      5.044151   725A      5.049022   726A      5.062323  
     727A      5.087306   728A      5.093617   729A      5.112362  
     730A      5.121711   731A      5.139213   732A      5.152009  
     733A      5.170908   734A      5.184841   735A      5.196819  
     736A      5.203649   737A      5.209292   738A      5.217860  
     739A      5.236402   740A      5.265864   741A      5.287921  
     742A      5.295004   743A      5.306284   744A      5.323615  
     745A      5.341964   746A      5.352418   747A      5.357870  
     748A      5.380260   749A      5.390613   750A      5.408327  
     751A      5.433618   752A      5.452100   753A      5.472980  
     754A      5.506275   755A      5.526624   756A      5.551446  
     757A      5.574283   758A      5.587601   759A      5.604087  
     760A      5.610913   761A      5.629490   762A      5.661028  
     763A      5.681346   764A      5.698120   765A      5.724130  
     766A      5.731451   767A      5.774958   768A      5.807500  
     769A      5.840680   770A      5.872949   771A      5.933420  
     772A      5.943529   773A      5.984965   774A      5.985938  
     775A      6.020721   776A      6.025054   777A      6.102028  
     778A      6.125728   779A      6.164471   780A      6.207058  
     781A      6.229718   782A      6.262803   783A      6.301702  
     784A      6.340132   785A      6.378792   786A      6.389951  
     787A      6.409395   788A      6.470270   789A      6.481469  
     790A      6.526216   791A      6.570850   792A      6.647644  
     793A      6.658464   794A      6.748701   795A      6.780158  
     796A      6.797913   797A      6.803760   798A      6.832511  
     799A      6.860313   800A      6.904972   801A      6.949325  
     802A      6.974970   803A      6.981398   804A      7.109773  
     805A      7.164831   806A      7.324717   807A      7.335902  
     808A      7.456164   809A      7.541196   810A      7.591398  
     811A      7.609709   812A      7.657628   813A      7.914735  
     814A      8.292692   815A      8.543565   816A     16.004713  
     817A     16.220848   818A     16.475843   819A     16.613586  
     820A     16.892747   821A     18.771174   822A     19.123139  
     823A     19.355630   824A     19.712864   825A     19.872005  
     826A     20.194940   827A     20.239456   828A     21.858134  

    Final Occupation by Irrep:
              A 
    DOCC [    45 ]

  Energy converged.

  @DF-RHF Final Energy:  -551.67578844326329

   => Energetics <=

    Nuclear Repulsion Energy =            712.7041766854657681
    One-Electron Energy =               -2148.4056836030113118
    Two-Electron Energy =                 884.0257184742821437
    DFT Exchange-Correlation Energy =       0.0000000000000000
    Empirical Dispersion Energy =           0.0000000000000000
    PCM Polarization Energy =               0.0000000000000000
    EFP Energy =                            0.0000000000000000
    Total Energy =                       -551.6757884432632864



Properties will be evaluated at   0.000000,   0.000000,   0.000000 Bohr

Properties computed using the SCF density matrix

  Nuclear Dipole Moment: (a.u.)
     X:     2.9514      Y:    -1.5998      Z:    -0.9338

  Electronic Dipole Moment: (a.u.)
     X:     0.4345      Y:    -0.2174      Z:    -0.5808

  Dipole Moment: (a.u.)
     X:     3.3859      Y:    -1.8173      Z:    -1.5146     Total:     4.1304

  Dipole Moment: (Debye)
     X:     8.6060      Y:    -4.6190      Z:    -3.8497     Total:    10.4985


*** tstop() called on gpu-2-11.local at Sun Nov 12 08:25:05 2017
Module time:
	user time   =    1108.08 seconds =      18.47 minutes
	system time =      51.48 seconds =       0.86 minutes
	total time  =        462 seconds =       7.70 minutes
Total time:
	user time   =    1108.09 seconds =      18.47 minutes
	system time =      51.48 seconds =       0.86 minutes
	total time  =        462 seconds =       7.70 minutes

  //>>>>>>>>>>>>>>>>>>>>>>>>>>>>>>>>>>>//
  //               DFMP2               //
  //<<<<<<<<<<<<<<<<<<<<<<<<<<<<<<<<<<<//

   => Loading Basis Set <=

    Name: (AUG-CC-PVTZ AUX)
    Role: RIFIT
    Keyword: DF_BASIS_MP2
    atoms 1-11  entry C          line   147 file /cbio/jclab/home/chayas/anaconda/envs/py35/share/psi4/basis/aug-cc-pvtz-ri.gbs 
    atoms 12    entry N          line   205 file /cbio/jclab/home/chayas/anaconda/envs/py35/share/psi4/basis/aug-cc-pvtz-ri.gbs 
    atoms 13    entry O          line   263 file /cbio/jclab/home/chayas/anaconda/envs/py35/share/psi4/basis/aug-cc-pvtz-ri.gbs 
    atoms 14-23 entry H          line    29 file /cbio/jclab/home/chayas/anaconda/envs/py35/share/psi4/basis/aug-cc-pvtz-ri.gbs 

	 --------------------------------------------------------
	                          DF-MP2                         
	      2nd-Order Density-Fitted Moller-Plesset Theory     
	              RMP2 Wavefunction,   8 Threads             
	                                                         
	        Rob Parrish, Justin Turney, Andy Simmonett,      
	           Ed Hohenstein, and C. David Sherrill          
	 --------------------------------------------------------

   => Auxiliary Basis Set <=

  Basis Set: (AUG-CC-PVTZ AUX)
    Blend: AUG-CC-PVTZ-RI
    Number of shells: 504
    Number of basis function: 1838
    Number of Cartesian functions: 2318
    Spherical Harmonics?: true
    Max angular momentum: 4

	 --------------------------------------------------------
	                 NBF =   828, NAUX =  1838
	 --------------------------------------------------------
	   CLASS    FOCC     OCC    AOCC    AVIR     VIR    FVIR
	   PAIRS       0      45      45     783     783       0
	 --------------------------------------------------------


         ------------------------------------------------------------
                                     CPHF                           
                                  Rob Parrish                       
         ------------------------------------------------------------

  ==> Geometry <==

    Molecular point group: c1
    Full point group: C1

    Geometry (in Angstrom), charge = 1, multiplicity = 1:

       Center              X                  Y                   Z               Mass       
    ------------   -----------------  -----------------  -----------------  -----------------
           C         -1.271584677165     0.720015539849    -0.578990691733    12.000000000000
           C         -0.278584677165     0.104015539849     1.535009308267    12.000000000000
           C         -2.349584677165     1.293015539849     0.094009308267    12.000000000000
           C         -1.356584677165     0.677015539849     2.209009308267    12.000000000000
           C          1.483415322835     0.207015539849    -1.614990691733    12.000000000000
           C          1.360415322835    -1.718984460151    -0.172990691733    12.000000000000
           C          2.554415322835    -0.386984460151    -2.266990691733    12.000000000000
           C          2.434415322835    -2.263984460151    -0.860990691733    12.000000000000
           C         -0.235584677165     0.125015539849     0.141009308267    12.000000000000
           C          0.883415322835    -0.468984460151    -0.556990691733    12.000000000000
           C         -2.392584677165     1.272015539849     1.488009308267    12.000000000000
           N          2.993415322835    -1.590984460151    -1.875990691733    14.003074004780
           O         -3.444584677165     1.832015539849     2.145009308267    15.994914619560
           H         -1.252584677165     0.744015539849    -1.665990691733     1.007825032070
           H          0.521415322835    -0.355984460151     2.111009308267     1.007825032070
           H         -3.153584677165     1.755015539849    -0.472990691733     1.007825032070
           H         -1.384584677165     0.658015539849     3.295009308267     1.007825032070
           H          1.131415322835     1.183015539849    -1.935990691733     1.007825032070
           H          0.911415322835    -2.268984460151     0.649009308267     1.007825032070
           H          3.080415322835     0.064015539849    -3.095990691733     1.007825032070
           H          2.871415322835    -3.226984460151    -0.631990691733     1.007825032070
           H          3.781415322835    -2.010984460151    -2.368990691733     1.007825032070
           H         -3.331584677165     1.738015539849     3.104009308267     1.007825032070

  Nuclear repulsion =  712.704176685465882
  Reference energy  = -551.675788443263286

  ==> Basis Set <==

  Basis Set: AUG-CC-PVTZ
    Blend: AUG-CC-PVTZ
    Number of shells: 272
    Number of basis function: 828
    Number of Cartesian functions: 965
    Spherical Harmonics?: true
    Max angular momentum: 3

  ==> CGRSolver (by Rob Parrish) <==

   Number of roots    =         1
   Preconditioning    =    JACOBI
   Convergence cutoff =     1E-06
   Maximum iterations =       100

  ==> CPHFRHamiltonian (by Rob Parrish) <== 

  ==> DFJK: Density-Fitted J/K Matrices <==

    J tasked:                  Yes
    K tasked:                  Yes
    wK tasked:                  No
    OpenMP threads:              8
    Integrals threads:           8
    Memory (MB):              3576
    Algorithm:                Disk
    Integral Cache:           NONE
    Schwarz Cutoff:          1E-12
    Fitting Condition:       1E-12

   => Auxiliary Basis Set <=

  Basis Set: (AUG-CC-PVTZ AUX)
    Blend: AUG-CC-PVTZ-JKFIT
    Number of shells: 530
    Number of basis function: 1812
    Number of Cartesian functions: 2253
    Spherical Harmonics?: true
    Max angular momentum: 4

  ==> CPHF Iterations <==

  => Iterations <=

             Iter  Converged  Remaining    Residual
  CGR           1          0          1   1.093E-01
  CGR           2          0          1   4.936E-02
  CGR           3          0          1   2.878E-02
  CGR           4          0          1   9.183E-03
  CGR           5          0          1   4.069E-03
  CGR           6          0          1   2.018E-03
  CGR           7          0          1   6.340E-04
  CGR           8          0          1   2.572E-04
  CGR           9          0          1   1.252E-04
  CGR          10          0          1   4.459E-05
  CGR          11          0          1   1.504E-05
  CGR          12          0          1   5.545E-06
  CGR          13          0          1   1.757E-06
  CGR          14          1          0   5.818E-07

    CGRSolver converged.

  ==> DFCorrGrad: Density-Fitted Correlated Gradients <==

    OpenMP threads:              8
    Integrals threads:           8
    Memory (MB):              3576
    Schwarz Cutoff:          0E+00
    Fitting Condition:       1E-12

   => Auxiliary Basis Set <=

  Basis Set: (AUG-CC-PVTZ AUX)
    Blend: AUG-CC-PVTZ-JKFIT
    Number of shells: 530
    Number of basis function: 1812
    Number of Cartesian functions: 2253
    Spherical Harmonics?: true
    Max angular momentum: 4

	-----------------------------------------------------------
	 ==================> DF-MP2 Energies <==================== 
	-----------------------------------------------------------
	 Reference Energy          =    -551.6757884432632864 [Eh]
	 Singles Energy            =      -0.0000000000000002 [Eh]
	 Same-Spin Energy          =      -0.5963895301492855 [Eh]
	 Opposite-Spin Energy      =      -1.8251052350278900 [Eh]
	 Correlation Energy        =      -2.4214947651771754 [Eh]
	 Total Energy              =    -554.0972832084404445 [Eh]
	-----------------------------------------------------------
	 ================> DF-SCS-MP2 Energies <================== 
	-----------------------------------------------------------
	 SCS Same-Spin Scale       =       0.3333333333333333 [-]
	 SCS Opposite-Spin Scale   =       1.2000000000000000 [-]
	 SCS Same-Spin Energy      =      -0.1987965100497618 [Eh]
	 SCS Opposite-Spin Energy  =      -2.1901262820334679 [Eh]
	 SCS Correlation Energy    =      -2.3889227920832297 [Eh]
	 SCS Total Energy          =    -554.0647112353465218 [Eh]
	-----------------------------------------------------------


  -Total Gradient:
     Atom            X                  Y                   Z
    ------   -----------------  -----------------  -----------------
       1        0.007117229214    -0.009927008075    -0.005725513351
       2        0.009950542474     0.001311810153    -0.008379102675
       3        0.000174972942    -0.000100243271     0.006361274946
       4       -0.010825566875     0.005291337289     0.006355743147
       5       -0.012460220863     0.008308905569     0.012449132828
       6       -0.016993558118     0.006764922650     0.005906710893
       7        0.006046127945    -0.010874868419     0.003521322620
       8        0.004730983358     0.006088286100    -0.010755450052
       9       -0.000085420135    -0.000157823362    -0.000456236061
      10        0.010928621312    -0.005381127923    -0.006970391711
      11        0.002373662365    -0.000775921833    -0.014326033185
      12       -0.000933000613     0.000572920894     0.000516388410
      13       -0.004665811872     0.002402075168     0.008530878941
      14        0.000474295675     0.001197832630    -0.005138112180
      15        0.002886261294    -0.003045907697     0.003337821336
      16       -0.002840180537     0.002430556064    -0.004977188982
      17       -0.000052135088    -0.000757199416     0.004389536542
      18       -0.002732145056     0.005000876446    -0.002552980005
      19       -0.001828838546    -0.002628039660     0.005523086167
      20        0.001504784381    -0.000467155105    -0.001856463280
      21        0.002482091132    -0.002329906511    -0.000032900026
      22        0.005229395391    -0.002843582233    -0.003294979763
      23       -0.000482089785    -0.000080739438     0.007573455445


*** tstop() called on gpu-2-11.local at Sun Nov 12 08:59:16 2017
Module time:
	user time   =    5454.45 seconds =      90.91 minutes
	system time =     116.36 seconds =       1.94 minutes
	total time  =       2513 seconds =      41.88 minutes
Total time:
	user time   =    5454.46 seconds =      90.91 minutes
	system time =     116.36 seconds =       1.94 minutes
	total time  =       2513 seconds =      41.88 minutes

			-----------------------------------------
			 OPTKING 2.0: for geometry optimizations 
			  - R.A. King,  Bethel University        
			-----------------------------------------

	Internal coordinates to be generated automatically.
	Detected frag 1 with atoms:  1 2 3 4 5 6 7 8 9 10 11 12 13 14 15 16 17 18 19 20
	 21 22 23
	---Fragment 1 Bond Connectivity---
	 1 : 3 9 14
	 2 : 4 9 15
	 3 : 1 11 16
	 4 : 2 11 17
	 5 : 7 10 18
	 6 : 8 10 19
	 7 : 5 12 20
	 8 : 6 12 21
	 9 : 1 2 10
	 10 : 5 6 9
	 11 : 3 4 13
	 12 : 7 8 22
	 13 : 11 23
	 14 : 1
	 15 : 2
	 16 : 3
	 17 : 4
	 18 : 5
	 19 : 6
	 20 : 7
	 21 : 8
	 22 : 12
	 23 : 13

	Assuming in current code that numbering for constraints corresponds to unified fragment.
	Fixed dihedral atom list: 
	     1     9    10     5
	---Fragment 1 Geometry and Gradient---
	 C          -2.4029467946        1.3606321817       -1.0941338409
	 C          -0.5264487447        0.1965608839        2.9007472041
	 C          -4.4400715659        2.4434452559        0.1776518466
	 C          -2.5635735159        1.2793739580        4.1744226176
	 C           2.8032487015        0.3912026756       -3.0518901145
	 C           2.5708123871       -3.2484098564       -0.3269050309
	 C           4.8271453898       -0.7312946474       -4.2839915532
	 C           4.6003782539       -4.2783105988       -1.6270366103
	 C          -0.4451905209        0.2362451327        0.2664689748
	 C           1.6694130218       -0.8862521903       -1.0525598659
	 C          -4.5213297896        2.4037610071        2.8119300758
	 N           5.6567351621       -3.0065249114       -3.5451086352
	 O          -6.5093216814        3.4620076415        4.0534801451
	 H          -2.3670419981        1.4059856089       -3.1482661473
	 H           0.9853321616       -0.6727131372        3.9892294566
	 H          -5.9594113767        3.3164987293       -0.8938228708
	 H          -2.6164858476        1.2434691615        6.2266651979
	 H           2.1380651027        2.2355753813       -3.6584922032
	 H           1.7223253535       -4.2877592295        1.2264498503
	 H           5.8211413357        0.1209718386       -5.8505745173
	 H           5.4261885739       -6.0981168648       -1.1942893259
	 H           7.1458393549       -3.8002098872       -4.4767436187
	 H          -6.2957826284        3.2843733850        5.8657275066
	             0.0071172292       -0.0099270081       -0.0057255134
	             0.0099505425        0.0013118102       -0.0083791027
	             0.0001749729       -0.0001002433        0.0063612749
	            -0.0108255669        0.0052913373        0.0063557431
	            -0.0124602209        0.0083089056        0.0124491328
	            -0.0169935581        0.0067649227        0.0059067109
	             0.0060461279       -0.0108748684        0.0035213226
	             0.0047309834        0.0060882861       -0.0107554501
	            -0.0000854201       -0.0001578234       -0.0004562361
	             0.0109286213       -0.0053811279       -0.0069703917
	             0.0023736624       -0.0007759218       -0.0143260332
	            -0.0009330006        0.0005729209        0.0005163884
	            -0.0046658119        0.0024020752        0.0085308789
	             0.0004742957        0.0011978326       -0.0051381122
	             0.0028862613       -0.0030459077        0.0033378213
	            -0.0028401805        0.0024305561       -0.0049771890
	            -0.0000521351       -0.0007571994        0.0043895365
	            -0.0027321451        0.0050008764       -0.0025529800
	            -0.0018288385       -0.0026280397        0.0055230862
	             0.0015047844       -0.0004671551       -0.0018564633
	             0.0024820911       -0.0023299065       -0.0000329000
	             0.0052293954       -0.0028435822       -0.0032949798
	            -0.0004820898       -0.0000807394        0.0075734554

	Previous optimization step data not found.  Starting new optimization.

	---Fragment 1 Intrafragment Coordinates---
	 - Coordinate -           - BOHR/RAD -       - ANG/DEG -
	 R(1,3)           =         2.634350	       1.394038
	 R(1,9)           =         2.635962	       1.394891
	 R(1,14)          =         2.054947	       1.087431
	 R(2,4)           =         2.635263	       1.394521
	 R(2,9)           =         2.635830	       1.394821
	 R(2,15)          =         2.055702	       1.087831
	 R(3,11)          =         2.635830	       1.394821
	 R(3,16)          =         2.053941	       1.086899
	 R(4,11)          =         2.636938	       1.395407
	 R(4,17)          =         2.053239	       1.086527
	 R(5,7)           =         2.621876	       1.387437
	 R(5,10)          =         2.629600	       1.391524
	 R(5,18)          =         2.052351	       1.086058
	 R(6,8)           =         2.621102	       1.387027
	 R(6,10)          =         2.630377	       1.391936
	 R(6,19)          =         2.052581	       1.086179
	 R(7,12)          =         2.531964	       1.339857
	 R(7,20)          =         2.041707	       1.080425
	 R(8,12)          =         2.532258	       1.340013
	 R(8,21)          =         2.044732	       1.082025
	 R(9,10)          =         2.733384	       1.446444
	 R(11,13)         =         2.571662	       1.360865
	 R(12,22)         =         1.927514	       1.019997
	 R(13,23)         =         1.833410	       0.970199
	 B(1,3,11)        =         2.094553	     120.009056
	 B(1,3,16)        =         2.088505	     119.662516
	 B(1,9,2)         =         2.093692	     119.959722
	 B(1,9,10)        =         2.095161	     120.043881
	 B(2,4,11)        =         2.093699	     119.960108
	 B(2,4,17)        =         2.089577	     119.723926
	 B(2,9,10)        =         2.094332	     119.996376
	 B(3,1,9)         =         2.094940	     120.031219
	 B(3,1,14)        =         2.079469	     119.144799
	 B(3,11,4)        =         2.094306	     119.994870
	 B(3,11,13)       =         2.094549	     120.008801
	 B(4,2,9)         =         2.095181	     120.045019
	 B(4,2,15)        =         2.078675	     119.099297
	 B(4,11,13)       =         2.094331	     119.996326
	 B(5,7,12)        =         2.094972	     120.033075
	 B(5,7,20)        =         2.162373	     123.894851
	 B(5,10,6)        =         2.092379	     119.884472
	 B(5,10,9)        =         2.095519	     120.064407
	 B(6,8,12)        =         2.096001	     120.092007
	 B(6,8,21)        =         2.162108	     123.879661
	 B(6,10,9)        =         2.095286	     120.051022
	 B(7,5,10)        =         2.073908	     118.826190
	 B(7,5,18)        =         2.089823	     119.738043
	 B(7,12,8)        =         2.136097	     122.389357
	 B(7,12,22)       =         2.073836	     118.822026
	 B(8,6,10)        =         2.073012	     118.774835
	 B(8,6,19)        =         2.090362	     119.768925
	 B(8,12,22)       =         2.073252	     118.788610
	 B(9,1,14)        =         2.108776	     120.823969
	 B(9,2,15)        =         2.109330	     120.855683
	 B(10,5,18)       =         2.119454	     121.435758
	 B(10,6,19)       =         2.119810	     121.456181
	 B(11,3,16)       =         2.100127	     120.328425
	 B(11,4,17)       =         2.099910	     120.315955
	 B(11,13,23)      =         1.925489	     110.322421
	 B(12,7,20)       =         2.025840	     116.072073
	 B(12,8,21)       =         2.025076	     116.028331
	 D(1,3,11,4)      =        -0.000325	      -0.018609
	 D(1,3,11,13)     =         3.140978	     179.964785
	 D(1,9,2,4)       =         0.000325	       0.018608
	 D(1,9,2,15)      =        -3.141497	    -179.994534
	 D(1,9,10,5)      =         0.784459	      44.946173
	 D(1,9,10,6)      =        -2.355132	    -134.939106
	 D(2,4,11,3)      =         0.000301	       0.017261
	 D(2,4,11,13)     =        -3.141002	    -179.966135
	 D(2,9,1,3)       =        -0.000348	      -0.019945
	 D(2,9,1,14)      =        -3.141221	    -179.978731
	 D(2,9,10,5)      =        -2.356218	    -135.001324
	 D(2,9,10,6)      =         0.787377	      45.113397
	 D(3,1,9,10)      =        -3.141025	    -179.967461
	 D(3,11,4,17)     =         3.141223	     179.978848
	 D(3,11,13,23)    =         3.140828	     179.956172
	 D(4,2,9,10)      =         3.141002	     179.966149
	 D(4,11,3,16)     =         3.141593	     180.000000
	 D(4,11,13,23)    =        -0.001055	      -0.060434
	 D(5,7,12,8)      =        -0.000572	      -0.032775
	 D(5,7,12,22)     =         3.140445	     179.934231
	 D(5,10,6,8)      =         0.001525	       0.087383
	 D(5,10,6,19)     =         3.141593	     180.000000
	 D(6,8,12,7)      =         0.000878	       0.050279
	 D(6,8,12,22)     =        -3.140139	    -179.916738
	 D(6,10,5,7)      =        -0.001232	      -0.070596
	 D(6,10,5,18)     =         3.140963	     179.963951
	 D(7,5,10,9)      =        -3.140826	    -179.956067
	 D(7,12,8,21)     =        -3.140745	    -179.951452
	 D(8,6,10,9)      =         3.141119	     179.972870
	 D(8,12,7,20)     =         3.140878	     179.959058
	 D(9,1,3,11)      =         0.000348	       0.019955
	 D(9,1,3,16)      =        -3.141571	    -179.998735
	 D(9,2,4,11)      =        -0.000301	      -0.017270
	 D(9,2,4,17)      =        -3.141228	    -179.979086
	 D(9,10,5,18)     =         0.001370	       0.078480
	 D(9,10,6,19)     =        -0.002011	      -0.115248
	 D(10,5,7,12)     =         0.000741	       0.042458
	 D(10,5,7,20)     =        -3.140697	    -179.948705
	 D(10,6,8,12)     =        -0.001339	      -0.076718
	 D(10,6,8,21)     =         3.140286	     179.925155
	 D(10,9,1,14)     =         0.001287	       0.073752
	 D(10,9,2,15)     =        -0.000820	      -0.046992
	 D(11,3,1,14)     =         3.141234	     179.979432
	 D(11,4,2,15)     =         3.141517	     179.995641
	 D(12,7,5,18)     =        -3.141444	    -179.991489
	 D(12,8,6,19)     =        -3.141420	    -179.990122
	 D(13,11,3,16)    =        -0.000286	      -0.016400
	 D(13,11,4,17)    =        -0.000079	      -0.004548
	 D(14,1,3,16)     =        -0.000685	      -0.039257
	 D(15,2,4,17)     =         0.000590	       0.033826
	 D(18,5,7,20)     =         0.000303	       0.017349
	 D(19,6,8,21)     =         0.000205	       0.011751
	 D(20,7,12,22)    =        -0.001290	      -0.073936
	 D(21,8,12,22)    =         0.001423	       0.081532

	Current energy   :      -554.0972832084

	Generating empirical Hessian (Schlegel '84) for each fragment.
	Adding user-defined constraint: Fragment 1; Coordinate 66:
		Value =     0.784459; Fixed value    =     0.785398
		Force =     0.000470; Force constant =     0.500000
	Removing off-diagonal coupling between coordinate 66 and others.
	Taking RFO optimization step.
	Going to follow RFO solution 1.
	Using RFO vector 1.

	Determining step-restricting scale parameter for RS-RFO.
	Maximum step size allowed    0.10000

	 Iter      |step|        alpha        rfo_root  
	------------------------------------------------
	    0     0.22797       1.00000           1
	    1     0.16398       4.14267           1
	    2     0.12969      10.30897           1
	    3     0.11025      19.74673           1
	    4     0.10170      26.97790           1
	    5     0.10006      28.68481           1
	    6     0.10000      28.74604           1
	------------------------------------------------
	Norm of target step-size    0.10000
	Projected energy change by RFO approximation:        -0.0040800630

	Back-transformation to cartesian coordinates...
	Could not converge backtransformation.
	Using first guess instead.

	--- Internal Coordinate Step in ANG or DEG, aJ/ANG or AJ/DEG ---
	 ---------------------------------------------------------------------------
	   Coordinate                Previous        Force       Change         New 
	   ----------                --------       ------       ------       ------
	    1 R(1,3)          =      1.394038    -0.093805    -0.010380     1.383658
	    2 R(1,9)          =      1.394891     0.004591     0.000631     1.395522
	    3 R(1,14)         =      1.087431    -0.042601    -0.005835     1.081596
	    4 R(2,4)          =      1.394521    -0.093948    -0.010295     1.384226
	    5 R(2,9)          =      1.394821    -0.005534    -0.000458     1.394363
	    6 R(2,15)         =      1.087831    -0.042660    -0.005851     1.081980
	    7 R(3,11)         =      1.394821    -0.055744    -0.006266     1.388555
	    8 R(3,16)         =      1.086899    -0.047212    -0.006406     1.080493
	    9 R(4,11)         =      1.395407    -0.007140    -0.000851     1.394557
	   10 R(4,17)         =      1.086527    -0.036267    -0.004962     1.081565
	   11 R(5,7)          =      1.387437    -0.103157    -0.011097     1.376340
	   12 R(5,10)         =      1.391524     0.046928     0.005204     1.396728
	   13 R(5,18)         =      1.086058    -0.050538    -0.006904     1.079154
	   14 R(6,8)          =      1.387027    -0.100777    -0.010849     1.376178
	   15 R(6,10)         =      1.391936     0.044819     0.005033     1.396969
	   16 R(6,19)         =      1.086179    -0.051628    -0.007047     1.079132
	   17 R(7,12)         =      1.339857     0.023149     0.002161     1.342018
	   18 R(7,20)         =      1.080425    -0.016165    -0.002148     1.078277
	   19 R(8,12)         =      1.340013     0.022037     0.002095     1.342108
	   20 R(8,21)         =      1.082025    -0.025285    -0.003412     1.078613
	   21 R(9,10)         =      1.446444     0.042894     0.005477     1.451922
	   22 R(11,13)        =      1.360865    -0.104711    -0.009669     1.351195
	   23 R(12,22)        =      1.019997    -0.056052    -0.006418     1.013579
	   24 R(13,23)        =      0.970199    -0.061278    -0.005782     0.964417
	   25 B(1,3,11)       =    120.009056    -0.000066    -0.189564   119.819493
	   26 B(1,3,16)       =    119.662516     0.000217     0.596926   120.259442
	   27 B(1,9,2)        =    119.959722    -0.000255    -0.493708   119.466014
	   28 B(1,9,10)       =    120.043881     0.000123     0.238335   120.282217
	   29 B(2,4,11)       =    119.960108     0.000051     0.105471   120.065579
	   30 B(2,4,17)       =    119.723926     0.000004     0.028419   119.752345
	   31 B(2,9,10)       =    119.996376     0.000132     0.254855   120.251232
	   32 B(3,1,9)        =    120.031219     0.000207     0.457856   120.489075
	   33 B(3,1,14)       =    119.144799    -0.000089    -0.190900   118.953899
	   34 B(3,11,4)       =    119.994870     0.000050     0.062971   120.057842
	   35 B(3,11,13)      =    120.008801    -0.001034    -2.115048   117.893754
	   36 B(4,2,9)        =    120.045019     0.000013     0.055804   120.100823
	   37 B(4,2,15)       =    119.099297     0.000052     0.129806   119.229104
	   38 B(4,11,13)      =    119.996326     0.000984     2.052077   122.048403
	   39 B(5,7,12)       =    120.033075    -0.000261    -0.606481   119.426594
	   40 B(5,7,20)       =    123.894851     0.000024     0.014427   123.909278
	   41 B(5,10,6)       =    119.884472    -0.000611    -1.261490   118.622982
	   42 B(5,10,9)       =    120.064407     0.000290     0.601128   120.665535
	   43 B(6,8,12)       =    120.092007    -0.000277    -0.639420   119.452587
	   44 B(6,8,21)       =    123.879661     0.000031     0.029413   123.909074
	   45 B(6,10,9)       =    120.051022     0.000320     0.660153   120.711175
	   46 B(7,5,10)       =    118.826190     0.000436     0.957400   119.783589
	   47 B(7,5,18)       =    119.738043    -0.000219    -0.483286   119.254758
	   48 B(7,12,8)       =    122.389357     0.000264     0.566852   122.956209
	   49 B(7,12,22)      =    118.822026    -0.000134    -0.290787   118.531239
	   50 B(8,6,10)       =    118.774835     0.000448     0.983062   119.757897
	   51 B(8,6,19)       =    119.768925    -0.000225    -0.498618   119.270307
	   52 B(8,12,22)      =    118.788610    -0.000130    -0.276057   118.512552
	   53 B(9,1,14)       =    120.823969    -0.000118    -0.268421   120.555548
	   54 B(9,2,15)       =    120.855683    -0.000064    -0.187208   120.668475
	   55 B(10,5,18)      =    121.435758    -0.000217    -0.474477   120.961281
	   56 B(10,6,19)      =    121.456181    -0.000223    -0.484635   120.971546
	   57 B(11,3,16)      =    120.328425    -0.000151    -0.407360   119.921065
	   58 B(11,4,17)      =    120.315955    -0.000055    -0.133879   120.182076
	   59 B(11,13,23)     =    110.322421    -0.000210    -0.576591   109.745830
	   60 B(12,7,20)      =    116.072073     0.000237     0.591698   116.663771
	   61 B(12,8,21)      =    116.028331     0.000246     0.609781   116.638112
	   62 D(1,3,11,4)     =     -0.018609    -0.000007    -0.168699    -0.187308
	   63 D(1,3,11,13)    =    179.964785    -0.000006    -0.137086   179.827700
	   64 D(1,9,2,4)      =      0.018608    -0.000011    -0.312251    -0.293643
	   65 D(1,9,2,15)     =   -179.994534     0.000009     0.164380  -179.830154
	   66 D(1,9,10,5)     =     44.946173    -0.000022    -0.221145    44.725028
	   67 D(1,9,10,6)     =   -134.939106    -0.000029    -0.540663  -135.479769
	   68 D(2,4,11,3)     =      0.017261    -0.000006    -0.127584    -0.110323
	   69 D(2,4,11,13)    =   -179.966135    -0.000006    -0.159837  -180.125972
	   70 D(2,9,1,3)      =     -0.019945    -0.000002     0.015198    -0.004746
	   71 D(2,9,1,14)     =   -179.978731     0.000015     0.420923  -179.557808
	   72 D(2,9,10,5)     =   -135.001324    -0.000030    -0.541834  -135.543158
	   73 D(2,9,10,6)     =     45.113397    -0.000037    -0.861352    44.252045
	   74 D(3,1,9,10)     =   -179.967461    -0.000010    -0.303370  -180.270831
	   75 D(3,11,4,17)    =    179.978848    -0.000005    -0.096072   179.882777
	   76 D(3,11,13,23)   =    179.956172     0.000001     0.017813   179.973984
	   77 D(4,2,9,10)     =    179.966149    -0.000003     0.006208   179.972357
	   78 D(4,11,3,16)    =    180.000000    -0.000007    -0.192181   179.807819
	   79 D(4,11,13,23)   =     -0.060434     0.000002     0.049744    -0.010691
	   80 D(5,7,12,8)     =     -0.032775     0.000001     0.008570    -0.024205
	   81 D(5,7,12,22)    =    179.934231     0.000002     0.044043   179.978273
	   82 D(5,10,6,8)     =      0.087383    -0.000003    -0.137363    -0.049980
	   83 D(5,10,6,19)    =    180.000000     0.000008     0.133175   180.133175
	   84 D(6,8,12,7)     =      0.050279     0.000002     0.046370     0.096649
	   85 D(6,8,12,22)    =   -179.916738     0.000001     0.010909  -179.905829
	   86 D(6,10,5,7)     =     -0.070596     0.000005     0.191932     0.121336
	   87 D(6,10,5,18)    =    179.963951     0.000014     0.381095   180.345046
	   88 D(7,5,10,9)     =   -179.956067    -0.000002    -0.123186  -180.079252
	   89 D(7,12,8,21)    =   -179.951452    -0.000006    -0.118065  -180.069517
	   90 D(8,6,10,9)     =    179.972870     0.000005     0.177834   180.150703
	   91 D(8,12,7,20)    =    179.959058    -0.000007    -0.192177   179.766881
	   92 D(9,1,3,11)     =      0.019955     0.000010     0.224417     0.244372
	   93 D(9,1,3,16)     =   -179.998735     0.000011     0.247996  -179.750738
	   94 D(9,2,4,11)     =     -0.017270     0.000014     0.368476     0.351206
	   95 D(9,2,4,17)     =   -179.979086     0.000013     0.337162  -179.641924
	   96 D(9,10,5,18)    =      0.078480     0.000006     0.065977     0.144457
	   97 D(9,10,6,19)    =     -0.115248     0.000016     0.449107     0.333859
	   98 D(10,5,7,12)    =      0.042458    -0.000004    -0.128973    -0.086516
	   99 D(10,5,7,20)    =   -179.948705     0.000004     0.087146  -179.861558
	  100 D(10,6,8,12)    =     -0.076718    -0.000000     0.019933    -0.056785
	  101 D(10,6,8,21)    =    179.925155     0.000007     0.197026   180.122181
	  102 D(10,9,1,14)    =      0.073752     0.000007     0.102355     0.176108
	  103 D(10,9,2,15)    =     -0.046992     0.000017     0.482839     0.435847
	  104 D(11,3,1,14)    =    179.979432    -0.000007    -0.174913   179.804520
	  105 D(11,4,2,15)    =    179.995641    -0.000005    -0.101264   179.894377
	  106 D(12,7,5,18)    =   -179.991489    -0.000012    -0.314905  -180.306395
	  107 D(12,8,6,19)    =   -179.990122    -0.000011    -0.246690  -180.236812
	  108 D(13,11,3,16)   =     -0.016400    -0.000007    -0.160774    -0.177174
	  109 D(13,11,4,17)   =     -0.004548    -0.000005    -0.128324    -0.132872
	  110 D(14,1,3,16)    =     -0.039257    -0.000006    -0.151333    -0.190590
	  111 D(15,2,4,17)    =      0.033826    -0.000006    -0.132578    -0.098752
	  112 D(18,5,7,20)    =      0.017349    -0.000004    -0.098786    -0.081437
	  113 D(19,6,8,21)    =      0.011751    -0.000003    -0.069597    -0.057846
	  114 D(20,7,12,22)   =     -0.073936    -0.000006    -0.156704    -0.230641
	  115 D(21,8,12,22)   =      0.081532    -0.000007    -0.153527    -0.071995
	 ---------------------------------------------------------------------------
	Successfully symmetrized geometry.
	 Forces used to impose fixed constraints are not included.
	  Forces zeroed: 66 

  ==> Convergence Check <==

  Measures of convergence in internal coordinates in au.
  Criteria marked as inactive (o), active & met (*), and active & unmet ( ).
  --------------------------------------------------------------------------------------------- ~
   Step     Total Energy     Delta E     MAX Force     RMS Force      MAX Disp      RMS Disp    ~
  --------------------------------------------------------------------------------------------- ~
    Convergence Criteria    1.00e-06 *    3.00e-04 *             o    1.20e-03 *             o  ~
  --------------------------------------------------------------------------------------------- ~
      1    -554.09728321   -5.54e+02      1.36e-02      4.02e-03 o    3.69e-02      9.31e-03 o  ~
  ---------------------------------------------------------------------------------------------

	Writing optimization data to binary file.
	Structure for next step:
	Cartesian Geometry (in Angstrom)
	    C    -1.2757563469   0.7298439121  -0.5596801232
	    C    -0.2839983254   0.0999308111   1.5440604696
	    C    -2.3471353054   1.2958742381   0.1083524149
	    C    -1.3522360434   0.6712896435   2.2137611996
	    C     1.4904949886   0.1966078057  -1.6213908430
	    C     1.3769703921  -1.7213967323  -0.1791189195
	    C     2.5513399192  -0.3861791657  -2.2765853756
	    C     2.4407105793  -2.2682624396  -0.8597522922
	    C    -0.2364015250   0.1277996203   0.1507889456
	    C     0.8828148357  -0.4699715154  -0.5549735762
	    C    -2.3873239600   1.2698864666   1.4960824772
	    N     2.9903459530  -1.5905983555  -1.8795201371
	    O    -3.4498775421   1.8370929964   2.1084431329
	    H    -1.2603200602   0.7551345553  -1.6408697687
	    H     0.5125449483  -0.3593166403   2.1144032578
	    H    -3.1518237083   1.7574979739  -0.4455839428
	    H    -1.3805614205   0.6515816733   3.2947759198
	    H     1.1429396572   1.1673829789  -1.9397834246
	    H     0.9348231298  -2.2705332527   0.6378761553
	    H     3.0702029131   0.0689991627  -3.1050020736
	    H     2.8737721203  -3.2285564898  -0.6280200204
	    H     3.7722124913  -2.0073398315  -2.3718141992
	    H    -3.3581852653   1.7525900014   3.0647648134
			--------------------------
			 OPTKING Finished Execution 
			--------------------------

    Structure for next step:
    Molecular point group: c1
    Full point group: C1

    Geometry (in Angstrom), charge = 1, multiplicity = 1:

    C           -1.276846485581     0.730250765677    -0.559195523346
    C           -0.285088464100     0.100337664625     1.544545069527
    C           -2.348225444123     1.296281091655     0.108837014803
    C           -1.353326182115     0.671696497047     2.214245799495
    C            1.489404849877     0.197014659303    -1.620906243116
    C            1.375880253469    -1.720989878744    -0.178634319601
    C            2.550249780525    -0.385772312129    -2.276100775669
    C            2.439620440614    -2.267855585993    -0.859267692276
    C           -0.237491663676     0.128206473866     0.151273545533
    C            0.881724697019    -0.469564661850    -0.554488976276
    C           -2.388414098726     1.270293320143     1.496567077091
    N            2.989255814311    -1.590191501977    -1.879035537231
    O           -3.450967680796     1.837499849941     2.108927732805
    H           -1.261410198893     0.755541408899    -1.640385168803
    H            0.511454809653    -0.358909786740     2.114887857725
    H           -3.152913846981     1.757904827489    -0.445099342917
    H           -1.381651559190     0.651988526830     3.295260519662
    H            1.141849518537     1.167789832512    -1.939298824705
    H            0.933732991156    -2.270126399108     0.638360755204
    H            3.069112774373     0.069406016257    -3.104517473676
    H            2.872681981587    -3.228149636208    -0.627535420479
    H            3.771122352597    -2.006932977927    -2.371329599322
    H           -3.359275403964     1.752996854984     3.065249413281

gradient() will perform analytic gradient computation.

*** tstart() called on gpu-2-11.local
*** at Sun Nov 12 08:59:18 2017

    SCF Algorithm Type (re)set to DF.

*** tstart() called on gpu-2-11.local
*** at Sun Nov 12 08:59:18 2017

   => Loading Basis Set <=

    Name: AUG-CC-PVTZ
    Role: ORBITAL
    Keyword: BASIS
    atoms 1-11  entry C          line   221 file /cbio/jclab/home/chayas/anaconda/envs/py35/share/psi4/basis/aug-cc-pvtz.gbs 
    atoms 12    entry N          line   267 file /cbio/jclab/home/chayas/anaconda/envs/py35/share/psi4/basis/aug-cc-pvtz.gbs 
    atoms 13    entry O          line   313 file /cbio/jclab/home/chayas/anaconda/envs/py35/share/psi4/basis/aug-cc-pvtz.gbs 
    atoms 14-23 entry H          line    34 file /cbio/jclab/home/chayas/anaconda/envs/py35/share/psi4/basis/aug-cc-pvtz.gbs 


         ---------------------------------------------------------
                                   SCF
            by Justin Turney, Rob Parrish, and Andy Simmonett
                              RHF Reference
                        8 Threads,   4768 MiB Core
         ---------------------------------------------------------

  ==> Geometry <==

    Molecular point group: c1
    Full point group: C1

    Geometry (in Angstrom), charge = 1, multiplicity = 1:

       Center              X                  Y                   Z               Mass       
    ------------   -----------------  -----------------  -----------------  -----------------
           C         -1.276846485581     0.730250765677    -0.559195523346    12.000000000000
           C         -0.285088464100     0.100337664625     1.544545069527    12.000000000000
           C         -2.348225444123     1.296281091655     0.108837014803    12.000000000000
           C         -1.353326182115     0.671696497047     2.214245799495    12.000000000000
           C          1.489404849877     0.197014659303    -1.620906243116    12.000000000000
           C          1.375880253469    -1.720989878744    -0.178634319601    12.000000000000
           C          2.550249780525    -0.385772312129    -2.276100775669    12.000000000000
           C          2.439620440614    -2.267855585993    -0.859267692276    12.000000000000
           C         -0.237491663676     0.128206473866     0.151273545533    12.000000000000
           C          0.881724697019    -0.469564661850    -0.554488976276    12.000000000000
           C         -2.388414098726     1.270293320143     1.496567077091    12.000000000000
           N          2.989255814311    -1.590191501977    -1.879035537231    14.003074004780
           O         -3.450967680796     1.837499849941     2.108927732805    15.994914619560
           H         -1.261410198893     0.755541408899    -1.640385168803     1.007825032070
           H          0.511454809653    -0.358909786740     2.114887857725     1.007825032070
           H         -3.152913846981     1.757904827489    -0.445099342917     1.007825032070
           H         -1.381651559190     0.651988526830     3.295260519662     1.007825032070
           H          1.141849518537     1.167789832512    -1.939298824705     1.007825032070
           H          0.933732991156    -2.270126399108     0.638360755204     1.007825032070
           H          3.069112774373     0.069406016257    -3.104517473676     1.007825032070
           H          2.872681981587    -3.228149636208    -0.627535420479     1.007825032070
           H          3.771122352597    -2.006932977927    -2.371329599322     1.007825032070
           H         -3.359275403964     1.752996854984     3.065249413281     1.007825032070

  Running in c1 symmetry.

  Rotational constants: A =      0.09635  B =      0.01321  C =      0.01203 [cm^-1]
  Rotational constants: A =   2888.63257  B =    395.90043  C =    360.68755 [MHz]
  Nuclear repulsion =  713.509173206616310

  Charge       = 1
  Multiplicity = 1
  Electrons    = 90
  Nalpha       = 45
  Nbeta        = 45

  ==> Algorithm <==

  SCF Algorithm Type is DF.
  DIIS enabled.
  MOM disabled.
  Fractional occupation disabled.
  Guess Type is READ.
  Energy threshold   = 1.00e-10
  Density threshold  = 1.00e-10
  Integral threshold = 0.00e+00

  ==> Primary Basis <==

  Basis Set: AUG-CC-PVTZ
    Blend: AUG-CC-PVTZ
    Number of shells: 272
    Number of basis function: 828
    Number of Cartesian functions: 965
    Spherical Harmonics?: true
    Max angular momentum: 3

   => Loading Basis Set <=

    Name: (AUG-CC-PVTZ AUX)
    Role: JKFIT
    Keyword: DF_BASIS_SCF
    atoms 1-11  entry C          line   161 file /cbio/jclab/home/chayas/anaconda/envs/py35/share/psi4/basis/aug-cc-pvtz-jkfit.gbs 
    atoms 12    entry N          line   223 file /cbio/jclab/home/chayas/anaconda/envs/py35/share/psi4/basis/aug-cc-pvtz-jkfit.gbs 
    atoms 13    entry O          line   285 file /cbio/jclab/home/chayas/anaconda/envs/py35/share/psi4/basis/aug-cc-pvtz-jkfit.gbs 
    atoms 14-23 entry H          line    69 file /cbio/jclab/home/chayas/anaconda/envs/py35/share/psi4/basis/aug-cc-pvtz-jkfit.gbs 

  Reading orbitals from file 180, no projection.

  ==> Pre-Iterations <==

   -------------------------------------------------------
    Irrep   Nso     Nmo     Nalpha   Nbeta   Ndocc  Nsocc
   -------------------------------------------------------
     A        828     828       0       0       0       0
   -------------------------------------------------------
    Total     828     828      45      45      45       0
   -------------------------------------------------------

  ==> Integral Setup <==

  ==> DFJK: Density-Fitted J/K Matrices <==

    J tasked:                  Yes
    K tasked:                  Yes
    wK tasked:                  No
    OpenMP threads:              8
    Integrals threads:           8
    Memory (MB):              3576
    Algorithm:                Disk
    Integral Cache:           NONE
    Schwarz Cutoff:          1E-12
    Fitting Condition:       1E-12

   => Auxiliary Basis Set <=

  Basis Set: (AUG-CC-PVTZ AUX)
    Blend: AUG-CC-PVTZ-JKFIT
    Number of shells: 530
    Number of basis function: 1812
    Number of Cartesian functions: 2253
    Spherical Harmonics?: true
    Max angular momentum: 4

  Minimum eigenvalue in the overlap matrix is 5.3560914836E-07.
  Using Symmetric Orthogonalization.

  SCF Guess: Orbitals guess was supplied from a previous computation.

  ==> Iterations <==

                           Total Energy        Delta E     RMS |[F,P]|

   @DF-RHF iter   0:  -551.76924128966550   -5.51769e+02   4.00910e-04 
   @DF-RHF iter   1:  -551.68001370322008    8.92276e-02   8.10841e-05 
   @DF-RHF iter   2:  -551.68029779267818   -2.84089e-04   5.47424e-05 DIIS
   @DF-RHF iter   3:  -551.68046977021129   -1.71978e-04   1.11809e-05 DIIS
   @DF-RHF iter   4:  -551.68047696292069   -7.19271e-06   4.38398e-06 DIIS
   @DF-RHF iter   5:  -551.68047880245001   -1.83953e-06   1.29809e-06 DIIS
   @DF-RHF iter   6:  -551.68047913515181   -3.32702e-07   5.84771e-07 DIIS
   @DF-RHF iter   7:  -551.68047925576275   -1.20611e-07   2.73304e-07 DIIS
   @DF-RHF iter   8:  -551.68047929386637   -3.81036e-08   1.27647e-07 DIIS
   @DF-RHF iter   9:  -551.68047929811576   -4.24939e-09   3.62301e-08 DIIS
   @DF-RHF iter  10:  -551.68047929836791   -2.52157e-10   1.72320e-08 DIIS
   @DF-RHF iter  11:  -551.68047929841180   -4.38831e-11   4.39368e-09 DIIS
   @DF-RHF iter  12:  -551.68047929842589   -1.40972e-11   1.57666e-09 DIIS
   @DF-RHF iter  13:  -551.68047929841862    7.27596e-12   9.25919e-10 DIIS
   @DF-RHF iter  14:  -551.68047929841919   -5.68434e-13   3.24019e-10 DIIS
   @DF-RHF iter  15:  -551.68047929841464    4.54747e-12   1.58597e-10 DIIS
   @DF-RHF iter  16:  -551.68047929841111    3.52429e-12   7.03994e-11 DIIS

  ==> Post-Iterations <==

    Orbital Energies (a.u.)
    -----------------------

    Doubly Occupied:                                                      

       1A    -20.701826     2A    -15.833957     3A    -11.483617  
       4A    -11.483500     5A    -11.448837     6A    -11.428703  
       7A    -11.413482     8A    -11.413249     9A    -11.375844  
      10A    -11.373294    11A    -11.370073    12A    -11.353537  
      13A    -11.347306    14A     -1.522501    15A     -1.511760  
      16A     -1.318738    17A     -1.265486    18A     -1.240937  
      19A     -1.154952    20A     -1.151499    21A     -1.066421  
      22A     -1.056638    23A     -0.976476    24A     -0.964364  
      25A     -0.949951    26A     -0.871764    27A     -0.860518  
      28A     -0.853878    29A     -0.820780    30A     -0.801702  
      31A     -0.786500    32A     -0.773994    33A     -0.754691  
      34A     -0.731085    35A     -0.719904    36A     -0.708335  
      37A     -0.705215    38A     -0.686514    39A     -0.654612  
      40A     -0.629096    41A     -0.617463    42A     -0.571336  
      43A     -0.540580    44A     -0.470039    45A     -0.436421  

    Virtual:                                                              

      46A     -0.104632    47A     -0.084788    48A     -0.062820  
      49A     -0.061537    50A     -0.058498    51A     -0.050935  
      52A     -0.042934    53A     -0.039260    54A     -0.036738  
      55A     -0.029733    56A     -0.023957    57A     -0.023639  
      58A     -0.015506    59A     -0.009567    60A     -0.005160  
      61A     -0.001733    62A      0.001141    63A      0.007548  
      64A      0.009310    65A      0.013213    66A      0.014963  
      67A      0.021030    68A      0.021291    69A      0.024845  
      70A      0.029833    71A      0.032396    72A      0.036795  
      73A      0.038195    74A      0.041842    75A      0.042785  
      76A      0.049156    77A      0.051972    78A      0.055359  
      79A      0.057871    80A      0.064703    81A      0.066074  
      82A      0.071600    83A      0.074715    84A      0.079569  
      85A      0.083546    86A      0.085287    87A      0.091270  
      88A      0.095270    89A      0.096933    90A      0.107762  
      91A      0.110719    92A      0.117185    93A      0.118224  
      94A      0.120970    95A      0.125894    96A      0.130426  
      97A      0.132938    98A      0.136749    99A      0.137645  
     100A      0.143873   101A      0.153705   102A      0.159214  
     103A      0.160743   104A      0.164424   105A      0.166060  
     106A      0.168563   107A      0.171951   108A      0.174732  
     109A      0.175615   110A      0.179989   111A      0.182453  
     112A      0.191715   113A      0.193711   114A      0.196537  
     115A      0.201316   116A      0.203047   117A      0.208983  
     118A      0.213894   119A      0.216395   120A      0.219187  
     121A      0.224618   122A      0.227935   123A      0.228760  
     124A      0.231416   125A      0.237641   126A      0.241334  
     127A      0.243145   128A      0.249338   129A      0.252845  
     130A      0.255422   131A      0.260286   132A      0.268288  
     133A      0.277868   134A      0.279965   135A      0.282257  
     136A      0.284768   137A      0.289338   138A      0.291976  
     139A      0.300241   140A      0.309744   141A      0.311087  
     142A      0.314352   143A      0.317154   144A      0.320305  
     145A      0.321504   146A      0.324479   147A      0.326982  
     148A      0.331139   149A      0.335711   150A      0.340635  
     151A      0.343262   152A      0.346632   153A      0.349101  
     154A      0.353213   155A      0.355098   156A      0.358008  
     157A      0.363118   158A      0.367662   159A      0.368107  
     160A      0.371681   161A      0.375622   162A      0.377233  
     163A      0.382259   164A      0.386288   165A      0.391019  
     166A      0.395257   167A      0.399697   168A      0.400245  
     169A      0.402912   170A      0.406444   171A      0.411019  
     172A      0.413423   173A      0.417427   174A      0.420005  
     175A      0.424659   176A      0.426151   177A      0.429819  
     178A      0.439213   179A      0.441710   180A      0.443842  
     181A      0.446091   182A      0.454135   183A      0.459835  
     184A      0.465521   185A      0.467682   186A      0.475444  
     187A      0.477931   188A      0.480576   189A      0.489647  
     190A      0.493882   191A      0.496561   192A      0.506244  
     193A      0.522076   194A      0.526052   195A      0.529616  
     196A      0.540700   197A      0.543435   198A      0.545605  
     199A      0.555513   200A      0.568093   201A      0.573426  
     202A      0.575279   203A      0.576631   204A      0.580893  
     205A      0.581964   206A      0.587367   207A      0.595224  
     208A      0.598039   209A      0.605161   210A      0.613616  
     211A      0.619143   212A      0.620410   213A      0.625586  
     214A      0.630528   215A      0.632156   216A      0.637471  
     217A      0.638741   218A      0.644851   219A      0.658846  
     220A      0.662434   221A      0.667853   222A      0.681898  
     223A      0.688200   224A      0.696468   225A      0.697401  
     226A      0.703090   227A      0.705799   228A      0.708669  
     229A      0.714064   230A      0.720066   231A      0.723428  
     232A      0.727274   233A      0.736396   234A      0.737057  
     235A      0.740612   236A      0.747374   237A      0.755285  
     238A      0.758733   239A      0.766746   240A      0.771090  
     241A      0.773881   242A      0.779588   243A      0.783554  
     244A      0.788603   245A      0.791711   246A      0.792872  
     247A      0.795779   248A      0.799427   249A      0.807974  
     250A      0.809083   251A      0.812394   252A      0.815983  
[...]
	 B(5,10,9)        =         2.114058	     121.126617
	 B(6,8,12)        =         2.083134	     119.354771
	 B(6,8,21)        =         2.159872	     123.751532
	 B(6,10,9)        =         2.120262	     121.482089
	 B(7,5,10)        =         2.105979	     120.663710
	 B(7,5,18)        =         2.075349	     118.908760
	 B(7,12,8)        =         2.141969	     122.725796
	 B(7,12,22)       =         2.070647	     118.639328
	 B(8,6,10)        =         2.105204	     120.619326
	 B(8,6,19)        =         2.074744	     118.874080
	 B(8,12,22)       =         2.070559	     118.634311
	 B(9,1,14)        =         2.096104	     120.097890
	 B(9,2,15)        =         2.098533	     120.237089
	 B(10,5,18)       =         2.101729	     120.420179
	 B(10,6,19)       =         2.102818	     120.482572
	 B(11,3,16)       =         2.073729	     118.815921
	 B(11,4,17)       =         2.095183	     120.045135
	 B(11,13,23)      =         1.929099	     110.529259
	 B(12,7,20)       =         2.040420	     116.907475
	 B(12,8,21)       =         2.040135	     116.891151
	 D(1,3,11,4)      =        -0.015476	      -0.886716
	 D(1,3,11,13)     =         3.129189	     179.289323
	 D(1,9,2,4)       =        -0.042952	      -2.460969
	 D(1,9,2,15)      =        -3.131209	    -179.405087
	 D(1,9,10,5)      =         0.775617	      44.439571
	 D(1,9,10,6)      =        -2.422321	    -138.788777
	 D(2,4,11,3)      =        -0.006718	      -0.384886
	 D(2,4,11,13)     =         3.131590	     179.426870
	 D(2,9,1,3)       =         0.020643	       1.182767
	 D(2,9,1,14)      =        -3.087388	    -176.894301
	 D(2,9,10,5)      =        -2.442155	    -139.925186
	 D(2,9,10,6)      =         0.643092	      36.846466
	 D(3,1,9,10)      =         3.087231	     176.885334
	 D(3,11,4,17)     =         3.134016	     179.565876
	 D(3,11,13,23)    =         3.137237	     179.750427
	 D(4,2,9,10)      =        -3.109203	    -178.144237
	 D(4,11,3,16)     =         3.115877	     178.526592
	 D(4,11,13,23)    =        -0.001168	      -0.066925
	 D(5,7,12,8)      =        -0.002017	      -0.115548
	 D(5,7,12,22)     =        -3.138766	    -179.838019
	 D(5,10,6,8)      =        -0.023180	      -1.328104
	 D(5,10,6,19)     =        -3.133307	    -179.525256
	 D(6,8,12,7)      =         0.005438	       0.311603
	 D(6,8,12,22)     =        -3.140998	    -179.965913
	 D(6,10,5,7)      =         0.026609	       1.524593
	 D(6,10,5,18)     =        -3.097581	    -177.478326
	 D(7,5,10,9)      =         3.114122	     178.426023
	 D(7,12,8,21)     =         3.137282	     179.753014
	 D(8,6,10,9)      =        -3.110488	    -178.217810
	 D(8,12,7,20)     =         3.120751	     178.805881
	 D(9,1,3,11)      =         0.008313	       0.476274
	 D(9,1,3,16)      =        -3.122786	    -178.922472
	 D(9,2,4,11)      =         0.036156	       2.071580
	 D(9,2,4,17)      =        -3.104578	    -177.879221
	 D(9,10,5,18)     =        -0.010069	      -0.576895
	 D(9,10,6,19)     =         0.062571	       3.585038
	 D(10,5,7,12)     =        -0.014584	      -0.835599
	 D(10,5,7,20)     =        -3.135980	    -179.678435
	 D(10,6,8,12)     =         0.007740	       0.443460
	 D(10,6,8,21)     =        -3.123395	    -178.957363
	 D(10,9,1,14)     =        -0.020800	      -1.191733
	 D(10,9,2,15)     =         0.085724	       4.911645
	 D(11,3,1,14)     =         3.116615	     178.568886
	 D(11,4,2,15)     =         3.124938	     179.045774
	 D(12,7,5,18)     =         3.109866	     178.182191
	 D(12,8,6,19)     =         3.118366	     178.669237
	 D(13,11,3,16)    =        -0.022643	      -1.297369
	 D(13,11,4,17)    =        -0.010862	      -0.622369
	 D(14,1,3,16)     =        -0.014484	      -0.829860
	 D(15,2,4,17)     =        -0.015796	      -0.905027
	 D(18,5,7,20)     =        -0.011530	      -0.660645
	 D(19,6,8,21)     =        -0.012769	      -0.731586
	 D(20,7,12,22)    =        -0.015998	      -0.916590
	 D(21,8,12,22)    =        -0.009154	      -0.524502

	Current energy   :      -554.1007856013

	Energy change for the previous step:
		Projected    :        -0.0000014383
		Actual       :         0.0000004689

	Performing BFGS update.
	Previous computed or guess Hessian on step 1.
	Steps to be used in Hessian update: 6 5
	Adding user-defined constraint: Fragment 1; Coordinate 66:
		Value =     0.775617; Fixed value    =     0.785400
		Force =     0.006359; Force constant =     0.650000
	Removing off-diagonal coupling between coordinate 66 and others.
	Taking RFO optimization step.
	Going to follow RFO solution 1.
	Rejecting RFO root 1 because normalization gives large value.
	Using RFO vector 2.
	Norm of target step-size    0.00169
	Projected energy change by RFO approximation:        -0.0000003345

	Back-transformation to cartesian coordinates...
	Successfully converged to displaced geometry.

	--- Internal Coordinate Step in ANG or DEG, aJ/ANG or AJ/DEG ---
	 ---------------------------------------------------------------------------
	   Coordinate                Previous        Force       Change         New 
	   ----------                --------       ------       ------       ------
	    1 R(1,3)          =      1.378229     0.000029     0.000009     1.378237
	    2 R(1,9)          =      1.398422     0.000090     0.000021     1.398443
	    3 R(1,14)         =      1.080387     0.000059     0.000010     1.080397
	    4 R(2,4)          =      1.380904    -0.000038    -0.000007     1.380898
	    5 R(2,9)          =      1.396164    -0.000069    -0.000015     1.396148
	    6 R(2,15)         =      1.080265     0.000074     0.000015     1.080281
	    7 R(3,11)         =      1.393022    -0.000111    -0.000028     1.392994
	    8 R(3,16)         =      1.078539     0.000036     0.000006     1.078546
	    9 R(4,11)         =      1.393197    -0.000003     0.000005     1.393202
	   10 R(4,17)         =      1.080340     0.000029     0.000004     1.080344
	   11 R(5,7)          =      1.372499    -0.000021    -0.000002     1.372497
	   12 R(5,10)         =      1.400072     0.000005     0.000004     1.400075
	   13 R(5,18)         =      1.078112     0.000043     0.000005     1.078117
	   14 R(6,8)          =      1.372664     0.000038     0.000010     1.372673
	   15 R(6,10)         =      1.399787    -0.000083    -0.000018     1.399769
	   16 R(6,19)         =      1.077917     0.000064     0.000009     1.077926
	   17 R(7,12)         =      1.343525     0.000039     0.000006     1.343530
	   18 R(7,20)         =      1.077254     0.000005     0.000001     1.077255
	   19 R(8,12)         =      1.343289    -0.000129    -0.000022     1.343267
	   20 R(8,21)         =      1.077258     0.000014     0.000003     1.077261
	   21 R(9,10)         =      1.445301    -0.000069    -0.000012     1.445289
	   22 R(11,13)        =      1.344553    -0.000009     0.000005     1.344558
	   23 R(12,22)        =      1.011885     0.000028     0.000004     1.011888
	   24 R(13,23)        =      0.963633     0.000019    -0.000000     0.963633
	   25 B(1,3,11)       =    119.935890     0.000000    -0.000440   119.935450
	   26 B(1,3,16)       =    121.245521    -0.000001    -0.004575   121.240946
	   27 B(1,9,2)        =    119.065396    -0.000001    -0.004419   119.060977
	   28 B(1,9,10)       =    120.178121    -0.000001    -0.004659   120.173462
	   29 B(2,4,11)       =    119.988305     0.000000     0.001904   119.990209
	   30 B(2,4,17)       =    119.966542    -0.000000    -0.002029   119.964514
	   31 B(2,9,10)       =    120.614947     0.000001     0.008639   120.623586
	   32 B(3,1,9)        =    120.591975     0.000001     0.003119   120.595094
	   33 B(3,1,14)       =    119.282581    -0.000001    -0.004455   119.278126
	   34 B(3,11,4)       =    119.927168    -0.000000    -0.002048   119.925120
	   35 B(3,11,13)      =    116.719899     0.000001     0.005310   116.725209
	   36 B(4,2,9)        =    120.447144     0.000000     0.001360   120.448504
	   37 B(4,2,15)       =    119.246196    -0.000001    -0.004238   119.241957
	   38 B(4,11,13)      =    123.352682    -0.000001    -0.003249   123.349433
	   39 B(5,7,12)       =    119.303180     0.000000     0.000945   119.304125
	   40 B(5,7,20)       =    123.779847    -0.000000    -0.001110   123.778737
	   41 B(5,10,6)       =    117.316559    -0.000000    -0.000380   117.316178
	   42 B(5,10,9)       =    121.126617     0.000001     0.001411   121.128028
	   43 B(6,8,12)       =    119.354771     0.000000     0.001692   119.356464
	   44 B(6,8,21)       =    123.751532    -0.000000    -0.003013   123.748519
	   45 B(6,10,9)       =    121.482089    -0.000001    -0.001004   121.481085
	   46 B(7,5,10)       =    120.663710    -0.000000    -0.000261   120.663448
	   47 B(7,5,18)       =    118.908760    -0.000000    -0.002733   118.906028
	   48 B(7,12,8)       =    122.725796    -0.000000    -0.001895   122.723901
	   49 B(7,12,22)      =    118.639328     0.000000     0.001006   118.640334
	   50 B(8,6,10)       =    120.619326     0.000000    -0.000178   120.619148
	   51 B(8,6,19)       =    118.874080    -0.000001    -0.003672   118.870408
	   52 B(8,12,22)      =    118.634311     0.000000     0.000890   118.635201
	   53 B(9,1,14)       =    120.097890     0.000000     0.000602   120.098492
	   54 B(9,2,15)       =    120.237089     0.000000     0.001985   120.239074
	   55 B(10,5,18)      =    120.420179     0.000000     0.002869   120.423048
	   56 B(10,6,19)      =    120.482572     0.000001     0.004335   120.486906
	   57 B(11,3,16)      =    118.815921     0.000001     0.005179   118.821099
	   58 B(11,4,17)      =    120.045135    -0.000000     0.000136   120.045270
	   59 B(11,13,23)     =    110.529259    -0.000000    -0.002039   110.527219
	   60 B(12,7,20)      =    116.907475    -0.000000    -0.000332   116.907143
	   61 B(12,8,21)      =    116.891151     0.000000     0.001296   116.892447
	   62 D(1,3,11,4)     =     -0.886716    -0.000000    -0.011993    -0.898709
	   63 D(1,3,11,13)    =    179.289323    -0.000000    -0.016769   179.272554
	   64 D(1,9,2,4)      =     -2.460969    -0.000001    -0.004864    -2.465833
	   65 D(1,9,2,15)     =   -179.405087    -0.000001     0.014807  -179.390280
	   66 D(1,9,10,5)     =     44.439571     0.000006     0.013120    44.452690
	   67 D(1,9,10,6)     =   -138.788777     0.000004     0.013695  -138.775083
	   68 D(2,4,11,3)     =     -0.384886     0.000000    -0.013784    -0.398670
	   69 D(2,4,11,13)    =    179.426870    -0.000000    -0.008661   179.418208
	   70 D(2,9,1,3)      =      1.182767     0.000001    -0.021105     1.161661
	   71 D(2,9,1,14)     =   -176.894301     0.000001     0.004421  -176.889880
	   72 D(2,9,10,5)     =   -139.925186     0.000004     0.006168  -139.919018
	   73 D(2,9,10,6)     =     36.846466     0.000001     0.006743    36.853209
	   74 D(3,1,9,10)     =    176.885334    -0.000001    -0.027379   176.857955
	   75 D(3,11,4,17)    =    179.565876     0.000000     0.004668   179.570543
	   76 D(3,11,13,23)   =    179.750427    -0.000000     0.009456   179.759882
	   77 D(4,2,9,10)     =   -178.144237     0.000001     0.002030  -178.142207
	   78 D(4,11,3,16)    =    178.526592    -0.000000     0.006169   178.532761
	   79 D(4,11,13,23)   =     -0.066925     0.000000     0.004497    -0.062428
	   80 D(5,7,12,8)     =     -0.115548    -0.000000     0.016329    -0.099219
	   81 D(5,7,12,22)    =   -179.838019     0.000000     0.015784  -179.822235
	   82 D(5,10,6,8)     =     -1.328104    -0.000001     0.007168    -1.320936
	   83 D(5,10,6,19)    =   -179.525256    -0.000001    -0.011049  -179.536304
	   84 D(6,8,12,7)     =      0.311603     0.000000     0.000225     0.311827
	   85 D(6,8,12,22)    =   -179.965913    -0.000000     0.000770  -179.965143
	   86 D(6,10,5,7)     =      1.524593     0.000001     0.009372     1.533965
	   87 D(6,10,5,18)    =   -177.478326     0.000001     0.017820  -177.460506
	   88 D(7,5,10,9)     =    178.426023    -0.000001     0.009901   178.435925
	   89 D(7,12,8,21)    =    179.753014     0.000000    -0.002480   179.750534
	   90 D(8,6,10,9)     =   -178.217810     0.000001     0.006557  -178.211254
	   91 D(8,12,7,20)    =    178.805881    -0.000000    -0.011538   178.794343
	   92 D(9,1,3,11)     =      0.476274    -0.000000     0.029491     0.505765
	   93 D(9,1,3,16)     =   -178.922472    -0.000000     0.010822  -178.911650
	   94 D(9,2,4,11)     =      2.071580     0.000001     0.022259     2.093839
	   95 D(9,2,4,17)     =   -177.879221     0.000000     0.003821  -177.875399
	   96 D(9,10,5,18)    =     -0.576895    -0.000001     0.018349    -0.558546
	   97 D(9,10,6,19)    =      3.585038     0.000001    -0.011660     3.573378
	   98 D(10,5,7,12)    =     -0.835599    -0.000001    -0.020982    -0.856581
	   99 D(10,5,7,20)    =   -179.678435    -0.000000     0.008904  -179.669531
	  100 D(10,6,8,12)    =      0.443460     0.000000    -0.012117     0.431343
	  101 D(10,6,8,21)    =   -178.957363     0.000000    -0.009244  -178.966607
	  102 D(10,9,1,14)    =     -1.191733    -0.000001    -0.001853    -1.193587
	  103 D(10,9,2,15)    =      4.911645     0.000002     0.021701     4.933346
	  104 D(11,3,1,14)    =    178.568886    -0.000000     0.004268   178.573154
	  105 D(11,4,2,15)    =    179.045774     0.000000     0.002970   179.048744
	  106 D(12,7,5,18)    =    178.182191    -0.000000    -0.029249   178.152942
	  107 D(12,8,6,19)    =    178.669237     0.000000     0.005950   178.675188
	  108 D(13,11,3,16)   =     -1.297369    -0.000000     0.001393    -1.295976
	  109 D(13,11,4,17)   =     -0.622369     0.000000     0.009790    -0.612578
	  110 D(14,1,3,16)    =     -0.829860    -0.000000    -0.014401    -0.844261
	  111 D(15,2,4,17)    =     -0.905027     0.000000    -0.015468    -0.920495
	  112 D(18,5,7,20)    =     -0.660645    -0.000000     0.000638    -0.660007
	  113 D(19,6,8,21)    =     -0.731586     0.000000     0.008823    -0.722763
	  114 D(20,7,12,22)   =     -0.916590    -0.000000    -0.012083    -0.928673
	  115 D(21,8,12,22)   =     -0.524502     0.000000    -0.001935    -0.526437
	 ---------------------------------------------------------------------------
	Successfully symmetrized geometry.
	 Forces used to impose fixed constraints are not included.
	  Forces zeroed: 66 

  ==> Convergence Check <==

  Measures of convergence in internal coordinates in au.
  Criteria marked as inactive (o), active & met (*), and active & unmet ( ).
  ---------------------------------------------------------------------------------------------
   Step     Total Energy     Delta E     MAX Force     RMS Force      MAX Disp      RMS Disp   
  ---------------------------------------------------------------------------------------------
    Convergence Criteria    1.00e-06 *    3.00e-04 *             o    1.20e-03 *             o
  ---------------------------------------------------------------------------------------------
      7    -554.10078560    4.69e-07 *    2.18e-04 *    4.02e-05 o    5.15e-04 *    1.58e-04 o  ~
  ---------------------------------------------------------------------------------------------


  **** Optimization is complete! (in 7 steps) ****

  ==> Optimization Summary <==

  Measures of convergence in internal coordinates in au.
  --------------------------------------------------------------------------------------------------------------- ~
   Step         Total Energy             Delta E       MAX Force       RMS Force        MAX Disp        RMS Disp  ~
  --------------------------------------------------------------------------------------------------------------- ~
      1    -554.097283208440   -554.097283208440      0.01359148      0.00402521      0.03691454      0.00931294  ~
      2    -554.099924754817     -0.002641546377      0.00460366      0.00123382      0.04551573      0.00932791  ~
      3    -554.100566368428     -0.000641613611      0.00161169      0.00037706      0.05566260      0.00932860  ~
      4    -554.100761364197     -0.000194995769      0.00056953      0.00013663      0.02774684      0.00490653  ~
      5    -554.100798441165     -0.000037076968      0.00052984      0.00008876      0.00217652      0.00060612  ~
      6    -554.100786070293      0.000012370872      0.00028349      0.00004643      0.00207140      0.00052343  ~
      7    -554.100785601345      0.000000468948      0.00035517      0.00005211      0.00051472      0.00015787  ~
  --------------------------------------------------------------------------------------------------------------- ~

	Writing optimization data to binary file.
	Final energy is   -554.1007856013450
	Final (previous) structure:
	Cartesian Geometry (in Angstrom)
	    C    -1.2593599705   0.7829651314  -0.5507923925
	    C    -0.3013135228   0.0728735803   1.5420003124
	    C    -2.3339397899   1.3250629779   0.1207152734
	    C    -1.3636037175   0.6381457830   2.2194248258
	    C     1.4776634755   0.1725872067  -1.6523777374
	    C     1.3969300878  -1.6949826002  -0.1610683621
	    C     2.5322657630  -0.4148774671  -2.3054112747
	    C     2.4553393616  -2.2547366667  -0.8323736181
	    C    -0.2221653023   0.1604462305   0.1508353247
	    C     0.8669672106  -0.4640385428  -0.5651983059
	    C    -2.3874673357   1.2637177232   1.5113564520
	    N     2.9880688213  -1.6051722248  -1.8805581066
	    O    -3.4574623786   1.8256683149   2.1005456182
	    H    -1.2397866840   0.8157317248  -1.6305054320
	    H     0.4937258969  -0.3955019541   2.1037030700
	    H    -3.1478562456   1.7923297101  -0.4107439327
	    H    -1.3996864632   0.5956266085   3.2983245163
	    H     1.1361371393   1.1412795099  -1.9799754909
	    H     0.9614961184  -2.2329498110   0.6653049356
	    H     3.0418283053   0.0315709899  -3.1429706163
	    H     2.8917601175  -3.2055036623  -0.5753437151
	    H     3.7676253368  -2.0279969114  -2.3678170071
	    H    -3.4056265300   1.7291331080   3.0579291421
	Saving final (previous) structure.
			--------------------------
			 OPTKING Finished Execution 
			--------------------------

    Final optimized geometry and variables:
    Molecular point group: c1
    Full point group: C1

    Geometry (in Angstrom), charge = 1, multiplicity = 1:

    C           -1.259359970502     0.782965131404    -0.550792392489
    C           -0.301313522836     0.072873580342     1.542000312443
    C           -2.333939789877     1.325062977924     0.120715273413
    C           -1.363603717499     0.638145782989     2.219424825805
    C            1.477663475509     0.172587206662    -1.652377737413
    C            1.396930087809    -1.694982600193    -0.161068362135
    C            2.532265762975    -0.414877467075    -2.305411274676
    C            2.455339361578    -2.254736666658    -0.832373618134
    C           -0.222165302317     0.160446230471     0.150835324698
    C            0.866967210613    -0.464038542798    -0.565198305937
    C           -2.387467335714     1.263717723157     1.511356451955
    N            2.988068821307    -1.605172224843    -1.880558106635
    O           -3.457462378642     1.825668314896     2.100545618247
    H           -1.239786683975     0.815731724833    -1.630505431970
    H            0.493725896875    -0.395501954065     2.103703069988
    H           -3.147856245572     1.792329710132    -0.410743932714
    H           -1.399686463162     0.595626608503     3.298324516348
    H            1.136137139273     1.141279509885    -1.979975490889
    H            0.961496118369    -2.232949810989     0.665304935605
    H            3.041828305279     0.031570989890    -3.142970616308
    H            2.891760117465    -3.205503662290    -0.575343715056
    H            3.767625336792    -2.027996911378    -2.367817007117
    H           -3.405626529982     1.729133107983     3.057929142094

	Cleaning optimization helper files.

*** Psi4 exiting successfully. Buy a developer a beer!
