
    -----------------------------------------------------------------------
          Psi4: An Open-Source Ab Initio Electronic Structure Package
                               Psi4 1.1 release

                         Git: Rev {HEAD} add49b9 


    R. M. Parrish, L. A. Burns, D. G. A. Smith, A. C. Simmonett,
    A. E. DePrince III, E. G. Hohenstein, U. Bozkaya, A. Yu. Sokolov,
    R. Di Remigio, R. M. Richard, J. F. Gonthier, A. M. James,
    H. R. McAlexander, A. Kumar, M. Saitow, X. Wang, B. P. Pritchard,
    P. Verma, H. F. Schaefer III, K. Patkowski, R. A. King, E. F. Valeev,
    F. A. Evangelista, J. M. Turney, T. D. Crawford, and C. D. Sherrill,
    J. Chem. Theory Comput. in press (2017).
    (doi: 10.1021/acs.jctc.7b00174)

    -----------------------------------------------------------------------


    Psi4 started on: Tuesday, 14 November 2017 02:40AM

    Process ID:  18435
    PSIDATADIR: /cbio/jclab/home/chayas/anaconda/envs/py35/share/psi4
    Memory:     500.0 MiB
    Threads:    8
    
  ==> Input File <==

--------------------------------------------------------------------------

memory 5 Gb

molecule phepyrF {
  symmetry C1
  0 1 
  C      1.885   -1.036   -0.112
  C      0.807   -0.463   0.561
  C      2.921   -1.631   0.608
  C      0.764   -0.484   1.955
  C      3.920   -2.295   4.135
  C      5.029   -2.842   2.072
  C      4.975   -2.900   4.799
  C      6.034   -3.422   2.829
  C      2.878   -1.652   2.002
  C      3.955   -2.270   2.745
  C      1.800   -1.079   2.676
  N      6.035   -3.466   4.180
  F      1.744   -1.089   4.016
  H      1.918   -1.020   -1.198
  H      0.000   -0.000   -0.000
  H      3.755   -2.073   0.068
  H      -0.076   -0.038   2.480
  H      3.099   -1.860   4.695
  H      5.091   -2.841   0.988
  H      4.994   -2.947   5.883
  H      6.894   -3.881   2.351
  units Angstrom
}

dih_string = "3 9 10 5 180.001"
set optking { opt_coordinates = cartesian
              fixed_dihedral = $dih_string
              dynamic_level = 1
              geom_maxiter = 250
              print_trajectory_xyz_file = True }

optimize('MP2/aug-cc-PVTZ')
--------------------------------------------------------------------------

  Memory set to   4.657 GiB by Python driver.
gradient() will perform analytic gradient computation.

*** tstart() called on gpu-2-8.local
*** at Tue Nov 14 02:40:50 2017

    SCF Algorithm Type (re)set to DF.

*** tstart() called on gpu-2-8.local
*** at Tue Nov 14 02:40:50 2017

   => Loading Basis Set <=

    Name: AUG-CC-PVTZ
    Role: ORBITAL
    Keyword: BASIS
    atoms 1-11  entry C          line   221 file /cbio/jclab/home/chayas/anaconda/envs/py35/share/psi4/basis/aug-cc-pvtz.gbs 
    atoms 12    entry N          line   267 file /cbio/jclab/home/chayas/anaconda/envs/py35/share/psi4/basis/aug-cc-pvtz.gbs 
    atoms 13    entry F          line   359 file /cbio/jclab/home/chayas/anaconda/envs/py35/share/psi4/basis/aug-cc-pvtz.gbs 
    atoms 14-21 entry H          line    34 file /cbio/jclab/home/chayas/anaconda/envs/py35/share/psi4/basis/aug-cc-pvtz.gbs 


         ---------------------------------------------------------
                                   SCF
            by Justin Turney, Rob Parrish, and Andy Simmonett
                              RHF Reference
                        8 Threads,   4768 MiB Core
         ---------------------------------------------------------

  ==> Geometry <==

    Molecular point group: c1
    Full point group: C1

    Geometry (in Angstrom), charge = 0, multiplicity = 1:

       Center              X                  Y                   Z               Mass       
    ------------   -----------------  -----------------  -----------------  -----------------
           C         -1.368902731996     0.841262082937    -2.662829194982    12.000000000000
           C         -2.446902731996     1.414262082937    -1.989829194982    12.000000000000
           C         -0.332902731996     0.246262082937    -1.942829194982    12.000000000000
           C         -2.489902731996     1.393262082937    -0.595829194982    12.000000000000
           C          0.666097268004    -0.417737917063     1.584170805018    12.000000000000
           C          1.775097268004    -0.964737917063    -0.478829194982    12.000000000000
           C          1.721097268004    -1.022737917063     2.248170805018    12.000000000000
           C          2.780097268004    -1.544737917063     0.278170805018    12.000000000000
           C         -0.375902731996     0.225262082937    -0.548829194982    12.000000000000
           C          0.701097268004    -0.392737917063     0.194170805018    12.000000000000
           C         -1.453902731996     0.798262082937     0.125170805018    12.000000000000
           N          2.781097268004    -1.588737917063     1.629170805018    14.003074004780
           F         -1.509902731996     0.788262082937     1.465170805018    18.998403224000
           H         -1.335902731996     0.857262082937    -3.748829194982     1.007825032070
           H         -3.253902731996     1.877262082937    -2.550829194982     1.007825032070
           H          0.501097268004    -0.195737917063    -2.482829194982     1.007825032070
           H         -3.329902731996     1.839262082937    -0.070829194982     1.007825032070
           H         -0.154902731996     0.017262082937     2.144170805018     1.007825032070
           H          1.837097268004    -0.963737917063    -1.562829194982     1.007825032070
           H          1.740097268004    -1.069737917063     3.332170805018     1.007825032070
           H          3.640097268004    -2.003737917063    -0.199829194982     1.007825032070

  Running in c1 symmetry.

  Rotational constants: A =      0.06387  B =      0.01890  C =      0.01458 [cm^-1]
  Rotational constants: A =   1914.65773  B =    566.55817  C =    437.19094 [MHz]
  Nuclear repulsion =  719.430336263309414

  Charge       = 0
  Multiplicity = 1
  Electrons    = 90
  Nalpha       = 45
  Nbeta        = 45

  ==> Algorithm <==

  SCF Algorithm Type is DF.
  DIIS enabled.
  MOM disabled.
  Fractional occupation disabled.
  Guess Type is SAD.
  Energy threshold   = 1.00e-10
  Density threshold  = 1.00e-10
  Integral threshold = 0.00e+00

  ==> Primary Basis <==

  Basis Set: AUG-CC-PVTZ
    Blend: AUG-CC-PVTZ
    Number of shells: 254
    Number of basis function: 782
    Number of Cartesian functions: 915
    Spherical Harmonics?: true
    Max angular momentum: 3

   => Loading Basis Set <=

    Name: (AUG-CC-PVTZ AUX)
    Role: JKFIT
    Keyword: DF_BASIS_SCF
    atoms 1-11  entry C          line   161 file /cbio/jclab/home/chayas/anaconda/envs/py35/share/psi4/basis/aug-cc-pvtz-jkfit.gbs 
    atoms 12    entry N          line   223 file /cbio/jclab/home/chayas/anaconda/envs/py35/share/psi4/basis/aug-cc-pvtz-jkfit.gbs 
    atoms 13    entry F          line   347 file /cbio/jclab/home/chayas/anaconda/envs/py35/share/psi4/basis/aug-cc-pvtz-jkfit.gbs 
    atoms 14-21 entry H          line    69 file /cbio/jclab/home/chayas/anaconda/envs/py35/share/psi4/basis/aug-cc-pvtz-jkfit.gbs 

  ==> Pre-Iterations <==

   -------------------------------------------------------
    Irrep   Nso     Nmo     Nalpha   Nbeta   Ndocc  Nsocc
   -------------------------------------------------------
     A        782     782       0       0       0       0
   -------------------------------------------------------
    Total     782     782      45      45      45       0
   -------------------------------------------------------

  ==> Integral Setup <==

  ==> DFJK: Density-Fitted J/K Matrices <==

    J tasked:                  Yes
    K tasked:                  Yes
    wK tasked:                  No
    OpenMP threads:              8
    Integrals threads:           8
    Memory (MB):              3576
    Algorithm:                Disk
    Integral Cache:           NONE
    Schwarz Cutoff:          1E-12
    Fitting Condition:       1E-12

   => Auxiliary Basis Set <=

  Basis Set: (AUG-CC-PVTZ AUX)
    Blend: AUG-CC-PVTZ-JKFIT
    Number of shells: 502
    Number of basis function: 1720
    Number of Cartesian functions: 2143
    Spherical Harmonics?: true
    Max angular momentum: 4

  Minimum eigenvalue in the overlap matrix is 3.5960740769E-07.
  Using Symmetric Orthogonalization.

  SCF Guess: Superposition of Atomic Densities via on-the-fly atomic UHF.

  ==> Iterations <==

                           Total Energy        Delta E     RMS |[F,P]|

   @DF-RHF iter   0:  -583.56634970068569   -5.83566e+02   2.12303e-02 
   @DF-RHF iter   1:  -574.92570431503975    8.64065e+00   1.84635e-03 
   @DF-RHF iter   2:  -575.19525093108450   -2.69547e-01   9.19529e-04 DIIS
   @DF-RHF iter   3:  -575.24574238131925   -5.04915e-02   4.18501e-04 DIIS
   @DF-RHF iter   4:  -575.26278032583832   -1.70379e-02   1.21622e-04 DIIS
   @DF-RHF iter   5:  -575.26494270246144   -2.16238e-03   4.30804e-05 DIIS
   @DF-RHF iter   6:  -575.26527932880595   -3.36626e-04   1.65561e-05 DIIS
   @DF-RHF iter   7:  -575.26532861340547   -4.92846e-05   5.79491e-06 DIIS
   @DF-RHF iter   8:  -575.26533703751704   -8.42411e-06   3.61859e-06 DIIS
   @DF-RHF iter   9:  -575.26534002943777   -2.99192e-06   1.25957e-06 DIIS
   @DF-RHF iter  10:  -575.26534110481612   -1.07538e-06   8.49415e-07 DIIS
   @DF-RHF iter  11:  -575.26534127671687   -1.71901e-07   2.66148e-07 DIIS
   @DF-RHF iter  12:  -575.26534129307231   -1.63554e-08   1.11066e-07 DIIS
   @DF-RHF iter  13:  -575.26534129496883   -1.89652e-09   3.78607e-08 DIIS
   @DF-RHF iter  14:  -575.26534129546246   -4.93628e-10   1.89768e-08 DIIS
   @DF-RHF iter  15:  -575.26534129557695   -1.14483e-10   7.50119e-09 DIIS
   @DF-RHF iter  16:  -575.26534129559764   -2.06910e-11   2.87389e-09 DIIS
   @DF-RHF iter  17:  -575.26534129558968    7.95808e-12   1.48489e-09 DIIS
   @DF-RHF iter  18:  -575.26534129560298   -1.33014e-11   4.92192e-10 DIIS
   @DF-RHF iter  19:  -575.26534129560923   -6.25278e-12   2.21514e-10 DIIS
   @DF-RHF iter  20:  -575.26534129559525    1.39835e-11   8.97659e-11 DIIS

  ==> Post-Iterations <==

    Orbital Energies (a.u.)
    -----------------------

    Doubly Occupied:                                                      

       1A    -26.332194     2A    -15.561654     3A    -11.345888  
       4A    -11.272602     5A    -11.269416     6A    -11.264853  
       7A    -11.263581     8A    -11.260933     9A    -11.260051  
      10A    -11.258795    11A    -11.253156    12A    -11.238214  
      13A    -11.225811    14A     -1.657792    15A     -1.247455  
      16A     -1.186150    17A     -1.114141    18A     -1.040245  
      19A     -1.031091    20A     -1.026544    21A     -0.894790  
      22A     -0.878838    23A     -0.846543    24A     -0.824777  
      25A     -0.762464    26A     -0.738710    27A     -0.720561  
      28A     -0.719598    29A     -0.673437    30A     -0.662139  
      31A     -0.650041    32A     -0.626176    33A     -0.608057  
      34A     -0.590197    35A     -0.581533    36A     -0.552281  
      37A     -0.542202    38A     -0.523958    39A     -0.517301  
      40A     -0.497492    41A     -0.417272    42A     -0.415029  
      43A     -0.355999    44A     -0.345713    45A     -0.321940  

    Virtual:                                                              

      46A      0.022637    47A      0.028521    48A      0.033746  
      49A      0.040444    50A      0.043535    51A      0.052708  
      52A      0.058149    53A      0.060320    54A      0.075305  
      55A      0.079853    56A      0.085130    57A      0.085568  
      58A      0.090727    59A      0.091589    60A      0.098825  
      61A      0.102664    62A      0.107435    63A      0.109554  
      64A      0.113650    65A      0.113896    66A      0.116665  
      67A      0.117784    68A      0.129464    69A      0.131481  
      70A      0.133545    71A      0.136333    72A      0.139165  
      73A      0.142975    74A      0.147220    75A      0.147375  
      76A      0.152428    77A      0.153434    78A      0.155626  
      79A      0.166266    80A      0.168997    81A      0.173831  
      82A      0.183500    83A      0.183788    84A      0.188374  
      85A      0.192895    86A      0.196858    87A      0.206078  
      88A      0.209187    89A      0.211721    90A      0.221004  
      91A      0.231697    92A      0.235359    93A      0.237202  
      94A      0.241083    95A      0.246322    96A      0.248970  
      97A      0.251207    98A      0.261798    99A      0.264628  
     100A      0.270696   101A      0.271929   102A      0.278183  
     103A      0.278820   104A      0.283909   105A      0.287509  
     106A      0.288740   107A      0.292105   108A      0.301403  
     109A      0.304867   110A      0.310014   111A      0.311946  
     112A      0.313273   113A      0.317403   114A      0.324428  
     115A      0.324853   116A      0.334697   117A      0.336531  
     118A      0.346263   119A      0.349674   120A      0.356224  
     121A      0.359044   122A      0.368552   123A      0.369494  
     124A      0.371906   125A      0.383110   126A      0.393791  
     127A      0.404306   128A      0.407755   129A      0.409424  
     130A      0.412153   131A      0.413899   132A      0.421829  
     133A      0.427558   134A      0.428948   135A      0.428990  
     136A      0.433030   137A      0.435009   138A      0.437421  
     139A      0.439126   140A      0.442616   141A      0.447667  
     142A      0.451892   143A      0.460673   144A      0.462165  
     145A      0.462319   146A      0.469675   147A      0.470618  
     148A      0.472623   149A      0.478486   150A      0.484007  
     151A      0.490288   152A      0.492502   153A      0.494704  
     154A      0.499303   155A      0.501225   156A      0.502964  
     157A      0.509116   158A      0.510712   159A      0.514097  
     160A      0.523780   161A      0.526105   162A      0.533115  
     163A      0.533217   164A      0.537255   165A      0.541420  
     166A      0.544705   167A      0.547583   168A      0.555391  
     169A      0.557928   170A      0.563206   171A      0.569055  
     172A      0.575787   173A      0.580782   174A      0.584325  
     175A      0.591346   176A      0.592957   177A      0.595107  
     178A      0.604611   179A      0.611575   180A      0.616365  
     181A      0.622806   182A      0.627178   183A      0.646946  
     184A      0.648672   185A      0.652046   186A      0.659388  
     187A      0.670541   188A      0.684100   189A      0.685188  
     190A      0.686490   191A      0.693739   192A      0.696606  
     193A      0.701205   194A      0.710178   195A      0.715093  
     196A      0.718762   197A      0.726568   198A      0.729356  
     199A      0.730289   200A      0.736848   201A      0.747202  
     202A      0.757133   203A      0.759736   204A      0.762757  
     205A      0.771851   206A      0.774815   207A      0.781860  
     208A      0.782968   209A      0.797481   210A      0.805629  
     211A      0.809412   212A      0.815256   213A      0.818624  
     214A      0.823385   215A      0.832127   216A      0.840335  
     217A      0.851663   218A      0.855823   219A      0.858322  
     220A      0.865915   221A      0.867664   222A      0.873062  
     223A      0.883132   224A      0.885364   225A      0.892605  
     226A      0.892748   227A      0.896557   228A      0.901486  
     229A      0.901759   230A      0.912036   231A      0.917908  
     232A      0.918432   233A      0.927950   234A      0.932510  
     235A      0.934484   236A      0.934673   237A      0.938345  
     238A      0.947894   239A      0.949527   240A      0.954042  
     241A      0.962535   242A      0.964842   243A      0.965000  
     244A      0.968446   245A      0.972727   246A      0.980472  
     247A      0.991804   248A      0.999508   249A      1.001227  
     250A      1.005233   251A      1.006518   252A      1.012045  
     253A      1.013842   254A      1.020443   255A      1.021068  
     256A      1.030050   257A      1.034608   258A      1.036684  
     259A      1.039117   260A      1.040049   261A      1.053818  
     262A      1.055144   263A      1.065921   264A      1.068409  
     265A      1.072826   266A      1.072909   267A      1.079027  
     268A      1.083907   269A      1.088507   270A      1.096666  
     271A      1.102798   272A      1.103179   273A      1.114420  
     274A      1.120080   275A      1.121401   276A      1.126391  
     277A      1.128479   278A      1.135322   279A      1.149167  
     280A      1.151170   281A      1.167545   282A      1.170704  
     283A      1.180519   284A      1.180920   285A      1.183680  
     286A      1.194103   287A      1.196811   288A      1.199148  
     289A      1.211177   290A      1.215779   291A      1.216641  
     292A      1.218321   293A      1.223217   294A      1.229067  
     295A      1.235650   296A      1.241115   297A      1.242495  
     298A      1.251016   299A      1.251326   300A      1.255231  
     301A      1.259812   302A      1.265335   303A      1.267344  
     304A      1.285138   305A      1.290812   306A      1.302312  
     307A      1.308088   308A      1.311590   309A      1.320113  
     310A      1.328018   311A      1.334056   312A      1.336330  
     313A      1.347404   314A      1.353879   315A      1.356048  
     316A      1.359788   317A      1.364626   318A      1.375946  
     319A      1.379725   320A      1.390411   321A      1.401259  
     322A      1.404945   323A      1.416066   324A      1.418788  
     325A      1.430700   326A      1.440536   327A      1.454252  
     328A      1.455743   329A      1.471018   330A      1.475886  
     331A      1.492998   332A      1.505455   333A      1.509849  
     334A      1.518649   335A      1.520318   336A      1.522537  
     337A      1.533192   338A      1.538974   339A      1.548498  
     340A      1.552919   341A      1.559369   342A      1.577184  
     343A      1.593506   344A      1.605657   345A      1.613477  
     346A      1.616556   347A      1.617829   348A      1.630311  
     349A      1.643600   350A      1.646526   351A      1.658354  
     352A      1.665458   353A      1.669440   354A      1.677381  
     355A      1.682871   356A      1.687569   357A      1.688811  
     358A      1.702839   359A      1.720405   360A      1.728114  
     361A      1.730226   362A      1.735300   363A      1.742695  
     364A      1.743896   365A      1.746603   366A      1.769629  
     367A      1.772171   368A      1.776345   369A      1.784835  
     370A      1.794667   371A      1.805106   372A      1.812433  
     373A      1.826741   374A      1.827195   375A      1.846632  
     376A      1.846899   377A      1.851533   378A      1.859530  
     379A      1.871835   380A      1.877704   381A      1.896882  
     382A      1.904789   383A      1.907291   384A      1.927589  
     385A      1.928489   386A      1.937346   387A      1.943122  
     388A      1.956234   389A      1.958802   390A      1.968913  
     391A      1.974405   392A      1.981353   393A      1.991957  
     394A      1.993336   395A      2.010776   396A      2.019274  
     397A      2.022582   398A      2.028367   399A      2.036555  
     400A      2.044225   401A      2.049937   402A      2.061348  
     403A      2.068254   404A      2.070525   405A      2.078730  
     406A      2.081148   407A      2.094132   408A      2.094536  
     409A      2.097003   410A      2.113443   411A      2.118279  
     412A      2.126495   413A      2.146660   414A      2.154803  
     415A      2.163518   416A      2.166612   417A      2.177263  
     418A      2.184984   419A      2.186731   420A      2.196241  
     421A      2.202690   422A      2.209449   423A      2.220251  
     424A      2.230752   425A      2.235346   426A      2.239106  
     427A      2.250903   428A      2.255381   429A      2.273097  
     430A      2.280900   431A      2.289447   432A      2.295859  
     433A      2.302913   434A      2.314818   435A      2.315371  
     436A      2.326017   437A      2.342057   438A      2.354103  
     439A      2.369771   440A      2.373721   441A      2.386631  
     442A      2.395902   443A      2.399018   444A      2.415595  
     445A      2.427207   446A      2.442996   447A      2.458407  
     448A      2.465612   449A      2.471741   450A      2.474188  
     451A      2.496613   452A      2.501789   453A      2.503689  
     454A      2.526351   455A      2.548293   456A      2.561391  
     457A      2.566567   458A      2.593685   459A      2.595927  
     460A      2.618370   461A      2.639990   462A      2.649309  
     463A      2.660550   464A      2.687837   465A      2.699255  
     466A      2.713235   467A      2.738388   468A      2.755254  
     469A      2.768862   470A      2.791956   471A      2.808926  
     472A      2.814716   473A      2.829405   474A      2.858062  
     475A      2.858599   476A      2.872229   477A      2.917841  
     478A      2.943498   479A      3.009133   480A      3.030108  
     481A      3.041675   482A      3.066458   483A      3.069722  
     484A      3.078897   485A      3.096517   486A      3.112351  
     487A      3.122419   488A      3.134420   489A      3.151193  
     490A      3.153938   491A      3.179405   492A      3.194674  
     493A      3.199850   494A      3.222277   495A      3.227880  
     496A      3.251521   497A      3.271601   498A      3.288409  
     499A      3.293126   500A      3.309291   501A      3.324485  
     502A      3.326781   503A      3.338068   504A      3.347317  
     505A      3.355341   506A      3.366047   507A      3.375761  
     508A      3.382538   509A      3.393799   510A      3.397578  
     511A      3.427833   512A      3.431177   513A      3.442211  
     514A      3.444796   515A      3.453307   516A      3.468103  
     517A      3.470113   518A      3.481689   519A      3.493606  
     520A      3.507617   521A      3.507773   522A      3.515885  
     523A      3.517823   524A      3.535736   525A      3.538573  
     526A      3.551865   527A      3.554771   528A      3.563857  
     529A      3.572456   530A      3.580705   531A      3.581144  
     532A      3.599621   533A      3.609943   534A      3.633306  
     535A      3.633683   536A      3.640358   537A      3.642617  
     538A      3.663860   539A      3.675261   540A      3.678424  
     541A      3.693333   542A      3.698117   543A      3.710378  
     544A      3.713103   545A      3.722584   546A      3.728008  
     547A      3.732748   548A      3.750584   549A      3.751076  
     550A      3.765435   551A      3.771010   552A      3.791398  
     553A      3.794658   554A      3.803709   555A      3.819539  
     556A      3.825889   557A      3.829612   558A      3.839860  
     559A      3.839950   560A      3.859946   561A      3.866544  
     562A      3.874843   563A      3.889540   564A      3.896372  
     565A      3.901470   566A      3.912094   567A      3.927389  
     568A      3.928284   569A      3.940596   570A      3.942446  
     571A      3.943433   572A      3.951585   573A      3.965602  
     574A      3.971772   575A      3.984332   576A      3.984653  
     577A      3.989748   578A      4.003027   579A      4.005016  
     580A      4.022344   581A      4.027065   582A      4.029398  
     583A      4.037900   584A      4.060359   585A      4.065190  
     586A      4.073864   587A      4.091877   588A      4.107557  
     589A      4.129265   590A      4.133281   591A      4.135542  
     592A      4.149520   593A      4.149940   594A      4.154474  
     595A      4.180389   596A      4.194754   597A      4.198301  
     598A      4.203054   599A      4.210613   600A      4.221128  
     601A      4.227132   602A      4.237900   603A      4.242119  
     604A      4.252976   605A      4.275453   606A      4.278148  
     607A      4.284501   608A      4.298324   609A      4.303815  
     610A      4.305326   611A      4.311054   612A      4.331307  
     613A      4.335049   614A      4.341351   615A      4.350421  
     616A      4.357947   617A      4.364948   618A      4.366281  
     619A      4.385127   620A      4.388634   621A      4.399622  
     622A      4.415977   623A      4.427592   624A      4.440484  
     625A      4.444933   626A      4.457170   627A      4.465890  
     628A      4.468942   629A      4.495858   630A      4.509333  
     631A      4.516624   632A      4.532956   633A      4.553039  
     634A      4.557000   635A      4.571029   636A      4.576380  
     637A      4.581071   638A      4.597305   639A      4.608394  
     640A      4.616484   641A      4.631015   642A      4.635536  
     643A      4.649376   644A      4.673335   645A      4.688615  
     646A      4.691076   647A      4.710282   648A      4.719640  
     649A      4.732003   650A      4.739414   651A      4.755256  
     652A      4.772864   653A      4.781450   654A      4.782517  
     655A      4.808234   656A      4.829366   657A      4.840358  
     658A      4.876242   659A      4.881561   660A      4.888176  
     661A      4.888379   662A      4.932428   663A      4.947980  
     664A      4.953130   665A      4.976194   666A      4.980866  
     667A      4.988550   668A      5.004202   669A      5.025940  
     670A      5.039952   671A      5.047186   672A      5.048096  
     673A      5.072749   674A      5.082274   675A      5.097792  
     676A      5.102921   677A      5.118557   678A      5.120047  
     679A      5.132732   680A      5.133332   681A      5.152713  
     682A      5.162664   683A      5.163073   684A      5.167485  
     685A      5.180518   686A      5.195924   687A      5.204156  
     688A      5.223066   689A      5.231974   690A      5.247681  
     691A      5.278718   692A      5.314465   693A      5.327719  
     694A      5.344304   695A      5.348544   696A      5.354784  
     697A      5.384597   698A      5.390780   699A      5.441085  
     700A      5.450964   701A      5.452680   702A      5.488308  
     703A      5.510096   704A      5.539906   705A      5.550015  
     706A      5.553290   707A      5.587987   708A      5.605350  
     709A      5.622105   710A      5.628820   711A      5.676743  
     712A      5.684884   713A      5.736285   714A      5.753868  
     715A      5.764007   716A      5.793253   717A      5.799069  
     718A      5.812529   719A      5.847684   720A      5.860447  
     721A      5.879890   722A      5.902454   723A      5.905225  
     724A      5.919984   725A      6.002378   726A      6.008471  
     727A      6.084198   728A      6.105776   729A      6.183138  
     730A      6.209065   731A      6.231867   732A      6.236197  
     733A      6.267999   734A      6.343951   735A      6.352503  
     736A      6.421794   737A      6.445051   738A      6.464248  
     739A      6.486164   740A      6.536860   741A      6.605805  
     742A      6.653252   743A      6.680080   744A      6.703745  
     745A      6.751419   746A      6.757315   747A      6.797637  
     748A      6.842926   749A      6.904576   750A      6.975134  
     751A      7.022343   752A      7.033435   753A      7.095805  
     754A      7.113525   755A      7.295982   756A      7.480549  
     757A      7.535962   758A      9.084847   759A      9.234229  
     760A      9.282552   761A      9.404129   762A      9.420561  
     763A      9.522136   764A      9.626675   765A      9.651958  
     766A      9.704943   767A      9.735052   768A     10.123084  
     769A     10.166876   770A     15.603310   771A     16.288500  
     772A     16.824249   773A     16.936622   774A     17.637814  
     775A     18.600052   776A     18.933261   777A     19.539884  
     778A     20.161780   779A     20.787153   780A     20.851490  
     781A     21.123033   782A     21.337661  

    Final Occupation by Irrep:
              A 
    DOCC [    45 ]

  Energy converged.

  @DF-RHF Final Energy:  -575.26534129559525

   => Energetics <=

    Nuclear Repulsion Energy =            719.4303362633094139
    One-Electron Energy =               -2210.6361278434560518
    Two-Electron Energy =                 915.9404502845512752
    DFT Exchange-Correlation Energy =       0.0000000000000000
    Empirical Dispersion Energy =           0.0000000000000000
    PCM Polarization Energy =               0.0000000000000000
    EFP Energy =                            0.0000000000000000
    Total Energy =                       -575.2653412955952490



Properties will be evaluated at   0.000000,   0.000000,   0.000000 Bohr

Properties computed using the SCF density matrix

  Nuclear Dipole Moment: (a.u.)
     X:     1.0823      Y:    -0.4033      Z:    -6.2052

  Electronic Dipole Moment: (a.u.)
     X:    -2.0229      Y:     0.9589      Z:     5.0533

  Dipole Moment: (a.u.)
     X:    -0.9405      Y:     0.5556      Z:    -1.1518     Total:     1.5874

  Dipole Moment: (Debye)
     X:    -2.3906      Y:     1.4121      Z:    -2.9277     Total:     4.0349


*** tstop() called on gpu-2-8.local at Tue Nov 14 02:47:13 2017
Module time:
	user time   =     988.63 seconds =      16.48 minutes
	system time =      45.43 seconds =       0.76 minutes
	total time  =        383 seconds =       6.38 minutes
Total time:
	user time   =     988.64 seconds =      16.48 minutes
	system time =      45.43 seconds =       0.76 minutes
	total time  =        383 seconds =       6.38 minutes

  //>>>>>>>>>>>>>>>>>>>>>>>>>>>>>>>>>>>//
  //               DFMP2               //
  //<<<<<<<<<<<<<<<<<<<<<<<<<<<<<<<<<<<//

   => Loading Basis Set <=

    Name: (AUG-CC-PVTZ AUX)
    Role: RIFIT
    Keyword: DF_BASIS_MP2
    atoms 1-11  entry C          line   147 file /cbio/jclab/home/chayas/anaconda/envs/py35/share/psi4/basis/aug-cc-pvtz-ri.gbs 
    atoms 12    entry N          line   205 file /cbio/jclab/home/chayas/anaconda/envs/py35/share/psi4/basis/aug-cc-pvtz-ri.gbs 
    atoms 13    entry F          line   321 file /cbio/jclab/home/chayas/anaconda/envs/py35/share/psi4/basis/aug-cc-pvtz-ri.gbs 
    atoms 14-21 entry H          line    29 file /cbio/jclab/home/chayas/anaconda/envs/py35/share/psi4/basis/aug-cc-pvtz-ri.gbs 

	 --------------------------------------------------------
	                          DF-MP2                         
	      2nd-Order Density-Fitted Moller-Plesset Theory     
	              RMP2 Wavefunction,   8 Threads             
	                                                         
	        Rob Parrish, Justin Turney, Andy Simmonett,      
	           Ed Hohenstein, and C. David Sherrill          
	 --------------------------------------------------------

   => Auxiliary Basis Set <=

  Basis Set: (AUG-CC-PVTZ AUX)
    Blend: AUG-CC-PVTZ-RI
    Number of shells: 476
    Number of basis function: 1746
    Number of Cartesian functions: 2208
    Spherical Harmonics?: true
    Max angular momentum: 4

	 --------------------------------------------------------
	                 NBF =   782, NAUX =  1746
	 --------------------------------------------------------
	   CLASS    FOCC     OCC    AOCC    AVIR     VIR    FVIR
	   PAIRS       0      45      45     737     737       0
	 --------------------------------------------------------


         ------------------------------------------------------------
                                     CPHF                           
                                  Rob Parrish                       
         ------------------------------------------------------------

  ==> Geometry <==

    Molecular point group: c1
    Full point group: C1

    Geometry (in Angstrom), charge = 0, multiplicity = 1:

       Center              X                  Y                   Z               Mass       
    ------------   -----------------  -----------------  -----------------  -----------------
           C         -1.368902731996     0.841262082937    -2.662829194982    12.000000000000
           C         -2.446902731996     1.414262082937    -1.989829194982    12.000000000000
           C         -0.332902731996     0.246262082937    -1.942829194982    12.000000000000
           C         -2.489902731996     1.393262082937    -0.595829194982    12.000000000000
           C          0.666097268004    -0.417737917063     1.584170805018    12.000000000000
           C          1.775097268004    -0.964737917063    -0.478829194982    12.000000000000
           C          1.721097268004    -1.022737917063     2.248170805018    12.000000000000
           C          2.780097268004    -1.544737917063     0.278170805018    12.000000000000
           C         -0.375902731996     0.225262082937    -0.548829194982    12.000000000000
           C          0.701097268004    -0.392737917063     0.194170805018    12.000000000000
           C         -1.453902731996     0.798262082937     0.125170805018    12.000000000000
           N          2.781097268004    -1.588737917063     1.629170805018    14.003074004780
           F         -1.509902731996     0.788262082937     1.465170805018    18.998403224000
           H         -1.335902731996     0.857262082937    -3.748829194982     1.007825032070
           H         -3.253902731996     1.877262082937    -2.550829194982     1.007825032070
           H          0.501097268004    -0.195737917063    -2.482829194982     1.007825032070
           H         -3.329902731996     1.839262082937    -0.070829194982     1.007825032070
           H         -0.154902731996     0.017262082937     2.144170805018     1.007825032070
           H          1.837097268004    -0.963737917063    -1.562829194982     1.007825032070
           H          1.740097268004    -1.069737917063     3.332170805018     1.007825032070
           H          3.640097268004    -2.003737917063    -0.199829194982     1.007825032070

  Nuclear repulsion =  719.430336263309414
  Reference energy  = -575.265341295595249

  ==> Basis Set <==

  Basis Set: AUG-CC-PVTZ
    Blend: AUG-CC-PVTZ
    Number of shells: 254
    Number of basis function: 782
    Number of Cartesian functions: 915
    Spherical Harmonics?: true
    Max angular momentum: 3

  ==> CGRSolver (by Rob Parrish) <==

   Number of roots    =         1
   Preconditioning    =    JACOBI
   Convergence cutoff =     1E-06
   Maximum iterations =       100

  ==> CPHFRHamiltonian (by Rob Parrish) <== 

  ==> DFJK: Density-Fitted J/K Matrices <==

    J tasked:                  Yes
    K tasked:                  Yes
    wK tasked:                  No
    OpenMP threads:              8
    Integrals threads:           8
    Memory (MB):              3576
    Algorithm:                Disk
    Integral Cache:           NONE
    Schwarz Cutoff:          1E-12
    Fitting Condition:       1E-12

   => Auxiliary Basis Set <=

  Basis Set: (AUG-CC-PVTZ AUX)
    Blend: AUG-CC-PVTZ-JKFIT
    Number of shells: 502
    Number of basis function: 1720
    Number of Cartesian functions: 2143
    Spherical Harmonics?: true
    Max angular momentum: 4

  ==> CPHF Iterations <==

  => Iterations <=

             Iter  Converged  Remaining    Residual
  CGR           1          0          1   9.820E-02
  CGR           2          0          1   2.980E-02
  CGR           3          0          1   2.006E-02
  CGR           4          0          1   9.817E-03
  CGR           5          0          1   3.964E-03
  CGR           6          0          1   1.554E-03
  CGR           7          0          1   5.007E-04
  CGR           8          0          1   2.124E-04
  CGR           9          0          1   1.071E-04
  CGR          10          0          1   4.242E-05
  CGR          11          0          1   1.565E-05
  CGR          12          0          1   5.164E-06
  CGR          13          0          1   1.634E-06
  CGR          14          1          0   5.762E-07

    CGRSolver converged.

  ==> DFCorrGrad: Density-Fitted Correlated Gradients <==

    OpenMP threads:              8
    Integrals threads:           8
    Memory (MB):              3576
    Schwarz Cutoff:          0E+00
    Fitting Condition:       1E-12

   => Auxiliary Basis Set <=

  Basis Set: (AUG-CC-PVTZ AUX)
    Blend: AUG-CC-PVTZ-JKFIT
    Number of shells: 502
    Number of basis function: 1720
    Number of Cartesian functions: 2143
    Spherical Harmonics?: true
    Max angular momentum: 4

	-----------------------------------------------------------
	 ==================> DF-MP2 Energies <==================== 
	-----------------------------------------------------------
	 Reference Energy          =    -575.2653412955952490 [Eh]
	 Singles Energy            =      -0.0000000000000004 [Eh]
	 Same-Spin Energy          =      -0.6103291483187948 [Eh]
	 Opposite-Spin Energy      =      -1.8357630365283688 [Eh]
	 Correlation Energy        =      -2.4460921848471640 [Eh]
	 Total Energy              =    -577.7114334804424516 [Eh]
	-----------------------------------------------------------
	 ================> DF-SCS-MP2 Energies <================== 
	-----------------------------------------------------------
	 SCS Same-Spin Scale       =       0.3333333333333333 [-]
	 SCS Opposite-Spin Scale   =       1.2000000000000000 [-]
	 SCS Same-Spin Energy      =      -0.2034430494395983 [Eh]
	 SCS Opposite-Spin Energy  =      -2.2029156438340425 [Eh]
	 SCS Correlation Energy    =      -2.4063586932736412 [Eh]
	 SCS Total Energy          =    -577.6716999888689088 [Eh]
	-----------------------------------------------------------


  -Total Gradient:
     Atom            X                  Y                   Z
    ------   -----------------  -----------------  -----------------
       1       -0.003633828092     0.002094808755     0.000212145382
       2       -0.002906494254     0.001711725461    -0.002773812420
       3        0.016645032224    -0.009545406839     0.008504885399
       4        0.000831105109    -0.000183276478    -0.005385418828
       5       -0.014230070116     0.008404410705    -0.012739113954
       6       -0.007580405996     0.004404355168    -0.007672245761
       7       -0.013634268915     0.007446297407     0.004898592071
       8       -0.003257933904     0.001966218344    -0.010049644059
       9       -0.004773625700     0.002823406000    -0.005504281635
      10        0.004266809398    -0.002412817618     0.001832972749
      11        0.011893887860    -0.007794085405     0.031162789353
      12        0.011263468875    -0.006391573973     0.006515166154
      13        0.023912319837    -0.013335370862     0.006966391037
      14        0.000192282493     0.000009258956    -0.005146408109
      15       -0.003365025352     0.001971133022    -0.003777554993
      16        0.007746708067    -0.004069975135    -0.004695613792
      17       -0.004701765698     0.002519918001     0.000857889984
      18       -0.019964867354     0.010887347957     0.003133207542
      19       -0.002067779180     0.001454395341    -0.008630508714
      20        0.000659429906    -0.000538806926     0.002914938510
      21        0.002705020793    -0.001421961888    -0.000624375916


*** tstop() called on gpu-2-8.local at Tue Nov 14 03:16:41 2017
Module time:
	user time   =    4706.17 seconds =      78.44 minutes
	system time =     100.29 seconds =       1.67 minutes
	total time  =       2151 seconds =      35.85 minutes
Total time:
	user time   =    4706.18 seconds =      78.44 minutes
	system time =     100.29 seconds =       1.67 minutes
	total time  =       2151 seconds =      35.85 minutes

			-----------------------------------------
			 OPTKING 2.0: for geometry optimizations 
			  - R.A. King,  Bethel University        
			-----------------------------------------
	At level 1: Red. Int., RFO, no backsteps, dynamic trust

	Internal coordinates to be generated automatically.
	Detected frag 1 with atoms:  1 2 3 4 5 6 7 8 9 10 11 12 13 14 15 16 17 18 19 20
	 21
	---Fragment 1 Bond Connectivity---
	 1 : 2 3 14
	 2 : 1 4 15
	 3 : 1 9 16
	 4 : 2 11 17
	 5 : 7 10 18
	 6 : 8 10 19
	 7 : 5 12 20
	 8 : 6 12 21
	 9 : 3 10 11
	 10 : 5 6 9
	 11 : 4 9 13
	 12 : 7 8
	 13 : 11
	 14 : 1
	 15 : 2
	 16 : 3
	 17 : 4
	 18 : 5
	 19 : 6
	 20 : 7
	 21 : 8

	Assuming in current code that numbering for constraints corresponds to unified fragment.
	Fixed dihedral atom list: 
	     3     9    10     5
	---Fragment 1 Geometry and Gradient---
	 C          -2.5868512660        1.5897549427       -5.0320179172
	 C          -4.6239760373        2.6725680169       -3.7602322297
	 C          -0.6290949924        0.4653678937       -3.6714151015
	 C          -4.7052342610        2.6328837681       -1.1259540005
	 C           1.2587414144       -0.7894102586        2.9936489692
	 C           3.3544476958       -1.8230904533       -0.9048560429
	 C           3.2524024846       -1.9326945690        4.2484271214
	 C           5.2536224593       -2.9191316103        0.5256666396
	 C          -0.7103532161        0.4256836449       -1.0371368722
	 C           1.3248818290       -0.7421671052        0.3669296445
	 C          -2.7474779873        1.5084967190        0.2365385413
	 N           5.2555121854       -3.0022795602        3.0786866452
	 F          -2.8533026508        1.4895994577        2.7687715594
	 H          -2.5244903036        1.6199905609       -7.0842604975
	 H          -6.1489850265        3.5475112164       -4.8203685903
	 H           0.9469366025       -0.3698910571       -4.6918672132
	 H          -6.2926042126        3.4757016234       -0.1338477807
	 H          -0.2927237407        0.0326206092        4.0518956036
	 H           3.4716107160       -1.8212007271       -2.9533191710
	 H           3.2883072811       -2.0215116972        6.2968902495
	 H           6.8787869336       -3.7865159053       -0.3776224519
	            -0.0036338281        0.0020948088        0.0002121454
	            -0.0029064943        0.0017117255       -0.0027738124
	             0.0166450322       -0.0095454068        0.0085048854
	             0.0008311051       -0.0001832765       -0.0053854188
	            -0.0142300701        0.0084044107       -0.0127391140
	            -0.0075804060        0.0044043552       -0.0076722458
	            -0.0136342689        0.0074462974        0.0048985921
	            -0.0032579339        0.0019662183       -0.0100496441
	            -0.0047736257        0.0028234060       -0.0055042816
	             0.0042668094       -0.0024128176        0.0018329727
	             0.0118938879       -0.0077940854        0.0311627894
	             0.0112634689       -0.0063915740        0.0065151662
	             0.0239123198       -0.0133353709        0.0069663910
	             0.0001922825        0.0000092590       -0.0051464081
	            -0.0033650254        0.0019711330       -0.0037775550
	             0.0077467081       -0.0040699751       -0.0046956138
	            -0.0047017657        0.0025199180        0.0008578900
	            -0.0199648674        0.0108873480        0.0031332075
	            -0.0020677792        0.0014543953       -0.0086305087
	             0.0006594299       -0.0005388069        0.0029149385
	             0.0027050208       -0.0014219619       -0.0006243759

	Previous optimization step data not found.  Starting new optimization.

	---Fragment 1 Intrafragment Coordinates---
	 - Coordinate -           - BOHR/RAD -       - ANG/DEG -
	 R(1,2)           =         2.634350	       1.394038
	 R(1,3)           =         2.635962	       1.394891
	 R(1,14)          =         2.053412	       1.086619
	 R(2,4)           =         2.635830	       1.394821
	 R(2,15)          =         2.053063	       1.086434
	 R(3,9)           =         2.635830	       1.394821
	 R(3,16)          =         2.054959	       1.087437
	 R(4,11)          =         2.636938	       1.395407
	 R(4,17)          =         2.052891	       1.086343
	 R(5,7)           =         2.618445	       1.385621
	 R(5,10)          =         2.627977	       1.390665
	 R(5,18)          =         2.050040	       1.084835
	 R(6,8)           =         2.618123	       1.385451
	 R(6,10)          =         2.627731	       1.390536
	 R(6,19)          =         2.051812	       1.085772
	 R(7,12)          =         2.554360	       1.351709
	 R(7,20)          =         2.050702	       1.085185
	 R(8,12)          =         2.554374	       1.351717
	 R(8,21)          =         2.051694	       1.085709
	 R(9,10)          =         2.734494	       1.447032
	 R(9,11)          =         2.635263	       1.394521
	 R(11,13)         =         2.534514	       1.341207
	 B(1,2,4)         =         2.094553	     120.009056
	 B(1,2,15)        =         2.094721	     120.018646
	 B(1,3,9)         =         2.093692	     119.959722
	 B(1,3,16)        =         2.079074	     119.122177
	 B(2,1,3)         =         2.094940	     120.031219
	 B(2,1,14)        =         2.094311	     119.995189
	 B(2,4,11)        =         2.094306	     119.994870
	 B(2,4,17)        =         2.095140	     120.042665
	 B(3,1,14)        =         2.093934	     119.973570
	 B(3,9,10)        =         2.090528	     119.778448
	 B(3,9,11)        =         2.095181	     120.045019
	 B(4,2,15)        =         2.093912	     119.972298
	 B(4,11,9)        =         2.093699	     119.960108
	 B(4,11,13)       =         2.081063	     119.236128
	 B(5,7,12)        =         2.165735	     124.087498
	 B(5,7,20)        =         2.107058	     120.725511
	 B(5,10,6)        =         2.089550	     119.722418
	 B(5,10,9)        =         2.096897	     120.143326
	 B(6,8,12)        =         2.165504	     124.074237
	 B(6,8,21)        =         2.107167	     120.731761
	 B(6,10,9)        =         2.096738	     120.134248
	 B(7,5,10)        =         2.057443	     117.882827
	 B(7,5,18)        =         2.098937	     120.260247
	 B(7,12,8)        =         2.030280	     116.326498
	 B(8,6,10)        =         2.057857	     117.906513
	 B(8,6,19)        =         2.099558	     120.295821
	 B(9,3,16)        =         2.110419	     120.918077
	 B(9,11,13)       =         2.108422	     120.803676
	 B(10,5,18)       =         2.126804	     121.856879
	 B(10,6,19)       =         2.125770	     121.797665
	 B(10,9,11)       =         2.097476	     120.176533
	 B(11,4,17)       =         2.093740	     119.962450
	 B(12,7,20)       =         2.010392	     115.186962
	 B(12,8,21)       =         2.010514	     115.193977
	 D(1,2,4,11)      =        -0.000325	      -0.018609
	 D(1,2,4,17)      =        -3.141151	    -179.974682
	 D(1,3,9,10)      =        -3.141334	    -179.985190
	 D(1,3,9,11)      =         0.000325	       0.018608
	 D(2,1,3,9)       =        -0.000348	      -0.019945
	 D(2,1,3,16)      =        -3.140969	    -179.964243
	 D(2,4,11,9)      =         0.000301	       0.017261
	 D(2,4,11,13)     =         3.140029	     179.910408
	 D(3,1,2,4)       =         0.000348	       0.019955
	 D(3,1,2,15)      =        -3.141142	    -179.974167
	 D(3,9,10,5)      =         3.141385	     179.988110
	 D(3,9,10,6)      =        -0.000788	      -0.045171
	 D(3,9,11,4)      =        -0.000301	      -0.017270
	 D(3,9,11,13)     =        -3.139999	    -179.908714
	 D(4,2,1,14)      =         3.141002	     179.966134
	 D(4,11,9,10)     =         3.141358	     179.986543
	 D(5,7,12,8)      =        -0.000384	      -0.021984
	 D(5,10,6,8)      =         0.000366	       0.020949
	 D(5,10,6,19)     =        -3.140947	    -179.963016
	 D(5,10,9,11)     =        -0.000274	      -0.015693
	 D(6,8,12,7)      =         0.000114	       0.006533
	 D(6,10,5,7)      =        -0.000607	      -0.034767
	 D(6,10,5,18)     =        -3.140831	    -179.956340
	 D(6,10,9,11)     =         3.140738	     179.951027
	 D(7,5,10,9)      =         3.140407	     179.932090
	 D(7,12,8,21)     =         3.140715	     179.949690
	 D(8,6,10,9)      =        -3.140649	    -179.945911
	 D(8,12,7,20)     =         3.140134	     179.916432
	 D(9,3,1,14)      =        -3.141002	    -179.966136
	 D(9,10,5,18)     =         0.000184	       0.010517
	 D(9,10,6,19)     =         0.001224	       0.070124
	 D(9,11,4,17)     =         3.141128	     179.973370
	 D(10,5,7,12)     =         0.000636	       0.036451
	 D(10,5,7,20)     =        -3.139825	    -179.898720
	 D(10,6,8,12)     =        -0.000115	      -0.006599
	 D(10,6,8,21)     =        -3.140663	    -179.946760
	 D(10,9,3,16)     =        -0.000731	      -0.041910
	 D(10,9,11,13)    =         0.001660	       0.095099
	 D(11,4,2,15)     =         3.141165	     179.975516
	 D(11,9,3,16)     =         3.140927	     179.961888
	 D(12,7,5,18)     =         3.140883	     179.959329
	 D(12,8,6,19)     =         3.141202	     179.977617
	 D(13,11,4,17)    =        -0.002330	      -0.133484
	 D(14,1,2,15)     =        -0.000488	      -0.027988
	 D(14,1,3,16)     =         0.001563	       0.089566
	 D(15,2,4,17)     =         0.000339	       0.019443
	 D(18,5,7,20)     =         0.000422	       0.024159
	 D(19,6,8,21)     =         0.000654	       0.037457
	 R(5,13)          =         4.706736	       2.490697

	Current energy   :      -577.7114334804

	Using model Hessian from Lindh (1995).
	 - Coordinate -           - BOHR/RAD -       - ANG/DEG -
	 R(1,2)           =         2.634350	       1.394038
	 R(1,3)           =         2.635962	       1.394891
	 R(1,14)          =         2.053412	       1.086619
	 R(2,4)           =         2.635830	       1.394821
	 R(2,15)          =         2.053063	       1.086434
	 R(3,9)           =         2.635830	       1.394821
	 R(3,16)          =         2.054959	       1.087437
	 R(4,11)          =         2.636938	       1.395407
	 R(4,17)          =         2.052891	       1.086343
	 R(5,7)           =         2.618445	       1.385621
	 R(5,10)          =         2.627977	       1.390665
	 R(5,18)          =         2.050040	       1.084835
	 R(6,8)           =         2.618123	       1.385451
	 R(6,10)          =         2.627731	       1.390536
	 R(6,19)          =         2.051812	       1.085772
	 R(7,12)          =         2.554360	       1.351709
	 R(7,20)          =         2.050702	       1.085185
	 R(8,12)          =         2.554374	       1.351717
	 R(8,21)          =         2.051694	       1.085709
	 R(9,10)          =         2.734494	       1.447032
	 R(9,11)          =         2.635263	       1.394521
	 R(11,13)         =         2.534514	       1.341207
	 R(12,20)         =         3.897260	       2.062341
	 R(12,21)         =         3.898220	       2.062849
	 R(13,18)         =         3.213372	       1.700443
	 R(16,19)         =         3.391582	       1.794748
	 B(1,2,4)         =         2.094553	     120.009056
	 B(1,2,15)        =         2.094721	     120.018646
	 B(1,3,9)         =         2.093692	     119.959722
	 B(1,3,16)        =         2.079074	     119.122177
	 B(2,1,3)         =         2.094940	     120.031219
	 B(2,1,14)        =         2.094311	     119.995189
	 B(2,4,11)        =         2.094306	     119.994870
	 B(2,4,17)        =         2.095140	     120.042665
	 B(3,1,14)        =         2.093934	     119.973570
	 B(3,9,10)        =         2.090528	     119.778448
	 B(3,9,11)        =         2.095181	     120.045019
	 B(3,16,19)       =         2.083215	     119.359402
	 B(4,2,15)        =         2.093912	     119.972298
	 B(4,11,9)        =         2.093699	     119.960108
	 B(4,11,13)       =         2.081063	     119.236128
	 B(5,7,12)        =         2.165735	     124.087498
	 B(5,7,20)        =         2.107058	     120.725511
	 B(5,10,6)        =         2.089550	     119.722418
	 B(5,10,9)        =         2.096897	     120.143326
	 B(5,18,13)       =         2.187978	     125.361917
	 B(6,8,12)        =         2.165504	     124.074237
	 B(6,8,21)        =         2.107167	     120.731761
	 B(6,10,9)        =         2.096738	     120.134248
	 B(6,19,16)       =         2.059699	     118.012082
	 B(7,5,10)        =         2.057443	     117.882827
	 B(7,5,18)        =         2.098937	     120.260247
	 B(7,12,8)        =         2.030280	     116.326498
	 B(7,12,20)       =         0.496286	      28.435072
	 B(7,12,21)       =         2.526663	     144.767121
	 B(7,20,12)       =         0.634915	      36.377966
	 B(8,6,10)        =         2.057857	     117.906513
	 B(8,6,19)        =         2.099558	     120.295821
	 B(8,12,20)       =         2.526565	     144.761524
	 B(8,12,21)       =         0.496383	      28.440640
	 B(8,21,12)       =         0.634696	      36.365383
	 B(9,3,16)        =         2.110419	     120.918077
	 B(9,11,13)       =         2.108422	     120.803676
	 B(10,5,18)       =         2.126804	     121.856879
	 B(10,6,19)       =         2.125770	     121.797665
	 B(10,9,11)       =         2.097476	     120.176533
	 B(11,4,17)       =         2.093740	     119.962450
	 B(11,13,18)      =         1.948791	     111.657514
	 B(12,7,20)       =         2.010392	     115.186962
	 B(12,8,21)       =         2.010514	     115.193977
	 B(20,12,21)      =         3.022948	     173.202157
	 D(1,2,4,11)      =        -0.000325	      -0.018609
	 D(1,2,4,17)      =        -3.141151	    -179.974682
	 D(1,3,9,10)      =        -3.141334	    -179.985190
	 D(1,3,9,11)      =         0.000325	       0.018608
	 D(1,3,16,19)     =        -3.141042	    -179.968472
	 D(2,1,3,9)       =        -0.000348	      -0.019945
	 D(2,1,3,16)      =        -3.140969	    -179.964243
	 D(2,4,11,9)      =         0.000301	       0.017261
	 D(2,4,11,13)     =         3.140029	     179.910408
	 D(3,1,2,4)       =         0.000348	       0.019955
	 D(3,1,2,15)      =        -3.141142	    -179.974167
	 D(3,9,10,5)      =         3.141385	     179.988110
	 D(3,9,10,6)      =        -0.000788	      -0.045171
	 D(3,9,11,4)      =        -0.000301	      -0.017270
	 D(3,9,11,13)     =        -3.139999	    -179.908714
	 D(3,16,19,6)     =        -0.001096	      -0.062792
	 D(4,2,1,14)      =         3.141002	     179.966134
	 D(4,11,9,10)     =         3.141358	     179.986543
	 D(4,11,13,18)    =         3.141115	     179.972645
	 D(5,7,12,8)      =        -0.000384	      -0.021984
	 D(5,7,12,20)     =        -3.140518	    -179.938416
	 D(5,7,12,21)     =         0.000341	       0.019549
	 D(5,7,20,12)     =         3.140557	     179.940668
	 D(5,10,6,8)      =         0.000366	       0.020949
	 D(5,10,6,19)     =        -3.140947	    -179.963016
	 D(5,10,9,11)     =        -0.000274	      -0.015693
	 D(5,18,13,11)    =         0.002398	       0.137396
	 D(6,8,12,7)      =         0.000114	       0.006533
	 D(6,8,12,20)     =         0.001318	       0.075499
	 D(6,8,12,21)     =        -3.140601	    -179.943157
	 D(6,8,21,12)     =         3.140637	     179.945224
	 D(6,10,5,7)      =        -0.000607	      -0.034767
	 D(6,10,5,18)     =        -3.140831	    -179.956340
	 D(6,10,9,11)     =         3.140738	     179.951027
	 D(7,5,10,9)      =         3.140407	     179.932090
	 D(7,5,18,13)     =        -3.141430	    -179.990708
	 D(7,12,8,21)     =         3.140715	     179.949690
	 D(7,12,21,8)     =        -0.001364	      -0.078162
	 D(7,20,12,8)     =        -0.002266	      -0.129815
	 D(7,20,12,21)    =        -0.003576	      -0.204876
	 D(8,6,10,9)      =        -3.140649	    -179.945911
	 D(8,6,19,16)     =         3.141473	     179.993137
	 D(8,12,7,20)     =         3.140134	     179.916432
	 D(8,21,12,20)    =         0.001587	       0.090938
	 D(9,3,1,14)      =        -3.141002	    -179.966136
	 D(9,3,16,19)     =         0.001532	       0.087779
	 D(9,10,5,18)     =         0.000184	       0.010517
	 D(9,10,6,19)     =         0.001224	       0.070124
	 D(9,11,4,17)     =         3.141128	     179.973370
	 D(9,11,13,18)    =        -0.002359	      -0.135135
	 D(10,5,7,12)     =         0.000636	       0.036451
	 D(10,5,7,20)     =        -3.139825	    -179.898720
	 D(10,5,18,13)    =        -0.001239	      -0.070965
	 D(10,6,8,12)     =        -0.000115	      -0.006599
	 D(10,6,8,21)     =        -3.140663	    -179.946760
	 D(10,6,19,16)    =        -0.000406	      -0.023274
	 D(10,9,3,16)     =        -0.000731	      -0.041910
	 D(10,9,11,13)    =         0.001660	       0.095099
	 D(11,4,2,15)     =         3.141165	     179.975516
	 D(11,9,3,16)     =         3.140927	     179.961888
	 D(12,7,5,18)     =         3.140883	     179.959329
	 D(12,8,6,19)     =         3.141202	     179.977617
	 D(13,11,4,17)    =        -0.002330	      -0.133484
	 D(14,1,2,15)     =        -0.000488	      -0.027988
	 D(14,1,3,16)     =         0.001563	       0.089566
	 D(15,2,4,17)     =         0.000339	       0.019443
	 D(18,5,7,20)     =         0.000422	       0.024159
	 D(19,6,8,21)     =         0.000654	       0.037457
	 D(20,7,12,21)    =         3.140859	     179.957964
	 D(20,12,8,21)    =        -3.141267	    -179.981344

	Adding user-defined constraint: Fragment 1; Coordinate 67:
		Value =     3.141385; Fixed value    =    -3.141575
		Force =    -3.141480; Force constant =     0.500000
	Removing off-diagonal coupling between coordinate 67 and others.
	Taking RFO optimization step.
	Going to follow RFO solution 1.
	Using RFO vector 1.

	Determining step-restricting scale parameter for RS-RFO.
	Maximum step size allowed    0.10000

	 Iter      |step|        alpha        rfo_root  
	------------------------------------------------
	    0     0.94871       1.00000           1
	    1     0.57043       2.88847           1
	    2     0.35126       7.80496           1
	    3     0.22557      19.18541           1
	    4     0.15526      40.80601           1
	    5     0.11869      70.09429           1
	    6     0.10351      92.31232           1
	    7     0.10017      98.60959           1
	    8     0.10000      98.94492           1
	------------------------------------------------
	Norm of target step-size    0.10000
	Projected energy change by RFO approximation:        -0.2011244194

	Back-transformation to cartesian coordinates...
	Could not converge backtransformation.
	Using first guess instead.

	--- Internal Coordinate Step in ANG or DEG, aJ/ANG or AJ/DEG ---
	 ---------------------------------------------------------------------------
	   Coordinate                Previous        Force       Change         New 
	   ----------                --------       ------       ------       ------
	    1 R(1,2)          =      1.394038    -0.055083    -0.000072     1.393966
	    2 R(1,3)          =      1.394891    -0.065733    -0.000133     1.394758
	    3 R(1,14)         =      1.086619    -0.042424     0.000170     1.086789
	    4 R(2,4)          =      1.394821    -0.091629     0.000002     1.394823
	    5 R(2,15)         =      1.086434    -0.043584    -0.000073     1.086361
	    6 R(3,9)          =      1.394821     0.025668     0.000564     1.395385
	    7 R(3,16)         =      1.087437    -0.081788    -0.000136     1.087301
	    8 R(4,11)         =      1.395407    -0.114081    -0.000284     1.395123
	    9 R(4,17)         =      1.086343    -0.041892    -0.000091     1.086252
	   10 R(5,7)          =      1.385621     0.020331     0.000147     1.385769
	   11 R(5,10)         =      1.390665     0.087056     0.000847     1.391512
	   12 R(5,18)         =      1.084835    -0.173774    -0.000403     1.084432
	   13 R(6,8)          =      1.385451    -0.020535     0.000046     1.385497
	   14 R(6,10)         =      1.390536     0.048742     0.000187     1.390722
	   15 R(6,19)         =      1.085772    -0.070027    -0.000005     1.085767
	   16 R(7,12)         =      1.351709    -0.136353    -0.000328     1.351381
	   17 R(7,20)         =      1.085185    -0.024276     0.000300     1.085485
	   18 R(8,12)         =      1.351717    -0.139020    -0.000085     1.351631
	   19 R(8,21)         =      1.085709    -0.024871    -0.000043     1.085667
	   20 R(9,10)         =      1.447032     0.205454     0.000650     1.447682
	   21 R(9,11)         =      1.394521    -0.051642    -0.000132     1.394389
	   22 R(11,13)        =      1.341207    -0.046205     0.000069     1.341275
	   23 B(1,2,4)        =    120.009056    -0.000118     0.002540   120.011597
	   24 B(1,2,15)       =    120.018646     0.000155    -0.007332   120.011314
	   25 B(1,3,9)        =    119.959722     0.000606     0.027604   119.987326
	   26 B(1,3,16)       =    119.122177    -0.000327    -0.027782   119.094396
	   27 B(2,1,3)        =    120.031219     0.000031    -0.011229   120.019990
	   28 B(2,1,14)       =    119.995189    -0.000016     0.006629   120.001818
	   29 B(2,4,11)       =    119.994870    -0.000276    -0.005073   119.989798
	   30 B(2,4,17)       =    120.042665     0.000285     0.014375   120.057040
	   31 B(3,1,14)       =    119.973570    -0.000013     0.004614   119.978184
	   32 B(3,9,10)       =    119.778448     0.001323     0.036491   119.814939
	   33 B(3,9,11)       =    120.045019    -0.001577    -0.060384   119.984635
	   34 B(4,2,15)       =    119.972298    -0.000036     0.004579   119.976877
	   35 B(4,11,9)       =    119.960108     0.001338     0.043386   120.003495
	   36 B(4,11,13)      =    119.236128    -0.000399    -0.009953   119.226174
	   37 B(5,7,12)       =    124.087498     0.000427     0.001360   124.088858
	   38 B(5,7,20)       =    120.725511    -0.000273    -0.004729   120.720782
	   39 B(5,10,6)       =    119.722418    -0.001474    -0.056406   119.666012
	   40 B(5,10,9)       =    120.143326     0.000961     0.023564   120.166890
	   41 B(6,8,12)       =    124.074237     0.000103     0.010456   124.084693
	   42 B(6,8,21)       =    120.731761    -0.000111    -0.014777   120.716984
	   43 B(6,10,9)       =    120.134248     0.000532     0.018891   120.153140
	   44 B(7,5,10)       =    117.882827     0.000199     0.013930   117.896757
	   45 B(7,5,18)       =    120.260247    -0.000802    -0.048266   120.211981
	   46 B(7,12,8)       =    116.326498    -0.000021     0.007151   116.333648
	   47 B(8,6,10)       =    117.906513     0.000760     0.019863   117.926375
	   48 B(8,6,19)       =    120.295821    -0.000610    -0.015564   120.280256
	   49 B(9,3,16)       =    120.918077    -0.000277     0.000195   120.918272
	   50 B(9,11,13)      =    120.803676    -0.000936    -0.033350   120.770326
	   51 B(10,5,18)      =    121.856879     0.000600     0.034190   121.891070
	   52 B(10,6,19)      =    121.797665    -0.000149    -0.004328   121.793337
	   53 B(10,9,11)      =    120.176533     0.000257     0.009499   120.186032
	   54 B(11,4,17)      =    119.962450    -0.000007    -0.009302   119.953148
	   55 B(12,7,20)      =    115.186962    -0.000152     0.003382   115.190344
	   56 B(12,8,21)      =    115.193977     0.000005     0.004137   115.198114
	   57 D(1,2,4,11)     =     -0.018609    -0.000791    -0.130295    -0.148903
	   58 D(1,2,4,17)     =   -179.974682    -0.001322    -0.217683  -180.192365
	   59 D(1,3,9,10)     =   -179.985190     0.004468     0.734359  -179.250831
	   60 D(1,3,9,11)     =      0.018608    -0.003946    -0.646800    -0.628193
	   61 D(2,1,3,9)      =     -0.019945     0.001573     0.257993     0.238049
	   62 D(2,1,3,16)     =   -179.964243     0.001060     0.173724  -179.790519
	   63 D(2,4,11,9)     =      0.017261    -0.001580    -0.258693    -0.241432
	   64 D(2,4,11,13)    =    179.910408    -0.001070    -0.176414   179.733994
	   65 D(3,1,2,4)      =      0.019955     0.000794     0.130514     0.150468
	   66 D(3,1,2,15)     =   -179.974167    -0.000263    -0.043230  -180.017397
	   67 D(3,9,10,5)     =    179.988110    -0.022175    -3.640988   176.347122
	   68 D(3,9,10,6)     =     -0.045171    -0.013666    -2.244187    -2.289358
	   69 D(3,9,11,4)     =     -0.017270     0.003950     0.647084     0.629814
	   70 D(3,9,11,13)    =   -179.908714     0.003431     0.563488  -179.345226
	   71 D(4,2,1,14)     =    179.966134     0.001320     0.216747   180.182881
	   72 D(4,11,9,10)    =    179.986543    -0.004499    -0.739252   179.247291
	   73 D(5,7,12,8)     =     -0.021984     0.000740     0.121550     0.099566
	   74 D(5,10,6,8)     =      0.020949     0.003975     0.650683     0.671633
	   75 D(5,10,6,19)    =   -179.963016     0.003478     0.569494  -179.393522
	   76 D(5,10,9,11)    =     -0.015693    -0.013748    -2.257015    -2.272708
	   77 D(6,8,12,7)     =      0.006533    -0.000740    -0.121090    -0.114556
	   78 D(6,10,5,7)     =     -0.034767    -0.003974    -0.650093    -0.684860
	   79 D(6,10,5,18)    =   -179.956340    -0.003479    -0.569064  -180.525405
	   80 D(6,10,9,11)    =    179.951027    -0.005240    -0.860215   179.090812
	   81 D(7,5,10,9)     =    179.932090     0.004499     0.739917   180.672007
	   82 D(7,12,8,21)    =    179.949690    -0.001401    -0.230259   179.719431
	   83 D(8,6,10,9)     =   -179.945911    -0.004498    -0.739134  -180.685045
	   84 D(8,12,7,20)    =    179.916432     0.001403     0.229889   180.146321
	   85 D(9,3,1,14)     =   -179.966136     0.001047     0.171779  -179.794357
	   86 D(9,10,5,18)    =      0.010517     0.004995     0.820945     0.831462
	   87 D(9,10,6,19)    =      0.070124    -0.004995    -0.820324    -0.750200
	   88 D(9,11,4,17)    =    179.973370    -0.001049    -0.171386   179.801984
	   89 D(10,5,7,12)    =      0.036451     0.001607     0.262467     0.298918
	   90 D(10,5,7,20)    =   -179.898720     0.000909     0.148424  -179.750296
	   91 D(10,6,8,12)    =     -0.006599    -0.001607    -0.263637    -0.270237
	   92 D(10,6,8,21)    =   -179.946760    -0.000911    -0.148747  -180.095507
	   93 D(10,9,3,16)    =     -0.041910     0.004991     0.820176     0.778267
	   94 D(10,9,11,13)   =      0.095099    -0.005018    -0.822848    -0.727749
	   95 D(11,4,2,15)    =    179.975516     0.000266     0.043389   180.018904
	   96 D(11,9,3,16)    =    179.961888    -0.003424    -0.560983   179.400905
	   97 D(12,7,5,18)    =    179.959329     0.001120     0.182923   180.142252
	   98 D(12,8,6,19)    =    179.977617    -0.001118    -0.183726   179.793892
	   99 D(13,11,4,17)   =     -0.133484    -0.000539    -0.089106    -0.222591
	  100 D(14,1,2,15)    =     -0.027988     0.000263     0.043003     0.015016
	  101 D(14,1,3,16)    =      0.089566     0.000534     0.087510     0.177076
	  102 D(15,2,4,17)    =      0.019443    -0.000266    -0.044000    -0.024557
	  103 D(18,5,7,20)    =      0.024159     0.000422     0.068879     0.093038
	  104 D(19,6,8,21)    =      0.037457    -0.000422    -0.068835    -0.031379
	  105 R(5,13)         =      2.490697     0.250953     0.001898     2.492595
	 ---------------------------------------------------------------------------
	Successfully symmetrized geometry.
	 Forces used to impose fixed constraints are not included.
	  Forces zeroed: 67 

  ==> Convergence Check <==

  Measures of convergence in internal coordinates in au.
  Criteria marked as inactive (o), active & met (*), and active & unmet ( ).
  --------------------------------------------------------------------------------------------- ~
   Step     Total Energy     Delta E     MAX Force     RMS Force      MAX Disp      RMS Disp    ~
  --------------------------------------------------------------------------------------------- ~
    Convergence Criteria    1.00e-06 *    3.00e-04 *             o    1.20e-03 *             o  ~
  --------------------------------------------------------------------------------------------- ~
      1    -577.71143348   -5.78e+02      7.88e-01      1.51e-01 o    6.35e-02      9.76e-03 o  ~
  ---------------------------------------------------------------------------------------------

	Writing optimization data to binary file.
	Structure for next step:
	Cartesian Geometry (in Angstrom)
	    C    -1.3569010580   0.8649912432  -2.6624348683
	    C    -2.4428021513   1.4231428725  -1.9898083054
	    C    -0.3278834075   0.2574436033  -1.9431577663
	    C    -2.4992585078   1.3770777030  -0.5968896801
	    C     0.6747279281  -0.4033110492   1.5850353303
	    C     1.7599326043  -0.9936570934  -0.4789105784
	    C     1.7372461504  -0.9950600318   2.2492963110
	    C     2.7732293163  -1.5583008441   0.2787225608
	    C    -0.3878960628   0.2039630128  -0.5500903690
	    C     0.6900100876  -0.4130989878   0.1936411875
	    C    -1.4702045430   0.7695104837   0.1230259203
	    N     2.7890142027  -1.5753006070   1.6301548581
	    F    -1.5375018928   0.7386152260   1.4622557410
	    H    -1.3116306562   0.9036024558  -3.7475943871
	    H    -3.2440767960   1.8965700219  -2.5501711212
	    H     0.5136232705  -0.1700470316  -2.4829183609
	    H    -3.3435823153   1.8145489106  -0.0718370766
	    H    -0.1369530171   0.0467788956   2.1459147925
	    H     1.8119571625  -1.0119143078  -1.5632766701
	    H     1.7700706836  -1.0170271866   3.3340625310
	    H     3.6289216301  -2.0250235476  -0.1994331435
			--------------------------
			 OPTKING Finished Execution 
			--------------------------

    Structure for next step:
    Molecular point group: c1
    Full point group: C1

    Geometry (in Angstrom), charge = 0, multiplicity = 1:

    C           -1.353046917730     0.871885906698    -2.662050174124
    C           -2.438948011041     1.430037535951    -1.989423611165
    C           -0.324029267230     0.264338266795    -1.942773072099
    C           -2.495404367552     1.383972366443    -0.596504985870
    C            0.678582068388    -0.396416385715     1.585420024498
    C            1.763786744514    -0.986762429912    -0.478525884186
    C            1.741100290607    -0.988165368310     2.249681005184
    C            2.777083456551    -1.551406180663     0.279107255042
    C           -0.384041922542     0.210857676273    -0.549705674784
    C            0.693864227874    -0.406204324309     0.194025881716
    C           -1.466350402774     0.776405147122     0.123410614471
    N            2.792868342942    -1.568405943570     1.630539552309
    F           -1.533647752561     0.745509889481     1.462640435235
    H           -1.307776515985     0.910497119227    -3.747209692917
    H           -3.240222655770     1.903464685378    -2.549786426983
    H            0.517477410724    -0.163152368173    -2.482533666732
    H           -3.339728174996     1.821443574095    -0.071452382415
    H           -0.133098876828     0.053673559078     2.146299486681
    H            1.815811302722    -1.005019644293    -1.562891975925
    H            1.773924823807    -1.010132523160     3.334447225197
    H            3.632775770332    -2.018128884129    -0.199048449248

gradient() will perform analytic gradient computation.

*** tstart() called on gpu-2-8.local
*** at Tue Nov 14 03:16:43 2017

    SCF Algorithm Type (re)set to DF.

*** tstart() called on gpu-2-8.local
*** at Tue Nov 14 03:16:43 2017

   => Loading Basis Set <=

    Name: AUG-CC-PVTZ
    Role: ORBITAL
    Keyword: BASIS
    atoms 1-11  entry C          line   221 file /cbio/jclab/home/chayas/anaconda/envs/py35/share/psi4/basis/aug-cc-pvtz.gbs 
    atoms 12    entry N          line   267 file /cbio/jclab/home/chayas/anaconda/envs/py35/share/psi4/basis/aug-cc-pvtz.gbs 
    atoms 13    entry F          line   359 file /cbio/jclab/home/chayas/anaconda/envs/py35/share/psi4/basis/aug-cc-pvtz.gbs 
    atoms 14-21 entry H          line    34 file /cbio/jclab/home/chayas/anaconda/envs/py35/share/psi4/basis/aug-cc-pvtz.gbs 


         ---------------------------------------------------------
                                   SCF
            by Justin Turney, Rob Parrish, and Andy Simmonett
                              RHF Reference
                        8 Threads,   4768 MiB Core
         ---------------------------------------------------------

  ==> Geometry <==

    Molecular point group: c1
    Full point group: C1

    Geometry (in Angstrom), charge = 0, multiplicity = 1:

       Center              X                  Y                   Z               Mass       
    ------------   -----------------  -----------------  -----------------  -----------------
           C         -1.353046917730     0.871885906698    -2.662050174124    12.000000000000
           C         -2.438948011041     1.430037535951    -1.989423611165    12.000000000000
           C         -0.324029267230     0.264338266795    -1.942773072099    12.000000000000
           C         -2.495404367552     1.383972366443    -0.596504985870    12.000000000000
           C          0.678582068388    -0.396416385715     1.585420024498    12.000000000000
           C          1.763786744514    -0.986762429912    -0.478525884186    12.000000000000
           C          1.741100290607    -0.988165368310     2.249681005184    12.000000000000
           C          2.777083456551    -1.551406180663     0.279107255042    12.000000000000
           C         -0.384041922542     0.210857676273    -0.549705674784    12.000000000000
           C          0.693864227874    -0.406204324309     0.194025881716    12.000000000000
           C         -1.466350402774     0.776405147122     0.123410614471    12.000000000000
           N          2.792868342942    -1.568405943570     1.630539552309    14.003074004780
           F         -1.533647752561     0.745509889481     1.462640435235    18.998403224000
           H         -1.307776515985     0.910497119227    -3.747209692917     1.007825032070
           H         -3.240222655770     1.903464685378    -2.549786426983     1.007825032070
           H          0.517477410724    -0.163152368173    -2.482533666732     1.007825032070
           H         -3.339728174996     1.821443574095    -0.071452382415     1.007825032070
           H         -0.133098876828     0.053673559078     2.146299486681     1.007825032070
           H          1.815811302722    -1.005019644293    -1.562891975925     1.007825032070
           H          1.773924823807    -1.010132523160     3.334447225197     1.007825032070
           H          3.632775770332    -2.018128884129    -0.199048449248     1.007825032070

  Running in c1 symmetry.

  Rotational constants: A =      0.06387  B =      0.01888  C =      0.01458 [cm^-1]
  Rotational constants: A =   1914.78932  B =    566.13272  C =    437.03620 [MHz]
  Nuclear repulsion =  719.314709741002162

  Charge       = 0
  Multiplicity = 1
  Electrons    = 90
  Nalpha       = 45
  Nbeta        = 45

  ==> Algorithm <==

  SCF Algorithm Type is DF.
  DIIS enabled.
  MOM disabled.
  Fractional occupation disabled.
  Guess Type is READ.
  Energy threshold   = 1.00e-10
  Density threshold  = 1.00e-10
  Integral threshold = 0.00e+00

  ==> Primary Basis <==

  Basis Set: AUG-CC-PVTZ
    Blend: AUG-CC-PVTZ
    Number of shells: 254
    Number of basis function: 782
    Number of Cartesian functions: 915
    Spherical Harmonics?: true
    Max angular momentum: 3

   => Loading Basis Set <=

    Name: (AUG-CC-PVTZ AUX)
    Role: JKFIT
    Keyword: DF_BASIS_SCF
    atoms 1-11  entry C          line   161 file /cbio/jclab/home/chayas/anaconda/envs/py35/share/psi4/basis/aug-cc-pvtz-jkfit.gbs 
    atoms 12    entry N          line   223 file /cbio/jclab/home/chayas/anaconda/envs/py35/share/psi4/basis/aug-cc-pvtz-jkfit.gbs 
    atoms 13    entry F          line   347 file /cbio/jclab/home/chayas/anaconda/envs/py35/share/psi4/basis/aug-cc-pvtz-jkfit.gbs 
    atoms 14-21 entry H          line    69 file /cbio/jclab/home/chayas/anaconda/envs/py35/share/psi4/basis/aug-cc-pvtz-jkfit.gbs 

  Reading orbitals from file 180, no projection.

  ==> Pre-Iterations <==

   -------------------------------------------------------
    Irrep   Nso     Nmo     Nalpha   Nbeta   Ndocc  Nsocc
   -------------------------------------------------------
     A        782     782       0       0       0       0
   -------------------------------------------------------
    Total     782     782      45      45      45       0
   -------------------------------------------------------

  ==> Integral Setup <==

  ==> DFJK: Density-Fitted J/K Matrices <==

    J tasked:                  Yes
    K tasked:                  Yes
    wK tasked:                  No
    OpenMP threads:              8
    Integrals threads:           8
    Memory (MB):              3576
    Algorithm:                Disk
    Integral Cache:           NONE
    Schwarz Cutoff:          1E-12
    Fitting Condition:       1E-12

   => Auxiliary Basis Set <=

  Basis Set: (AUG-CC-PVTZ AUX)
    Blend: AUG-CC-PVTZ-JKFIT
    Number of shells: 502
    Number of basis function: 1720
    Number of Cartesian functions: 2143
    Spherical Harmonics?: true
    Max angular momentum: 4

  Minimum eigenvalue in the overlap matrix is 3.8685032560E-07.
  Using Symmetric Orthogonalization.

  SCF Guess: Orbitals guess was supplied from a previous computation.

  ==> Iterations <==

                           Total Energy        Delta E     RMS |[F,P]|

   @DF-RHF iter   0:  -575.27299070331867   -5.75273e+02   4.22966e-04 
   @DF-RHF iter   1:  -575.26538773063976    7.60297e-03   4.78693e-05 
   @DF-RHF iter   2:  -575.26571456165868   -3.26831e-04   1.92309e-05 DIIS
   @DF-RHF iter   3:  -575.26575964380322   -4.50821e-05   1.02390e-05 DIIS
   @DF-RHF iter   4:  -575.26577082187600   -1.11781e-05   3.92876e-06 DIIS
   @DF-RHF iter   5:  -575.26577256551582   -1.74364e-06   1.36007e-06 DIIS
   @DF-RHF iter   6:  -575.26577287450095   -3.08985e-07   3.65032e-07 DIIS
   @DF-RHF iter   7:  -575.26577290644730   -3.19463e-08   1.11158e-07 DIIS
   @DF-RHF iter   8:  -575.26577291118383   -4.73653e-09   6.10736e-08 DIIS
   @DF-RHF iter   9:  -575.26577291231047   -1.12664e-09   2.75732e-08 DIIS
   @DF-RHF iter  10:  -575.26577291255990   -2.49429e-10   8.21256e-09 DIIS
   @DF-RHF iter  11:  -575.26577291255626    3.63798e-12   3.58813e-09 DIIS
   @DF-RHF iter  12:  -575.26577291256672   -1.04592e-11   1.15650e-09 DIIS
   @DF-RHF iter  13:  -575.26577291255944    7.27596e-12   3.80421e-10 DIIS
   @DF-RHF iter  14:  -575.26577291255398    5.45697e-12   1.51738e-10 DIIS
   @DF-RHF iter  15:  -575.26577291256979   -1.58025e-11   8.02011e-11 DIIS

  ==> Post-Iterations <==

    Orbital Energies (a.u.)
    -----------------------

    Doubly Occupied:                                                      

       1A    -26.332005     2A    -15.561670     3A    -11.345803  
       4A    -11.272634     5A    -11.269466     6A    -11.265124  
       7A    -11.263729     8A    -11.260929     9A    -11.260130  
      10A    -11.258723    11A    -11.253140    12A    -11.238312  
      13A    -11.226073    14A     -1.657519    15A     -1.247538  
      16A     -1.186074    17A     -1.114026    18A     -1.040216  
      19A     -1.031095    20A     -1.026536    21A     -0.894725  
      22A     -0.878715    23A     -0.846471    24A     -0.824776  
      25A     -0.762349    26A     -0.738431    27A     -0.720535  
      28A     -0.719381    29A     -0.673391    30A     -0.662130  
      31A     -0.649915    32A     -0.626142    33A     -0.608155  
      34A     -0.590310    35A     -0.581622    36A     -0.552183  
      37A     -0.542207    38A     -0.523985    39A     -0.517329  
      40A     -0.497669    41A     -0.417199    42A     -0.415071  
      43A     -0.356006    44A     -0.345729    45A     -0.321980  

    Virtual:                                                              

      46A      0.022646    47A      0.028533    48A      0.033752  
      49A      0.040453    50A      0.043540    51A      0.052469  
      52A      0.058130    53A      0.060317    54A      0.074235  
      55A      0.078442    56A      0.085046    57A      0.086703  
      58A      0.090711    59A      0.091531    60A      0.098959  
      61A      0.102816    62A      0.107437    63A      0.109538  
      64A      0.113572    65A      0.113983    66A      0.116728  
      67A      0.117877    68A      0.129401    69A      0.131343  
[...]
	 B(12,7,20)       =         2.010658	     115.202238
	 B(12,8,21)       =         2.010975	     115.220389
	 B(20,12,21)      =         3.008794	     172.391179
	 D(1,2,4,11)      =        -0.029224	      -1.674405
	 D(1,2,4,17)      =         3.095875	     177.380560
	 D(1,3,9,10)      =        -3.005669	    -172.212150
	 D(1,3,9,11)      =        -0.126796	      -7.264881
	 D(2,1,3,9)       =         0.052690	       3.018929
	 D(2,1,3,16)      =        -3.099352	    -177.579812
	 D(2,4,11,9)      =        -0.049972	      -2.863208
	 D(2,4,11,13)     =         3.101805	     177.720331
	 D(3,1,2,4)       =         0.027352	       1.567139
	 D(3,1,2,15)      =         3.132031	     179.452137
	 D(3,9,10,5)      =         2.446910	     140.197621
	 D(3,9,10,6)      =        -0.429492	     -24.608106
	 D(3,9,11,4)      =         0.125804	       7.208053
	 D(3,9,11,13)     =        -3.025871	    -173.369629
	 D(4,2,1,14)      =        -3.095676	    -177.369151
	 D(4,11,9,10)     =         3.013473	     172.659263
	 D(4,11,13,18)    =        -2.496721	    -143.051588
	 D(5,7,12,8)      =         0.026020	       1.490854
	 D(5,7,12,20)     =         3.120821	     178.809890
	 D(5,7,12,21)     =         0.066792	       3.826902
	 D(5,7,20,12)     =        -3.121645	    -178.857100
	 D(5,10,6,8)      =         0.127673	       7.315120
	 D(5,10,6,19)     =        -3.025374	    -173.341138
	 D(5,10,9,11)     =        -0.428008	     -24.523042
	 D(5,18,13,11)    =        -0.930655	     -53.322596
	 D(6,8,12,7)      =        -0.025435	      -1.457316
	 D(6,8,12,20)     =        -0.063858	      -3.658815
	 D(6,8,12,21)     =        -3.117137	    -178.598811
	 D(6,8,21,12)     =         3.118122	     178.655213
	 D(6,10,5,7)      =        -0.126945	      -7.273421
	 D(6,10,5,18)     =         3.027189	     173.445180
	 D(6,10,9,11)     =         2.978775	     170.671230
	 D(7,5,10,9)      =        -3.015513	    -172.776173
	 D(7,5,18,13)     =        -2.640355	    -151.281179
	 D(7,12,8,21)     =         3.091702	     177.141495
	 D(7,12,21,8)     =        -0.076975	      -4.410343
	 D(7,20,12,8)     =         0.072344	       4.145032
	 D(7,20,12,21)    =         0.395646	      22.668829
	 D(8,6,10,9)      =         3.010467	     172.487058
	 D(8,12,7,20)     =        -3.094801	    -177.319036
	 D(8,21,12,20)    =        -0.398314	     -22.821726
	 D(9,3,1,14)      =        -3.107458	    -178.044255
	 D(9,10,5,18)     =         0.138622	       7.942427
	 D(9,10,6,19)     =        -0.142579	      -8.169200
	 D(9,11,4,17)     =         3.108055	     178.078432
	 D(9,11,13,18)    =         0.654716	      37.512479
	 D(10,5,7,12)     =         0.051946	       2.976287
	 D(10,5,7,20)     =        -3.111474	    -178.274337
	 D(10,5,18,13)    =         0.488669	      27.998672
	 D(10,6,8,12)     =        -0.053516	      -3.066225
	 D(10,6,8,21)     =         3.113762	     178.405401
	 D(10,9,3,16)     =         0.146580	       8.398416
	 D(10,9,11,13)    =        -0.138202	      -7.918420
	 D(11,4,2,15)     =        -3.133879	    -179.558057
	 D(11,9,3,16)     =         3.025453	     173.345685
	 D(12,7,5,18)     =        -3.101871	    -177.724137
	 D(12,8,6,19)     =         3.099353	     177.579826
	 D(13,11,4,17)    =        -0.023353	      -1.338029
	 D(14,1,2,15)     =         0.009003	       0.515847
	 D(14,1,3,16)     =         0.023684	       1.357004
	 D(15,2,4,17)     =        -0.008781	      -0.503092
	 D(18,5,7,20)     =         0.017894	       1.025238
	 D(19,6,8,21)     =        -0.016555	      -0.948548
	 D(20,7,12,21)    =        -3.054029	    -174.982988
	 D(20,12,8,21)    =         3.053279	     174.939995

	Adding user-defined constraint: Fragment 1; Coordinate 67:
		Value =     2.446910; Fixed value    =    -3.141575
		Force =    -2.794243; Force constant =     0.500000
	Removing off-diagonal coupling between coordinate 67 and others.
	Taking RFO optimization step.
	Going to follow RFO solution 1.
	Using RFO vector 1.

	Determining step-restricting scale parameter for RS-RFO.
	Maximum step size allowed    0.10000

	 Iter      |step|        alpha        rfo_root  
	------------------------------------------------
	    0     0.95849       1.00000           1
	    1     0.57568       2.86755           1
	    2     0.35415       7.72675           1
	    3     0.22717      18.99006           1
	    4     0.15611      40.46527           1
	    5     0.11910      69.75677           1
	    6     0.10364      92.24704           1
	    7     0.10018      98.75374           1
	    8     0.10000      99.11275           1
	------------------------------------------------
	Norm of target step-size    0.10000
	Projected energy change by RFO approximation:        -0.1052655263

	Back-transformation to cartesian coordinates...
	Successfully converged to displaced geometry.

	--- Internal Coordinate Step in ANG or DEG, aJ/ANG or AJ/DEG ---
	 ---------------------------------------------------------------------------
	   Coordinate                Previous        Force       Change         New 
	   ----------                --------       ------       ------       ------
	    1 R(1,2)          =      1.390750    -0.072213    -0.000433     1.390317
	    2 R(1,3)          =      1.393650    -0.173328    -0.000997     1.392652
	    3 R(1,14)         =      1.088251    -0.015919    -0.000092     1.088160
	    4 R(2,4)          =      1.391286    -0.049099    -0.000296     1.390989
	    5 R(2,15)         =      1.085288    -0.034619    -0.000207     1.085081
	    6 R(3,9)          =      1.404355    -0.210131    -0.001109     1.403246
	    7 R(3,16)         =      1.086610     0.055516     0.000329     1.086939
	    8 R(4,11)         =      1.391047    -0.001199     0.000013     1.391060
	    9 R(4,17)         =      1.085200     0.013856     0.000088     1.085288
	   10 R(5,7)          =      1.386711    -0.063518    -0.000355     1.386356
	   11 R(5,10)         =      1.402302    -0.231946    -0.001238     1.401065
	   12 R(5,18)         =      1.081653    -0.030350    -0.000173     1.081481
	   13 R(6,8)          =      1.385506     0.003443     0.000035     1.385541
	   14 R(6,10)         =      1.396022     0.562109     0.003302     1.399324
	   15 R(6,19)         =      1.085891     0.133043     0.000793     1.086684
	   16 R(7,12)         =      1.345320    -0.074774    -0.000444     1.344876
	   17 R(7,20)         =      1.088519    -0.009970    -0.000056     1.088463
	   18 R(8,12)         =      1.346920    -0.089922    -0.000534     1.346385
	   19 R(8,21)         =      1.085292     0.026198     0.000160     1.085452
	   20 R(9,10)         =      1.446849    -0.131623    -0.000675     1.446174
	   21 R(9,11)         =      1.389481     0.559951     0.003288     1.392769
	   22 R(11,13)        =      1.342446     0.150535     0.000886     1.343332
	   23 B(1,2,4)        =    119.537600    -0.000313    -0.023101   119.514500
	   24 B(1,2,15)       =    120.182916    -0.000027    -0.001689   120.181227
	   25 B(1,3,9)        =    121.133271     0.002747     0.186186   121.319457
	   26 B(1,3,16)       =    118.439083     0.000199     0.011766   118.450849
	   27 B(2,1,3)        =    119.987719    -0.000074    -0.005721   119.981998
	   28 B(2,1,14)       =    120.026413     0.000335     0.023449   120.049862
	   29 B(2,4,11)       =    119.729711    -0.000635    -0.044817   119.684894
	   30 B(2,4,17)       =    120.309381     0.000006    -0.000145   120.309236
	   31 B(3,1,14)       =    119.977321    -0.000255    -0.017347   119.959974
	   32 B(3,9,10)       =    122.112630     0.008276     0.568758   122.681388
	   33 B(3,9,11)       =    117.308667    -0.004813    -0.344923   116.963744
	   34 B(4,2,15)       =    120.245497     0.000273     0.019785   120.265282
	   35 B(4,11,9)       =    121.878085     0.001210     0.087001   121.965086
	   36 B(4,11,13)      =    119.579696    -0.000714    -0.052473   119.527223
	   37 B(5,7,12)       =    124.220037     0.000195     0.013437   124.233474
	   38 B(5,7,20)       =    120.566985    -0.000423    -0.028855   120.538130
	   39 B(5,10,6)       =    117.039709    -0.004074    -0.293678   116.746031
	   40 B(5,10,9)       =    119.574823     0.008038     0.554098   120.128921
	   41 B(6,8,12)       =    124.237069    -0.000531    -0.037536   124.199532
	   42 B(6,8,21)       =    120.527666     0.000423     0.030622   120.558287
	   43 B(6,10,9)       =    121.708915    -0.008170    -0.572343   121.136571
	   44 B(7,5,10)       =    119.020319     0.001895     0.127225   119.147544
	   45 B(7,5,18)       =    119.241678     0.000096     0.004765   119.246443
	   46 B(7,12,8)       =    115.866833    -0.000253    -0.019322   115.847511
	   47 B(8,6,10)       =    119.175870     0.000897     0.065549   119.241418
	   48 B(8,6,19)       =    119.645481    -0.001225    -0.088321   119.557161
	   49 B(9,3,16)       =    120.424915    -0.003085    -0.216550   120.208366
	   50 B(9,11,13)      =    118.539720    -0.000487    -0.033998   118.505722
	   51 B(10,5,18)      =    121.734162    -0.002157    -0.152842   121.581320
	   52 B(10,6,19)      =    121.175419     0.000331     0.022961   121.198380
	   53 B(10,9,11)      =    118.874815    -0.007990    -0.560268   118.314547
	   54 B(11,4,17)      =    119.954165     0.000653     0.046505   120.000669
	   55 B(12,7,20)      =    115.202238     0.000246     0.016605   115.218842
	   56 B(12,8,21)      =    115.220389     0.000139     0.009098   115.229487
	   57 D(1,2,4,11)     =     -1.674405    -0.001291    -0.398991    -2.073396
	   58 D(1,2,4,17)     =    177.380560    -0.000918    -0.283459   177.097101
	   59 D(1,3,9,10)     =   -172.212150     0.000499     0.161274  -172.050877
	   60 D(1,3,9,11)     =     -7.264881    -0.004295    -1.326141    -8.591022
	   61 D(2,1,3,9)      =      3.018929     0.002913     0.902881     3.921810
	   62 D(2,1,3,16)     =   -177.579812    -0.000573    -0.175280  -177.755091
	   63 D(2,4,11,9)     =     -2.863208    -0.000307    -0.095375    -2.958583
	   64 D(2,4,11,13)    =    177.720331    -0.000524    -0.160756   177.559575
	   65 D(3,1,2,4)      =      1.567139     0.000030     0.009768     1.576906
	   66 D(3,1,2,15)     =    179.452137    -0.000453    -0.140112   179.312024
	   67 D(3,9,10,5)     =    140.197621    -0.007089    -2.203198   137.994423
	   68 D(3,9,10,6)     =    -24.608106    -0.002676    -0.835069   -25.443175
	   69 D(3,9,11,4)     =      7.208053     0.002998     0.923996     8.132049
	   70 D(3,9,11,13)    =   -173.369629     0.003212     0.988620  -172.381009
	   71 D(4,2,1,14)     =   -177.369151    -0.000049    -0.014069  -177.383220
	   72 D(4,11,9,10)    =    172.659263    -0.001057    -0.321356   172.337907
	   73 D(5,7,12,8)     =      1.490854     0.000009     0.003187     1.494042
	   74 D(5,10,6,8)     =      7.315120     0.002960     0.912989     8.228109
	   75 D(5,10,6,19)    =   -173.341138     0.003027     0.931953  -172.409185
	   76 D(5,10,9,11)    =    -24.523042    -0.002340    -0.730890   -25.253932
	   77 D(6,8,12,7)     =     -1.457316    -0.001287    -0.397833    -1.855149
	   78 D(6,10,5,7)     =     -7.273421    -0.004131    -1.275347    -8.548767
	   79 D(6,10,5,18)    =    173.445180    -0.000558    -0.172362   173.272818
	   80 D(6,10,9,11)    =    170.671230     0.002073     0.637239   171.308470
	   81 D(7,5,10,9)     =   -172.776173     0.000247     0.083689  -172.692484
	   82 D(7,12,8,21)    =    177.141495    -0.000941    -0.290458   176.851037
	   83 D(8,6,10,9)     =    172.487058    -0.000939    -0.285678   172.201379
	   84 D(8,12,7,20)    =   -177.319036    -0.000212    -0.064183  -177.383219
	   85 D(9,3,1,14)     =   -178.044255     0.002994     0.927133  -177.117122
	   86 D(9,10,5,18)    =      7.942427     0.003820     1.186674     9.129101
	   87 D(9,10,6,19)    =     -8.169200    -0.000872    -0.266715    -8.435914
	   88 D(9,11,4,17)    =    178.078432    -0.000678    -0.210103   177.868328
	   89 D(10,5,7,12)    =      2.976287     0.002823     0.874509     3.850796
	   90 D(10,5,7,20)    =   -178.274337     0.003056     0.945817  -177.328520
	   91 D(10,6,8,12)    =     -3.066225    -0.000271    -0.084169    -3.150393
	   92 D(10,6,8,21)    =    178.405401    -0.000634    -0.196616   178.208785
	   93 D(10,9,3,16)    =      8.398416     0.004048     1.256771     9.655188
	   94 D(10,9,11,13)   =     -7.918420    -0.000842    -0.256732    -8.175151
	   95 D(11,4,2,15)    =   -179.558057    -0.000806    -0.248519  -179.806577
	   96 D(11,9,3,16)    =    173.345685    -0.000746    -0.230643   173.115042
	   97 D(12,7,5,18)    =   -177.724137    -0.000664    -0.203571  -177.927708
	   98 D(12,8,6,19)    =    177.579826    -0.000339    -0.103539   177.476288
	   99 D(13,11,4,17)   =     -1.338029    -0.000895    -0.275485    -1.613514
	  100 D(14,1,2,15)    =      0.515847    -0.000533    -0.163949     0.351898
	  101 D(14,1,3,16)    =      1.357004    -0.000491    -0.151028     1.205976
	  102 D(15,2,4,17)    =     -0.503092    -0.000433    -0.132987    -0.636079
	  103 D(18,5,7,20)    =      1.025238    -0.000430    -0.132263     0.892975
	  104 D(19,6,8,21)    =     -0.948548    -0.000702    -0.215987    -1.164535
	  105 R(5,13)         =      2.522629     0.455784     0.002755     2.525383
	  106 R(1,X)          =     -1.238533     0.221058     0.001333    -1.237200
	  107 R(1,Y)          =      1.184535     0.630501     0.003805     1.188341
	  108 R(1,Z)          =     -2.607028     0.214534     0.001302    -2.605726
	  109 R(2,X)          =     -2.392811    -0.020467    -0.000127    -2.392938
	  110 R(2,Y)          =      1.584398     0.033552     0.000199     1.584598
	  111 R(2,Z)          =     -1.942243     0.003159     0.000017    -1.942227
	  112 R(3,X)          =     -0.258712     0.279158     0.001705    -0.257007
	  113 R(3,Y)          =      0.462178     1.086161     0.006534     0.468712
	  114 R(3,Z)          =     -1.928493     0.259724     0.001617    -1.926876
	  115 R(4,X)          =     -2.544596    -0.043224    -0.000248    -2.544843
	  116 R(4,Y)          =      1.286545    -0.169679    -0.001028     1.285517
	  117 R(4,Z)          =     -0.591717    -0.094802    -0.000573    -0.592291
	  118 R(5,X)          =      0.784140     0.699247     0.004209     0.788349
	  119 R(5,Y)          =     -0.175715     0.966579     0.005834    -0.169880
	  120 R(5,Z)          =      1.530269    -0.244798    -0.001525     1.528744
	  121 R(6,X)          =      1.678226    -0.625643    -0.003795     1.674432
	  122 R(6,Y)          =     -1.213780    -0.764509    -0.004598    -1.218379
	  123 R(6,Z)          =     -0.423773     0.469258     0.002842    -0.420931
	  124 R(7,X)          =      1.892416     0.440066     0.002653     1.895069
	  125 R(7,Y)          =     -0.642157     0.587301     0.003545    -0.638612
	  126 R(7,Z)          =      2.221010    -0.212581    -0.001291     2.219719
	  127 R(8,X)          =      2.745908    -0.102764    -0.000629     2.745279
	  128 R(8,Y)          =     -1.634715    -0.096694    -0.000575    -1.635290
	  129 R(8,Z)          =      0.352434     0.118332     0.000712     0.353147
	  130 R(9,X)          =     -0.439834    -0.386500    -0.002408    -0.442242
	  131 R(9,Y)          =      0.071160    -2.074791    -0.012528     0.058632
	  132 R(9,Z)          =     -0.591888    -0.975983    -0.005844    -0.597733
	  133 R(10,X)         =      0.622254    -1.522008    -0.009153     0.613101
	  134 R(10,Y)         =     -0.532022    -1.369567    -0.008332    -0.540354
	  135 R(10,Z)         =      0.183685     0.881932     0.005276     0.188961
	  136 R(11,X)         =     -1.558138    -0.336402    -0.002005    -1.560143
	  137 R(11,Y)         =      0.562805    -0.970613    -0.005866     0.556939
	  138 R(11,Z)         =      0.070184    -0.536149    -0.003242     0.066942
	  139 R(12,X)         =      2.872672     0.046633     0.000284     2.872956
	  140 R(12,Y)         =     -1.379853     0.054782     0.000324    -1.379529
	  141 R(12,Z)         =      1.668933    -0.017377    -0.000097     1.668836
	  142 R(13,X)         =     -1.685632    -0.102603    -0.000610    -1.686242
	  143 R(13,Y)         =      0.316627    -0.741906    -0.004477     0.312150
	  144 R(13,Z)         =      1.383692    -0.316740    -0.001943     1.381750
	  145 R(14,X)         =     -1.092228     0.332969     0.002018    -1.090210
	  146 R(14,Y)         =      1.450360     0.703508     0.004260     1.454620
	  147 R(14,Z)         =     -3.652123     0.265347     0.001609    -3.650514
	  148 R(15,X)         =     -3.153843     0.024357     0.000142    -3.153702
	  149 R(15,Y)         =      2.154691     0.053601     0.000323     2.155014
	  150 R(15,Z)         =     -2.465164     0.031639     0.000190    -2.464974
	  151 R(16,X)         =      0.650628     0.357017     0.002173     0.652801
	  152 R(16,Y)         =      0.197083     1.082601     0.006551     0.203634
	  153 R(16,Z)         =     -2.460983     0.281170     0.001737    -2.459246
	  154 R(17,X)         =     -3.420509     0.084730     0.000524    -3.419985
	  155 R(17,Y)         =      1.629191     0.013048     0.000075     1.629266
	  156 R(17,Z)         =     -0.050395     0.024356     0.000151    -0.050245
	  157 R(18,X)         =      0.062073     0.729286     0.004405     0.066478
	  158 R(18,Y)         =      0.442980     0.934917     0.005671     0.448651
	  159 R(18,Z)         =      2.045836    -0.228408    -0.001417     2.044419
	  160 R(19,X)         =      1.670897    -0.477777    -0.002896     1.668001
	  161 R(19,Y)         =     -1.427598    -0.688345    -0.004144    -1.431742
	  162 R(19,Z)         =     -1.488380     0.317240     0.001937    -1.486443
	  163 R(20,X)         =      2.028625     0.395439     0.002391     2.031016
	  164 R(20,Y)         =     -0.404239     0.604354     0.003662    -0.400577
	  165 R(20,Z)         =      3.274440    -0.220965    -0.001341     3.273099
	  166 R(21,X)         =      3.566147     0.007428     0.000035     3.566182
	  167 R(21,Y)         =     -2.188982     0.125200     0.000763    -2.188219
	  168 R(21,Z)         =     -0.092375    -0.018888    -0.000118    -0.092493
	 ---------------------------------------------------------------------------
	Successfully symmetrized geometry.
	 Forces used to impose fixed constraints are not included.
	  Forces zeroed: 67 

  ==> Convergence Check <==

  Measures of convergence in internal coordinates in au.
  Criteria marked as inactive (o), active & met (*), and active & unmet ( ).
  --------------------------------------------------------------------------------------------- ~
   Step     Total Energy     Delta E     MAX Force     RMS Force      MAX Disp      RMS Disp    ~
  --------------------------------------------------------------------------------------------- ~
    Convergence Criteria    1.00e-06 *    3.00e-04 *             o    1.20e-03 *             o  ~
  --------------------------------------------------------------------------------------------- ~
      1    -577.71467974   -5.78e+02      2.52e-01      7.57e-02 o    3.85e-02      7.71e-03 o  ~
  ---------------------------------------------------------------------------------------------

	Writing optimization data to binary file.
	
Fatal Error: PSIO Error
Error occurred in file: /scratch/psilocaluser/conda-builds/psi4_1495011512596/work/psi4/src/psi4/libpsio/error.cc on line: 129
The most recent 5 function calls were:

psi::PsiException::PsiException(std::__cxx11::basic_string<char, std::char_traits<char>, std::allocator<char> >, char const*, int)
psi::psio_error(unsigned int, unsigned int)
psi::PSIO::write(unsigned int, char const*, char*, unsigned long, psi::psio_address, psi::psio_address*)
psi::PSIO::write_entry(unsigned int, char const*, char*, unsigned long)
psi::psio_write_entry(unsigned int, char const*, char*, unsigned long)
