
    -----------------------------------------------------------------------
          Psi4: An Open-Source Ab Initio Electronic Structure Package
                               Psi4 1.1 release

                         Git: Rev {HEAD} add49b9 


    R. M. Parrish, L. A. Burns, D. G. A. Smith, A. C. Simmonett,
    A. E. DePrince III, E. G. Hohenstein, U. Bozkaya, A. Yu. Sokolov,
    R. Di Remigio, R. M. Richard, J. F. Gonthier, A. M. James,
    H. R. McAlexander, A. Kumar, M. Saitow, X. Wang, B. P. Pritchard,
    P. Verma, H. F. Schaefer III, K. Patkowski, R. A. King, E. F. Valeev,
    F. A. Evangelista, J. M. Turney, T. D. Crawford, and C. D. Sherrill,
    J. Chem. Theory Comput. in press (2017).
    (doi: 10.1021/acs.jctc.7b00174)

    -----------------------------------------------------------------------


    Psi4 started on: Sunday, 12 November 2017 05:23AM

    Process ID:  25225
    PSIDATADIR: /cbio/jclab/home/chayas/anaconda/envs/py35/share/psi4
    Memory:     500.0 MiB
    Threads:    8
    
  ==> Input File <==

--------------------------------------------------------------------------

memory 5 Gb

molecule phepyrOH_anion {
  symmetry C1
  -1 1 
  C      1.885   -1.036   -0.112
  C      2.878   -1.652   2.002
  C      0.807   -0.463   0.561
  C      1.800   -1.079   2.676
  C      4.641   -1.552   -1.148
  C      4.519   -3.473   0.295
  C      5.710   -2.164   -1.782
  C      5.593   -3.999   -0.405
  C      2.921   -1.631   0.608
  C      4.040   -2.226   -0.090
  C      0.764   -0.484   1.955
  N      6.203   -3.374   -1.437
  O      -0.227   0.042   2.574
  H      1.904   -1.011   -1.199
  H      3.678   -2.112   2.577
  H      0.011   -0.006   -0.025
  H      1.791   -1.108   3.764
  H      4.296   -0.577   -1.476
  H      4.075   -4.028   1.115
  H      6.215   -1.679   -2.612
  H      6.004   -4.969   -0.144
  units Angstrom
}

dih_string = "1 9 10 5 45"
set optking fixed_dihedral = $dih_string

optimize('MP2/aug-cc-PVTZ')
--------------------------------------------------------------------------

  Memory set to   4.657 GiB by Python driver.
gradient() will perform analytic gradient computation.

*** tstart() called on gpu-2-5.local
*** at Sun Nov 12 05:23:16 2017

    SCF Algorithm Type (re)set to DF.

*** tstart() called on gpu-2-5.local
*** at Sun Nov 12 05:23:16 2017

   => Loading Basis Set <=

    Name: AUG-CC-PVTZ
    Role: ORBITAL
    Keyword: BASIS
    atoms 1-11  entry C          line   221 file /cbio/jclab/home/chayas/anaconda/envs/py35/share/psi4/basis/aug-cc-pvtz.gbs 
    atoms 12    entry N          line   267 file /cbio/jclab/home/chayas/anaconda/envs/py35/share/psi4/basis/aug-cc-pvtz.gbs 
    atoms 13    entry O          line   313 file /cbio/jclab/home/chayas/anaconda/envs/py35/share/psi4/basis/aug-cc-pvtz.gbs 
    atoms 14-21 entry H          line    34 file /cbio/jclab/home/chayas/anaconda/envs/py35/share/psi4/basis/aug-cc-pvtz.gbs 


         ---------------------------------------------------------
                                   SCF
            by Justin Turney, Rob Parrish, and Andy Simmonett
                              RHF Reference
                        8 Threads,   4768 MiB Core
         ---------------------------------------------------------

  ==> Geometry <==

    Molecular point group: c1
    Full point group: C1

    Geometry (in Angstrom), charge = -1, multiplicity = 1:

       Center              X                  Y                   Z               Mass       
    ------------   -----------------  -----------------  -----------------  -----------------
           C         -1.279278822161     0.723924489233    -0.569390765620    12.000000000000
           C         -0.286278822161     0.107924489233     1.544609234380    12.000000000000
           C         -2.357278822161     1.296924489233     0.103609234380    12.000000000000
           C         -1.364278822161     0.680924489233     2.218609234380    12.000000000000
           C          1.476721177839     0.207924489233    -1.605390765620    12.000000000000
           C          1.354721177839    -1.713075510767    -0.162390765620    12.000000000000
           C          2.545721177839    -0.404075510767    -2.239390765620    12.000000000000
           C          2.428721177839    -2.239075510767    -0.862390765620    12.000000000000
           C         -0.243278822161     0.128924489233     0.150609234380    12.000000000000
           C          0.875721177839    -0.466075510767    -0.547390765620    12.000000000000
           C         -2.400278822161     1.275924489233     1.497609234380    12.000000000000
           N          3.038721177839    -1.614075510767    -1.894390765620    14.003074004780
           O         -3.391278822161     1.801924489233     2.116609234380    15.994914619560
           H         -1.260278822161     0.748924489233    -1.656390765620     1.007825032070
           H          0.513721177839    -0.352075510767     2.119609234380     1.007825032070
           H         -3.153278822161     1.753924489233    -0.482390765620     1.007825032070
           H         -1.373278822161     0.651924489233     3.306609234380     1.007825032070
           H          1.131721177839     1.182924489233    -1.933390765620     1.007825032070
           H          0.910721177839    -2.268075510767     0.657609234380     1.007825032070
           H          3.050721177839     0.080924489233    -3.069390765620     1.007825032070
           H          2.839721177839    -3.209075510767    -0.601390765620     1.007825032070

  Running in c1 symmetry.

  Rotational constants: A =      0.09733  B =      0.01378  C =      0.01252 [cm^-1]
  Rotational constants: A =   2917.80015  B =    413.03722  C =    375.42510 [MHz]
  Nuclear repulsion =  686.466614271693174

  Charge       = -1
  Multiplicity = 1
  Electrons    = 90
  Nalpha       = 45
  Nbeta        = 45

  ==> Algorithm <==

  SCF Algorithm Type is DF.
  DIIS enabled.
  MOM disabled.
  Fractional occupation disabled.
  Guess Type is SAD.
  Energy threshold   = 1.00e-10
  Density threshold  = 1.00e-10
  Integral threshold = 0.00e+00

  ==> Primary Basis <==

  Basis Set: AUG-CC-PVTZ
    Blend: AUG-CC-PVTZ
    Number of shells: 254
    Number of basis function: 782
    Number of Cartesian functions: 915
    Spherical Harmonics?: true
    Max angular momentum: 3

   => Loading Basis Set <=

    Name: (AUG-CC-PVTZ AUX)
    Role: JKFIT
    Keyword: DF_BASIS_SCF
    atoms 1-11  entry C          line   161 file /cbio/jclab/home/chayas/anaconda/envs/py35/share/psi4/basis/aug-cc-pvtz-jkfit.gbs 
    atoms 12    entry N          line   223 file /cbio/jclab/home/chayas/anaconda/envs/py35/share/psi4/basis/aug-cc-pvtz-jkfit.gbs 
    atoms 13    entry O          line   285 file /cbio/jclab/home/chayas/anaconda/envs/py35/share/psi4/basis/aug-cc-pvtz-jkfit.gbs 
    atoms 14-21 entry H          line    69 file /cbio/jclab/home/chayas/anaconda/envs/py35/share/psi4/basis/aug-cc-pvtz-jkfit.gbs 

  ==> Pre-Iterations <==

   -------------------------------------------------------
    Irrep   Nso     Nmo     Nalpha   Nbeta   Ndocc  Nsocc
   -------------------------------------------------------
     A        782     782       0       0       0       0
   -------------------------------------------------------
    Total     782     782      45      45      45       0
   -------------------------------------------------------

  ==> Integral Setup <==

  ==> DFJK: Density-Fitted J/K Matrices <==

    J tasked:                  Yes
    K tasked:                  Yes
    wK tasked:                  No
    OpenMP threads:              8
    Integrals threads:           8
    Memory (MB):              3576
    Algorithm:                Disk
    Integral Cache:           NONE
    Schwarz Cutoff:          1E-12
    Fitting Condition:       1E-12

   => Auxiliary Basis Set <=

  Basis Set: (AUG-CC-PVTZ AUX)
    Blend: AUG-CC-PVTZ-JKFIT
    Number of shells: 502
    Number of basis function: 1720
    Number of Cartesian functions: 2143
    Spherical Harmonics?: true
    Max angular momentum: 4

  Minimum eigenvalue in the overlap matrix is 7.1578966777E-07.
  Using Symmetric Orthogonalization.

  SCF Guess: Superposition of Atomic Densities via on-the-fly atomic UHF.

  ==> Iterations <==

                           Total Energy        Delta E     RMS |[F,P]|

   @DF-RHF iter   0:  -560.89698413070107   -5.60897e+02   2.32030e-02 
   @DF-RHF iter   1:  -550.26285140400364    1.06341e+01   2.66401e-03 
   @DF-RHF iter   2:  -550.58249402811862   -3.19643e-01   1.31732e-03 DIIS
   @DF-RHF iter   3:  -550.68612537082151   -1.03631e-01   4.36833e-04 DIIS
   @DF-RHF iter   4:  -550.71134356513471   -2.52182e-02   1.45442e-04 DIIS
   @DF-RHF iter   5:  -550.71435265024468   -3.00909e-03   7.58254e-05 DIIS
   @DF-RHF iter   6:  -550.71493086030262   -5.78210e-04   2.59819e-05 DIIS
   @DF-RHF iter   7:  -550.71502954000471   -9.86797e-05   9.29981e-06 DIIS
   @DF-RHF iter   8:  -550.71504273525295   -1.31952e-05   3.09601e-06 DIIS
   @DF-RHF iter   9:  -550.71504567548561   -2.94023e-06   1.37482e-06 DIIS
   @DF-RHF iter  10:  -550.71504665897942   -9.83494e-07   6.80765e-07 DIIS
   @DF-RHF iter  11:  -550.71504686049343   -2.01514e-07   2.17054e-07 DIIS
   @DF-RHF iter  12:  -550.71504688226878   -2.17753e-08   9.03702e-08 DIIS
   @DF-RHF iter  13:  -550.71504688529672   -3.02794e-09   4.42178e-08 DIIS
   @DF-RHF iter  14:  -550.71504688608979   -7.93079e-10   1.70522e-08 DIIS
   @DF-RHF iter  15:  -550.71504688623418   -1.44382e-10   6.88884e-09 DIIS
   @DF-RHF iter  16:  -550.71504688625237   -1.81899e-11   2.87587e-09 DIIS
   @DF-RHF iter  17:  -550.71504688624839    3.97904e-12   1.39350e-09 DIIS
   @DF-RHF iter  18:  -550.71504688625430   -5.91172e-12   5.46691e-10 DIIS
   @DF-RHF iter  19:  -550.71504688626726   -1.29603e-11   2.34397e-10 DIIS
   @DF-RHF iter  20:  -550.71504688624555    2.17142e-11   1.38850e-10 DIIS
   @DF-RHF iter  21:  -550.71504688625521   -9.66338e-12   4.87391e-11 DIIS

  ==> Post-Iterations <==

    Orbital Energies (a.u.)
    -----------------------

    Doubly Occupied:                                                      

       1A    -20.293563     2A    -15.452921     3A    -11.168977  
       4A    -11.168868     5A    -11.143762     6A    -11.120974  
       7A    -11.120928     8A    -11.112421     9A    -11.098271  
      10A    -11.098247    11A    -11.074010    12A    -11.058896  
      13A    -11.058853    14A     -1.140932    15A     -1.125721  
      16A     -1.018915    17A     -0.957178    18A     -0.925094  
      19A     -0.865851    20A     -0.836994    21A     -0.747382  
      22A     -0.732764    23A     -0.679354    24A     -0.647421  
      25A     -0.595472    26A     -0.552428    27A     -0.543554  
      28A     -0.502039    29A     -0.491989    30A     -0.485517  
      31A     -0.481282    32A     -0.440548    33A     -0.429394  
      34A     -0.411203    35A     -0.406269    36A     -0.376262  
      37A     -0.356944    38A     -0.348780    39A     -0.309852  
      40A     -0.301879    41A     -0.248300    42A     -0.243662  
      43A     -0.211357    44A     -0.196682    45A     -0.105215  

    Virtual:                                                              

      46A      0.098361    47A      0.099517    48A      0.116781  
      49A      0.116850    50A      0.124289    51A      0.127207  
      52A      0.131546    53A      0.133341    54A      0.162536  
      55A      0.166547    56A      0.178821    57A      0.183639  
      58A      0.185764    59A      0.188040    60A      0.188489  
      61A      0.197790    62A      0.198540    63A      0.204607  
      64A      0.205001    65A      0.212216    66A      0.212996  
      67A      0.215097    68A      0.222221    69A      0.224546  
      70A      0.230254    71A      0.231813    72A      0.233285  
      73A      0.237859    74A      0.241026    75A      0.242588  
      76A      0.249499    77A      0.254899    78A      0.256666  
      79A      0.257077    80A      0.267115    81A      0.268594  
      82A      0.278171    83A      0.279271    84A      0.291923  
      85A      0.293818    86A      0.300844    87A      0.312221  
      88A      0.315317    89A      0.320968    90A      0.321577  
      91A      0.325837    92A      0.331846    93A      0.332229  
      94A      0.333722    95A      0.334704    96A      0.347820  
      97A      0.348643    98A      0.350899    99A      0.364090  
     100A      0.365234   101A      0.368588   102A      0.375863  
     103A      0.379943   104A      0.384049   105A      0.387926  
     106A      0.395100   107A      0.397402   108A      0.400852  
     109A      0.408672   110A      0.410663   111A      0.412216  
     112A      0.420136   113A      0.420190   114A      0.427728  
     115A      0.430861   116A      0.434443   117A      0.440896  
     118A      0.442772   119A      0.446941   120A      0.463537  
     121A      0.467871   122A      0.468620   123A      0.473241  
     124A      0.474075   125A      0.477217   126A      0.487316  
     127A      0.488685   128A      0.500627   129A      0.509411  
     130A      0.511966   131A      0.512315   132A      0.516868  
     133A      0.532551   134A      0.536662   135A      0.544064  
     136A      0.546573   137A      0.549858   138A      0.557898  
     139A      0.559903   140A      0.566361   141A      0.567304  
     142A      0.569408   143A      0.575370   144A      0.577396  
     145A      0.580678   146A      0.582387   147A      0.587319  
     148A      0.593554   149A      0.596118   150A      0.598667  
     151A      0.600145   152A      0.604751   153A      0.606010  
     154A      0.608864   155A      0.610679   156A      0.621789  
     157A      0.622998   158A      0.628443   159A      0.628680  
     160A      0.632857   161A      0.634155   162A      0.638712  
     163A      0.646061   164A      0.648595   165A      0.653209  
     166A      0.658722   167A      0.660672   168A      0.662225  
     169A      0.674854   170A      0.677515   171A      0.682259  
     172A      0.692402   173A      0.696984   174A      0.701552  
     175A      0.707187   176A      0.708644   177A      0.710307  
     178A      0.715641   179A      0.723224   180A      0.732070  
     181A      0.736835   182A      0.745718   183A      0.753558  
     184A      0.758974   185A      0.771386   186A      0.775224  
     187A      0.789750   188A      0.789965   189A      0.799262  
     190A      0.800854   191A      0.806679   192A      0.813473  
     193A      0.817420   194A      0.818265   195A      0.831475  
     196A      0.835721   197A      0.838639   198A      0.850656  
     199A      0.850807   200A      0.853010   201A      0.853708  
     202A      0.863373   203A      0.864467   204A      0.875987  
     205A      0.879432   206A      0.883244   207A      0.883594  
     208A      0.886596   209A      0.900663   210A      0.900747  
     211A      0.923852   212A      0.926177   213A      0.936252  
     214A      0.943481   215A      0.950707   216A      0.956123  
     217A      0.959720   218A      0.968649   219A      0.976200  
     220A      0.977526   221A      0.986790   222A      0.990376  
     223A      0.994211   224A      1.004171   225A      1.006298  
     226A      1.008311   227A      1.016659   228A      1.016686  
     229A      1.021563   230A      1.026058   231A      1.032634  
     232A      1.037384   233A      1.039579   234A      1.046831  
     235A      1.050581   236A      1.050856   237A      1.058558  
     238A      1.061897   239A      1.068143   240A      1.070360  
     241A      1.079744   242A      1.088232   243A      1.089705  
     244A      1.095590   245A      1.098935   246A      1.099304  
     247A      1.104222   248A      1.113140   249A      1.118814  
     250A      1.120825   251A      1.123398   252A      1.132661  
     253A      1.140530   254A      1.143776   255A      1.150562  
     256A      1.151295   257A      1.156972   258A      1.158801  
     259A      1.162532   260A      1.175485   261A      1.176112  
     262A      1.177937   263A      1.177956   264A      1.181198  
     265A      1.189666   266A      1.192215   267A      1.196365  
     268A      1.199073   269A      1.206066   270A      1.207956  
     271A      1.214160   272A      1.225085   273A      1.236722  
     274A      1.240933   275A      1.242086   276A      1.249409  
     277A      1.250256   278A      1.259382   279A      1.263226  
     280A      1.267403   281A      1.271385   282A      1.275485  
     283A      1.283615   284A      1.283687   285A      1.295666  
     286A      1.301035   287A      1.304530   288A      1.309555  
     289A      1.311900   290A      1.319110   291A      1.319674  
     292A      1.321936   293A      1.330088   294A      1.333760  
     295A      1.344622   296A      1.344840   297A      1.348638  
     298A      1.352993   299A      1.369960   300A      1.370203  
     301A      1.374455   302A      1.380602   303A      1.384948  
     304A      1.396215   305A      1.397830   306A      1.405507  
     307A      1.415133   308A      1.418213   309A      1.430329  
     310A      1.432426   311A      1.441551   312A      1.444965  
     313A      1.447251   314A      1.469568   315A      1.471465  
     316A      1.475479   317A      1.482459   318A      1.493804  
     319A      1.498225   320A      1.501987   321A      1.504996  
     322A      1.512943   323A      1.522607   324A      1.527153  
     325A      1.536709   326A      1.555809   327A      1.567886  
     328A      1.579172   329A      1.579796   330A      1.584973  
     331A      1.591895   332A      1.605405   333A      1.609758  
     334A      1.616593   335A      1.625105   336A      1.631600  
     337A      1.649183   338A      1.652358   339A      1.657934  
     340A      1.665707   341A      1.677960   342A      1.684167  
     343A      1.691472   344A      1.697267   345A      1.704309  
     346A      1.716628   347A      1.731470   348A      1.736936  
     349A      1.739703   350A      1.755482   351A      1.759117  
     352A      1.767642   353A      1.770162   354A      1.780419  
     355A      1.783445   356A      1.815323   357A      1.818381  
     358A      1.825332   359A      1.830450   360A      1.834744  
     361A      1.835852   362A      1.848395   363A      1.849533  
     364A      1.853096   365A      1.856843   366A      1.861801  
     367A      1.863395   368A      1.885768   369A      1.886758  
     370A      1.895860   371A      1.923761   372A      1.926451  
     373A      1.928221   374A      1.939836   375A      1.944864  
     376A      1.946283   377A      1.965867   378A      1.975255  
     379A      1.992085   380A      1.993326   381A      1.999469  
     382A      2.009572   383A      2.017277   384A      2.026035  
     385A      2.027512   386A      2.029944   387A      2.049219  
     388A      2.060921   389A      2.071090   390A      2.071841  
     391A      2.078959   392A      2.081371   393A      2.094437  
     394A      2.095565   395A      2.110540   396A      2.112040  
     397A      2.117945   398A      2.132884   399A      2.133983  
     400A      2.140593   401A      2.150180   402A      2.157689  
     403A      2.169594   404A      2.170207   405A      2.170849  
     406A      2.178149   407A      2.180050   408A      2.187864  
     409A      2.203097   410A      2.219365   411A      2.225251  
     412A      2.234576   413A      2.241617   414A      2.241939  
     415A      2.259801   416A      2.266842   417A      2.276193  
     418A      2.281398   419A      2.292154   420A      2.294058  
     421A      2.299607   422A      2.321811   423A      2.329060  
     424A      2.337563   425A      2.340884   426A      2.354563  
     427A      2.362551   428A      2.363833   429A      2.386535  
     430A      2.397133   431A      2.402867   432A      2.410998  
     433A      2.412134   434A      2.431688   435A      2.434607  
     436A      2.438544   437A      2.450610   438A      2.467646  
     439A      2.481055   440A      2.483649   441A      2.507133  
     442A      2.512606   443A      2.518737   444A      2.523471  
     445A      2.533834   446A      2.544768   447A      2.550776  
     448A      2.573632   449A      2.578583   450A      2.589684  
     451A      2.590960   452A      2.616416   453A      2.622155  
     454A      2.622447   455A      2.645607   456A      2.655465  
     457A      2.668741   458A      2.674995   459A      2.686182  
     460A      2.689190   461A      2.700501   462A      2.706699  
     463A      2.720571   464A      2.741902   465A      2.751238  
     466A      2.756231   467A      2.766872   468A      2.778513  
     469A      2.825479   470A      2.833402   471A      2.852297  
     472A      2.883108   473A      2.889164   474A      2.889980  
     475A      2.896757   476A      2.912161   477A      2.916251  
     478A      2.934873   479A      2.938853   480A      2.974843  
     481A      2.976009   482A      2.998551   483A      3.025498  
     484A      3.045140   485A      3.052204   486A      3.073870  
     487A      3.117073   488A      3.123488   489A      3.137148  
     490A      3.180653   491A      3.187090   492A      3.205289  
     493A      3.243237   494A      3.244919   495A      3.292914  
     496A      3.310672   497A      3.318241   498A      3.336297  
     499A      3.345513   500A      3.354627   501A      3.373334  
     502A      3.385290   503A      3.399426   504A      3.412750  
     505A      3.438963   506A      3.449285   507A      3.451657  
     508A      3.473231   509A      3.479400   510A      3.506499  
     511A      3.510861   512A      3.516642   513A      3.528891  
     514A      3.529024   515A      3.536580   516A      3.559965  
     517A      3.568711   518A      3.574181   519A      3.581780  
     520A      3.587634   521A      3.598994   522A      3.605135  
     523A      3.618587   524A      3.637114   525A      3.652586  
     526A      3.656388   527A      3.666565   528A      3.675524  
     529A      3.684379   530A      3.688366   531A      3.694950  
     532A      3.697742   533A      3.705291   534A      3.706965  
     535A      3.709235   536A      3.721503   537A      3.726837  
     538A      3.751380   539A      3.754594   540A      3.755541  
     541A      3.787505   542A      3.790504   543A      3.795181  
     544A      3.796704   545A      3.820187   546A      3.824464  
     547A      3.838058   548A      3.841542   549A      3.852720  
     550A      3.860624   551A      3.875123   552A      3.894740  
     553A      3.898311   554A      3.906983   555A      3.914270  
     556A      3.924457   557A      3.936943   558A      3.942976  
     559A      3.946664   560A      3.955633   561A      3.960283  
     562A      3.977149   563A      3.989105   564A      3.990453  
     565A      4.002039   566A      4.015259   567A      4.022977  
     568A      4.034144   569A      4.042396   570A      4.052912  
     571A      4.065980   572A      4.066763   573A      4.082160  
     574A      4.092259   575A      4.094847   576A      4.101549  
     577A      4.111270   578A      4.134279   579A      4.137627  
     580A      4.150494   581A      4.152566   582A      4.157121  
     583A      4.163502   584A      4.164216   585A      4.183171  
     586A      4.188305   587A      4.198528   588A      4.212135  
     589A      4.217950   590A      4.226648   591A      4.239350  
     592A      4.250804   593A      4.251278   594A      4.262730  
     595A      4.265392   596A      4.275694   597A      4.286488  
     598A      4.294308   599A      4.314027   600A      4.325384  
     601A      4.332893   602A      4.334064   603A      4.350840  
     604A      4.353524   605A      4.366245   606A      4.380278  
     607A      4.385355   608A      4.419769   609A      4.422341  
     610A      4.438624   611A      4.442760   612A      4.443368  
     613A      4.453677   614A      4.472148   615A      4.482311  
     616A      4.488305   617A      4.490438   618A      4.496674  
     619A      4.501707   620A      4.502800   621A      4.525690  
     622A      4.526167   623A      4.540569   624A      4.550725  
     625A      4.557945   626A      4.562041   627A      4.582681  
     628A      4.584847   629A      4.589371   630A      4.591010  
     631A      4.632245   632A      4.636717   633A      4.648383  
     634A      4.649060   635A      4.657631   636A      4.669820  
     637A      4.685258   638A      4.685412   639A      4.710511  
     640A      4.723492   641A      4.736315   642A      4.755907  
     643A      4.773395   644A      4.781919   645A      4.801215  
     646A      4.811129   647A      4.830389   648A      4.833812  
     649A      4.866906   650A      4.878822   651A      4.894069  
     652A      4.904778   653A      4.924325   654A      4.930489  
     655A      4.943794   656A      4.965076   657A      4.981425  
     658A      4.998123   659A      5.019961   660A      5.028485  
     661A      5.044816   662A      5.058940   663A      5.080797  
     664A      5.083381   665A      5.085990   666A      5.109194  
     667A      5.109315   668A      5.127448   669A      5.131871  
     670A      5.163236   671A      5.173800   672A      5.181640  
     673A      5.181712   674A      5.192267   675A      5.211319  
     676A      5.218780   677A      5.230544   678A      5.250272  
     679A      5.266996   680A      5.270550   681A      5.273204  
     682A      5.286094   683A      5.290323   684A      5.300581  
     685A      5.314557   686A      5.316523   687A      5.332754  
     688A      5.336008   689A      5.346062   690A      5.364394  
     691A      5.378278   692A      5.416510   693A      5.430141  
     694A      5.450356   695A      5.462814   696A      5.470851  
     697A      5.485260   698A      5.487783   699A      5.501692  
     700A      5.537320   701A      5.541491   702A      5.569522  
     703A      5.574338   704A      5.575570   705A      5.577837  
     706A      5.603624   707A      5.642646   708A      5.643018  
     709A      5.670194   710A      5.690483   711A      5.697717  
     712A      5.751558   713A      5.793921   714A      5.816944  
     715A      5.823642   716A      5.868510   717A      5.881726  
     718A      5.904580   719A      5.906484   720A      5.922272  
     721A      5.940736   722A      5.974563   723A      5.979936  
     724A      5.989518   725A      6.019665   726A      6.076577  
     727A      6.116799   728A      6.191095   729A      6.244974  
     730A      6.255803   731A      6.289710   732A      6.309073  
     733A      6.346361   734A      6.377249   735A      6.425244  
     736A      6.443511   737A      6.493226   738A      6.513804  
     739A      6.547937   740A      6.607141   741A      6.637182  
     742A      6.639458   743A      6.716111   744A      6.735161  
     745A      6.812667   746A      6.831427   747A      6.835492  
     748A      6.874417   749A      6.903245   750A      6.979918  
     751A      6.990072   752A      7.034433   753A      7.051930  
     754A      7.073853   755A      7.127853   756A      7.193719  
     757A      7.196618   758A      7.253432   759A      7.312315  
     760A      7.361549   761A      7.363615   762A      7.535070  
     763A      7.621220   764A      7.648312   765A      7.939903  
     766A      7.947262   767A      8.030698   768A      8.151726  
     769A      8.223072   770A     15.725793   771A     16.114703  
     772A     16.456173   773A     16.697040   774A     17.004748  
     775A     18.516931   776A     18.853611   777A     19.351313  
     778A     19.878556   779A     20.207449   780A     20.338536  
     781A     20.381831   782A     21.937072  

    Final Occupation by Irrep:
              A 
    DOCC [    45 ]

  Energy converged.

  @DF-RHF Final Energy:  -550.71504688625521

   => Energetics <=

    Nuclear Repulsion Energy =            686.4666142716931745
    One-Electron Energy =               -2122.9894735639145438
    Two-Electron Energy =                 885.8078124059660468
    DFT Exchange-Correlation Energy =       0.0000000000000000
    Empirical Dispersion Energy =           0.0000000000000000
    PCM Polarization Energy =               0.0000000000000000
    EFP Energy =                            0.0000000000000000
    Total Energy =                       -550.7150468862552088



Properties will be evaluated at   0.000000,   0.000000,   0.000000 Bohr

Properties computed using the SCF density matrix

  Nuclear Dipole Moment: (a.u.)
     X:     2.4683      Y:    -1.3091      Z:    -1.5397

  Electronic Dipole Moment: (a.u.)
     X:     0.4216      Y:    -0.2268      Z:    -0.2640

  Dipole Moment: (a.u.)
     X:     2.8900      Y:    -1.5358      Z:    -1.8037     Total:     3.7369

  Dipole Moment: (Debye)
     X:     7.3456      Y:    -3.9037      Z:    -4.5845     Total:     9.4981


*** tstop() called on gpu-2-5.local at Sun Nov 12 05:30:52 2017
Module time:
	user time   =    1054.76 seconds =      17.58 minutes
	system time =      49.37 seconds =       0.82 minutes
	total time  =        456 seconds =       7.60 minutes
Total time:
	user time   =    1054.77 seconds =      17.58 minutes
	system time =      49.37 seconds =       0.82 minutes
	total time  =        456 seconds =       7.60 minutes

  //>>>>>>>>>>>>>>>>>>>>>>>>>>>>>>>>>>>//
  //               DFMP2               //
  //<<<<<<<<<<<<<<<<<<<<<<<<<<<<<<<<<<<//

   => Loading Basis Set <=

    Name: (AUG-CC-PVTZ AUX)
    Role: RIFIT
    Keyword: DF_BASIS_MP2
    atoms 1-11  entry C          line   147 file /cbio/jclab/home/chayas/anaconda/envs/py35/share/psi4/basis/aug-cc-pvtz-ri.gbs 
    atoms 12    entry N          line   205 file /cbio/jclab/home/chayas/anaconda/envs/py35/share/psi4/basis/aug-cc-pvtz-ri.gbs 
    atoms 13    entry O          line   263 file /cbio/jclab/home/chayas/anaconda/envs/py35/share/psi4/basis/aug-cc-pvtz-ri.gbs 
    atoms 14-21 entry H          line    29 file /cbio/jclab/home/chayas/anaconda/envs/py35/share/psi4/basis/aug-cc-pvtz-ri.gbs 

	 --------------------------------------------------------
	                          DF-MP2                         
	      2nd-Order Density-Fitted Moller-Plesset Theory     
	              RMP2 Wavefunction,   8 Threads             
	                                                         
	        Rob Parrish, Justin Turney, Andy Simmonett,      
	           Ed Hohenstein, and C. David Sherrill          
	 --------------------------------------------------------

   => Auxiliary Basis Set <=

  Basis Set: (AUG-CC-PVTZ AUX)
    Blend: AUG-CC-PVTZ-RI
    Number of shells: 476
    Number of basis function: 1746
    Number of Cartesian functions: 2208
    Spherical Harmonics?: true
    Max angular momentum: 4

	 --------------------------------------------------------
	                 NBF =   782, NAUX =  1746
	 --------------------------------------------------------
	   CLASS    FOCC     OCC    AOCC    AVIR     VIR    FVIR
	   PAIRS       0      45      45     737     737       0
	 --------------------------------------------------------


         ------------------------------------------------------------
                                     CPHF                           
                                  Rob Parrish                       
         ------------------------------------------------------------

  ==> Geometry <==

    Molecular point group: c1
    Full point group: C1

    Geometry (in Angstrom), charge = -1, multiplicity = 1:

       Center              X                  Y                   Z               Mass       
    ------------   -----------------  -----------------  -----------------  -----------------
           C         -1.279278822161     0.723924489233    -0.569390765620    12.000000000000
           C         -0.286278822161     0.107924489233     1.544609234380    12.000000000000
           C         -2.357278822161     1.296924489233     0.103609234380    12.000000000000
           C         -1.364278822161     0.680924489233     2.218609234380    12.000000000000
           C          1.476721177839     0.207924489233    -1.605390765620    12.000000000000
           C          1.354721177839    -1.713075510767    -0.162390765620    12.000000000000
           C          2.545721177839    -0.404075510767    -2.239390765620    12.000000000000
           C          2.428721177839    -2.239075510767    -0.862390765620    12.000000000000
           C         -0.243278822161     0.128924489233     0.150609234380    12.000000000000
           C          0.875721177839    -0.466075510767    -0.547390765620    12.000000000000
           C         -2.400278822161     1.275924489233     1.497609234380    12.000000000000
           N          3.038721177839    -1.614075510767    -1.894390765620    14.003074004780
           O         -3.391278822161     1.801924489233     2.116609234380    15.994914619560
           H         -1.260278822161     0.748924489233    -1.656390765620     1.007825032070
           H          0.513721177839    -0.352075510767     2.119609234380     1.007825032070
           H         -3.153278822161     1.753924489233    -0.482390765620     1.007825032070
           H         -1.373278822161     0.651924489233     3.306609234380     1.007825032070
           H          1.131721177839     1.182924489233    -1.933390765620     1.007825032070
           H          0.910721177839    -2.268075510767     0.657609234380     1.007825032070
           H          3.050721177839     0.080924489233    -3.069390765620     1.007825032070
           H          2.839721177839    -3.209075510767    -0.601390765620     1.007825032070

  Nuclear repulsion =  686.466614271693174
  Reference energy  = -550.715046886255209

  ==> Basis Set <==

  Basis Set: AUG-CC-PVTZ
    Blend: AUG-CC-PVTZ
    Number of shells: 254
    Number of basis function: 782
    Number of Cartesian functions: 915
    Spherical Harmonics?: true
    Max angular momentum: 3

  ==> CGRSolver (by Rob Parrish) <==

   Number of roots    =         1
   Preconditioning    =    JACOBI
   Convergence cutoff =     1E-06
   Maximum iterations =       100

  ==> CPHFRHamiltonian (by Rob Parrish) <== 

  ==> DFJK: Density-Fitted J/K Matrices <==

    J tasked:                  Yes
    K tasked:                  Yes
    wK tasked:                  No
    OpenMP threads:              8
    Integrals threads:           8
    Memory (MB):              3576
    Algorithm:                Disk
    Integral Cache:           NONE
    Schwarz Cutoff:          1E-12
    Fitting Condition:       1E-12

   => Auxiliary Basis Set <=

  Basis Set: (AUG-CC-PVTZ AUX)
    Blend: AUG-CC-PVTZ-JKFIT
    Number of shells: 502
    Number of basis function: 1720
    Number of Cartesian functions: 2143
    Spherical Harmonics?: true
    Max angular momentum: 4

  ==> CPHF Iterations <==

  => Iterations <=

             Iter  Converged  Remaining    Residual
  CGR           1          0          1   1.351E-01
  CGR           2          0          1   5.191E-02
  CGR           3          0          1   3.053E-02
  CGR           4          0          1   1.093E-02
  CGR           5          0          1   5.117E-03
  CGR           6          0          1   2.783E-03
  CGR           7          0          1   8.108E-04
  CGR           8          0          1   2.568E-04
  CGR           9          0          1   9.737E-05
  CGR          10          0          1   2.907E-05
  CGR          11          0          1   1.085E-05
  CGR          12          0          1   3.344E-06
  CGR          13          0          1   1.351E-06
  CGR          14          1          0   6.257E-07

    CGRSolver converged.

  ==> DFCorrGrad: Density-Fitted Correlated Gradients <==

    OpenMP threads:              8
    Integrals threads:           8
    Memory (MB):              3576
    Schwarz Cutoff:          0E+00
    Fitting Condition:       1E-12

   => Auxiliary Basis Set <=

  Basis Set: (AUG-CC-PVTZ AUX)
    Blend: AUG-CC-PVTZ-JKFIT
    Number of shells: 502
    Number of basis function: 1720
    Number of Cartesian functions: 2143
    Spherical Harmonics?: true
    Max angular momentum: 4

	-----------------------------------------------------------
	 ==================> DF-MP2 Energies <==================== 
	-----------------------------------------------------------
	 Reference Energy          =    -550.7150468862552088 [Eh]
	 Singles Energy            =      -0.0000000000000001 [Eh]
	 Same-Spin Energy          =      -0.6137438315263143 [Eh]
	 Opposite-Spin Energy      =      -1.8379753055136392 [Eh]
	 Correlation Energy        =      -2.4517191370399534 [Eh]
	 Total Energy              =    -553.1667660232951675 [Eh]
	-----------------------------------------------------------
	 ================> DF-SCS-MP2 Energies <================== 
	-----------------------------------------------------------
	 SCS Same-Spin Scale       =       0.3333333333333333 [-]
	 SCS Opposite-Spin Scale   =       1.2000000000000000 [-]
	 SCS Same-Spin Energy      =      -0.2045812771754381 [Eh]
	 SCS Opposite-Spin Energy  =      -2.2055703666163669 [Eh]
	 SCS Correlation Energy    =      -2.4101516437918051 [Eh]
	 SCS Total Energy          =    -553.1251985300469869 [Eh]
	-----------------------------------------------------------


  -Total Gradient:
     Atom            X                  Y                   Z
    ------   -----------------  -----------------  -----------------
       1        0.012363833687    -0.013190512726    -0.006491081970
       2        0.016016110098    -0.001879415494    -0.011263050026
       3       -0.022782115446     0.011325919541     0.037697826021
       4       -0.039862261669     0.021824686688     0.002306037602
       5       -0.009707555866     0.009952109712     0.008789734111
       6       -0.015132706633     0.003655770649     0.006370642894
       7       -0.003975923929     0.009142733578     0.000303424578
       8       -0.006691294587    -0.004059220625     0.006642269382
       9       -0.011023634616     0.005845269889     0.006923435670
      10        0.018946965983    -0.010552245991    -0.011459651767
      11        0.048904066913    -0.025812775514    -0.031062110416
      12        0.007533789158    -0.003610668553    -0.004954639710
      13        0.000815686521    -0.000499438071    -0.000432548789
      14       -0.001986735658     0.002249819643    -0.003024002973
      15        0.000409013299    -0.001384851576     0.003878480303
      16       -0.001509464559     0.001997542092    -0.008854545066
      17        0.005023172105    -0.003852669004     0.006314148314
      18       -0.000137239225     0.003750493037    -0.004142124495
      19        0.000570665595    -0.003976563185     0.003914645755
      20        0.000974715473     0.000387568129    -0.001923461171
      21        0.001250913344    -0.001313552230     0.000466571760


*** tstop() called on gpu-2-5.local at Sun Nov 12 06:00:34 2017
Module time:
	user time   =    4832.65 seconds =      80.54 minutes
	system time =     102.19 seconds =       1.70 minutes
	total time  =       2238 seconds =      37.30 minutes
Total time:
	user time   =    4832.66 seconds =      80.54 minutes
	system time =     102.19 seconds =       1.70 minutes
	total time  =       2238 seconds =      37.30 minutes

			-----------------------------------------
			 OPTKING 2.0: for geometry optimizations 
			  - R.A. King,  Bethel University        
			-----------------------------------------

	Internal coordinates to be generated automatically.
	Detected frag 1 with atoms:  1 2 3 4 5 6 7 8 9 10 11 12 13 14 15 16 17 18 19 20
	 21
	---Fragment 1 Bond Connectivity---
	 1 : 3 9 14
	 2 : 4 9 15
	 3 : 1 11 16
	 4 : 2 11 17
	 5 : 7 10 18
	 6 : 8 10 19
	 7 : 5 12 20
	 8 : 6 12 21
	 9 : 1 2 10
	 10 : 5 6 9
	 11 : 3 4 13
	 12 : 7 8
	 13 : 11
	 14 : 1
	 15 : 2
	 16 : 3
	 17 : 4
	 18 : 5
	 19 : 6
	 20 : 7
	 21 : 8

	Assuming in current code that numbering for constraints corresponds to unified fragment.
	Fixed dihedral atom list: 
	     1     9    10     5
	---Fragment 1 Geometry and Gradient---
	 C          -2.4174866215        1.3680190255       -1.0759926096
	 C          -0.5409885715        0.2039477277        2.9188884353
	 C          -4.4546113927        2.4508320997        0.1957930778
	 C          -2.5781133428        1.2867608018        4.1925638489
	 C           2.7905986007        0.3929203410       -3.0337488833
	 C           2.5600520125       -3.2372435603       -0.3068740735
	 C           4.8107158368       -0.7635920524       -4.2318352515
	 C           4.5896178793       -4.2312395062       -1.6296823666
	 C          -0.4597303478        0.2436319765        0.2846102061
	 C           1.6548731949       -0.8807550726       -1.0344186347
	 C          -4.5358696165        2.4111478509        2.8300713071
	 N           5.7423508203       -3.0501606731       -3.5798797357
	 O          -6.4085882141        3.4051437968        3.9998117833
	 H          -2.3815818250        1.4152621789       -3.1301249161
	 H           0.9707923348       -0.6653262934        4.0054809617
	 H          -5.9588333945        3.3144369424       -0.9115864361
	 H          -2.5951208780        1.2319587440        6.2485858814
	 H           2.1386430849        2.2354033205       -3.6535790549
	 H           1.7210136095       -4.2860415641        1.2427013554
	 H           5.7650275339        0.1529251221       -5.8003079418
	 H           5.3662953199       -6.0642738551       -1.1364638459
	             0.0123638337       -0.0131905127       -0.0064910820
	             0.0160161101       -0.0018794155       -0.0112630500
	            -0.0227821154        0.0113259195        0.0376978260
	            -0.0398622617        0.0218246867        0.0023060376
	            -0.0097075559        0.0099521097        0.0087897341
	            -0.0151327066        0.0036557706        0.0063706429
	            -0.0039759239        0.0091427336        0.0003034246
	            -0.0066912946       -0.0040592206        0.0066422694
	            -0.0110236346        0.0058452699        0.0069234357
	             0.0189469660       -0.0105522460       -0.0114596518
	             0.0489040669       -0.0258127755       -0.0310621104
	             0.0075337892       -0.0036106686       -0.0049546397
	             0.0008156865       -0.0004994381       -0.0004325488
	            -0.0019867357        0.0022498196       -0.0030240030
	             0.0004090133       -0.0013848516        0.0038784803
	            -0.0015094646        0.0019975421       -0.0088545451
	             0.0050231721       -0.0038526690        0.0063141483
	            -0.0001372392        0.0037504930       -0.0041421245
	             0.0005706656       -0.0039765632        0.0039146458
	             0.0009747155        0.0003875681       -0.0019234612
	             0.0012509133       -0.0013135522        0.0004665718

	Previous optimization step data not found.  Starting new optimization.

	---Fragment 1 Intrafragment Coordinates---
	 - Coordinate -           - BOHR/RAD -       - ANG/DEG -
	 R(1,3)           =         2.634350	       1.394038
	 R(1,9)           =         2.635962	       1.394891
	 R(1,14)          =         2.054989	       1.087453
	 R(2,4)           =         2.635263	       1.394521
	 R(2,9)           =         2.635830	       1.394821
	 R(2,15)          =         2.054702	       1.087302
	 R(3,11)          =         2.635830	       1.394821
	 R(3,16)          =         2.057860	       1.088972
	 R(4,11)          =         2.636938	       1.395407
	 R(4,17)          =         2.056823	       1.088424
	 R(5,7)           =         2.617977	       1.385374
	 R(5,10)          =         2.628582	       1.390986
	 R(5,18)          =         2.050361	       1.085004
	 R(6,8)           =         2.618585	       1.385695
	 R(6,10)          =         2.627110	       1.390207
	 R(6,19)          =         2.050645	       1.085155
	 R(7,12)          =         2.553700	       1.351360
	 R(7,20)          =         2.052029	       1.085887
	 R(8,12)          =         2.554801	       1.351943
	 R(8,21)          =         2.050977	       1.085330
	 R(9,10)          =         2.734160	       1.446855
	 R(11,13)         =         2.421445	       1.281373
	 B(1,3,11)        =         2.094553	     120.009056
	 B(1,3,16)        =         2.069123	     118.552025
	 B(1,9,2)         =         2.093692	     119.959722
	 B(1,9,10)        =         2.095337	     120.053983
	 B(2,4,11)        =         2.093699	     119.960108
	 B(2,4,17)        =         2.069829	     118.592446
	 B(2,9,10)        =         2.094156	     119.986294
	 B(3,1,9)         =         2.094940	     120.031219
	 B(3,1,14)        =         2.079025	     119.119344
	 B(3,11,4)        =         2.094306	     119.994870
	 B(3,11,13)       =         2.094918	     120.029973
	 B(4,2,9)         =         2.095181	     120.045019
	 B(4,2,15)        =         2.079455	     119.143974
	 B(4,11,13)       =         2.093961	     119.975136
	 B(5,7,12)        =         2.165446	     124.070913
	 B(5,7,20)        =         2.107544	     120.753392
	 B(5,10,6)        =         2.090250	     119.762509
	 B(5,10,9)        =         2.096517	     120.121561
	 B(6,8,12)        =         2.164987	     124.044602
	 B(6,8,21)        =         2.107471	     120.749167
	 B(6,10,9)        =         2.096418	     120.115913
	 B(7,5,10)        =         2.057177	     117.867565
	 B(7,5,18)        =         2.098999	     120.263766
	 B(7,12,8)        =         2.031092	     116.372999
	 B(8,6,10)        =         2.057418	     117.881372
	 B(8,6,19)        =         2.099840	     120.311950
	 B(9,1,14)        =         2.109221	     120.849435
	 B(9,2,15)        =         2.108550	     120.811005
	 B(10,5,18)       =         2.127007	     121.868550
	 B(10,6,19)       =         2.125927	     121.806656
	 B(11,3,16)       =         2.119509	     121.438903
	 B(11,4,17)       =         2.119657	     121.447411
	 B(12,7,20)       =         2.010195	     115.175676
	 B(12,8,21)       =         2.010728	     115.206221
	 D(1,3,11,4)      =        -0.000325	      -0.018609
	 D(1,3,11,13)     =        -3.141004	    -179.966279
	 D(1,9,2,4)       =         0.000325	       0.018608
	 D(1,9,2,15)      =        -3.141527	    -179.996257
	 D(1,9,10,5)      =         0.784780	      44.964570
	 D(1,9,10,6)      =        -2.357631	    -135.082326
	 D(2,4,11,3)      =         0.000301	       0.017261
	 D(2,4,11,13)     =         3.140981	     179.964960
	 D(2,9,1,3)       =        -0.000348	      -0.019945
	 D(2,9,1,14)      =         3.141027	     179.967567
	 D(2,9,10,5)      =        -2.356596	    -135.022991
	 D(2,9,10,6)      =         0.784178	      44.930113
	 D(3,1,9,10)      =         3.141462	     179.992491
	 D(3,11,4,17)     =         3.140700	     179.948827
	 D(4,2,9,10)      =        -3.141485	    -179.993820
	 D(4,11,3,16)     =         3.140472	     179.935781
	 D(5,7,12,8)      =        -0.000482	      -0.027623
	 D(5,10,6,8)      =        -0.000300	      -0.017196
	 D(5,10,6,19)     =        -3.140966	    -179.964114
	 D(6,8,12,7)      =        -0.000599	      -0.034339
	 D(6,10,5,7)      =        -0.000668	      -0.038256
	 D(6,10,5,18)     =        -3.140069	    -179.912683
	 D(7,5,10,9)      =         3.140109	     179.915014
	 D(7,12,8,21)     =         3.141593	     180.000000
	 D(8,6,10,9)      =        -3.141077	    -179.970469
	 D(8,12,7,20)     =         3.140243	     179.922676
	 D(9,1,3,11)      =         0.000348	       0.019955
	 D(9,1,3,16)      =        -3.140471	    -179.935743
	 D(9,2,4,11)      =        -0.000301	      -0.017270
	 D(9,2,4,17)      =        -3.140734	    -179.950778
	 D(9,10,5,18)     =         0.000708	       0.040587
	 D(9,10,6,19)     =         0.001442	       0.082613
	 D(10,5,7,12)     =         0.001106	       0.063374
	 D(10,5,7,20)     =        -3.139573	    -179.884286
	 D(10,6,8,12)     =         0.000983	       0.056334
	 D(10,6,8,21)     =        -3.141252	    -179.980476
	 D(10,9,1,14)     =        -0.000349	      -0.019997
	 D(10,9,2,15)     =        -0.000152	      -0.008685
	 D(11,3,1,14)     =        -3.141030	    -179.967773
	 D(11,4,2,15)     =         3.141546	     179.997347
	 D(12,7,5,18)     =         3.140544	     179.939902
	 D(12,8,6,19)     =        -3.141521	    -179.995920
	 D(13,11,3,16)    =        -0.000207	      -0.011889
	 D(13,11,4,17)    =        -0.001806	      -0.103475
	 D(14,1,3,16)     =         0.001336	       0.076530
	 D(15,2,4,17)     =         0.001114	       0.063839
	 D(18,5,7,20)     =        -0.000135	      -0.007758
	 D(19,6,8,21)     =        -0.000571	      -0.032730

	Current energy   :      -553.1667660233

	Generating empirical Hessian (Schlegel '84) for each fragment.
	Adding user-defined constraint: Fragment 1; Coordinate 61:
		Value =     0.784780; Fixed value    =     0.785398
		Force =     0.000309; Force constant =     0.500000
	Removing off-diagonal coupling between coordinate 61 and others.
	Taking RFO optimization step.
	Going to follow RFO solution 1.
	Using RFO vector 1.

	Determining step-restricting scale parameter for RS-RFO.
	Maximum step size allowed    0.10000

	 Iter      |step|        alpha        rfo_root  
	------------------------------------------------
	    0     0.27317       1.00000           1
	    1     0.20455       4.49771           1
	    2     0.15143      15.55064           1
	    3     0.11852      34.17145           1
	    4     0.10377      49.98307           1
	    5     0.10021      55.02074           1
	    6     0.10000      55.34114           1
	------------------------------------------------
	Norm of target step-size    0.10000
	Projected energy change by RFO approximation:        -0.0065343259

	Back-transformation to cartesian coordinates...
	Could not converge backtransformation.
	Using first guess instead.

	--- Internal Coordinate Step in ANG or DEG, aJ/ANG or AJ/DEG ---
	 ---------------------------------------------------------------------------
	   Coordinate                Previous        Force       Change         New 
	   ----------                --------       ------       ------       ------
	    1 R(1,3)          =      1.394038    -0.048782    -0.003744     1.390294
	    2 R(1,9)          =      1.394891     0.038008     0.002674     1.397565
	    3 R(1,14)         =      1.087453    -0.025044    -0.002233     1.085221
	    4 R(2,4)          =      1.394521    -0.051790    -0.003991     1.390530
	    5 R(2,9)          =      1.394821     0.038991     0.002743     1.397564
	    6 R(2,15)         =      1.087302    -0.024204    -0.002156     1.085145
	    7 R(3,11)         =      1.394821     0.216670     0.017290     1.412111
	    8 R(3,16)         =      1.088972    -0.055253    -0.004948     1.084024
	    9 R(4,11)         =      1.395407     0.213328     0.017060     1.412468
	   10 R(4,17)         =      1.088424    -0.052504    -0.004698     1.083726
	   11 R(5,7)          =      1.385374     0.005117     0.000380     1.385754
	   12 R(5,10)         =      1.390986     0.029678     0.002646     1.393632
	   13 R(5,18)         =      1.085004    -0.038442    -0.003419     1.081585
	   14 R(6,8)          =      1.385695     0.003048     0.000218     1.385914
	   15 R(6,10)         =      1.390207     0.035183     0.003054     1.393261
	   16 R(6,19)         =      1.085155    -0.039203    -0.003487     1.081668
	   17 R(7,12)         =      1.351360    -0.096560    -0.006964     1.344396
	   18 R(7,20)         =      1.085887    -0.017273    -0.001537     1.084350
	   19 R(8,12)         =      1.351943    -0.100800    -0.007273     1.344670
	   20 R(8,21)         =      1.085330    -0.014499    -0.001287     1.084043
	   21 R(9,10)         =      1.446855     0.067941     0.005785     1.452640
	   22 R(11,13)        =      1.281373     0.008608     0.000505     1.281879
	   23 B(1,3,11)       =    120.009056     0.000721     0.932294   120.941351
	   24 B(1,3,16)       =    118.552025     0.000129     0.225869   118.777894
	   25 B(1,9,2)        =    119.959722    -0.000670    -0.932979   119.026743
	   26 B(1,9,10)       =    120.053983     0.000326     0.455742   120.509725
	   27 B(2,4,11)       =    119.960108     0.000736     0.948120   120.908228
	   28 B(2,4,17)       =    118.592446     0.000119     0.214163   118.806609
	   29 B(2,9,10)       =    119.986294     0.000344     0.477164   120.463458
	   30 B(3,1,9)        =    120.031219     0.000560     0.642767   120.673986
	   31 B(3,1,14)       =    119.119344    -0.000058    -0.005120   119.114225
	   32 B(3,11,4)       =    119.994870    -0.001909    -2.232586   117.762284
	   33 B(3,11,13)      =    120.029973     0.000947     1.106965   121.136938
	   34 B(4,2,9)        =    120.045019     0.000562     0.642254   120.687273
	   35 B(4,2,15)       =    119.143974    -0.000064    -0.012606   119.131369
	   36 B(4,11,13)      =    119.975136     0.000962     1.125614   121.100750
	   37 B(5,7,12)       =    124.070913     0.000144     0.141634   124.212547
	   38 B(5,7,20)       =    120.753392    -0.000107    -0.121137   120.632255
	   39 B(5,10,6)       =    119.762509    -0.001431    -1.685321   118.077188
	   40 B(5,10,9)       =    120.121561     0.000712     0.838116   120.959677
	   41 B(6,8,12)       =    124.044602     0.000148     0.146021   124.190623
	   42 B(6,8,21)       =    120.749167    -0.000104    -0.115894   120.633273
	   43 B(6,10,9)       =    120.115913     0.000719     0.847038   120.962951
	   44 B(7,5,10)       =    117.867565     0.000642     0.845348   118.712913
	   45 B(7,5,18)       =    120.263766    -0.000097    -0.103637   120.160129
	   46 B(7,12,8)       =    116.372999    -0.000148    -0.294637   116.078362
	   47 B(8,6,10)       =    117.881372     0.000645     0.846981   118.728353
	   48 B(8,6,19)       =    120.311950    -0.000108    -0.118418   120.193532
	   49 B(9,1,14)       =    120.849435    -0.000502    -0.637753   120.211682
	   50 B(9,2,15)       =    120.811005    -0.000498    -0.629775   120.181229
	   51 B(10,5,18)      =    121.868550    -0.000546    -0.741817   121.126733
	   52 B(10,6,19)      =    121.806656    -0.000537    -0.728649   121.078007
	   53 B(11,3,16)      =    121.438903    -0.000850    -1.158175   120.280728
	   54 B(11,4,17)      =    121.447411    -0.000855    -1.162283   120.285129
	   55 B(12,7,20)      =    115.175676    -0.000037    -0.020681   115.154995
	   56 B(12,8,21)      =    115.206221    -0.000044    -0.030153   115.176068
	   57 D(1,3,11,4)     =     -0.018609    -0.000006    -0.058994    -0.077603
	   58 D(1,3,11,13)    =   -179.966279    -0.000006    -0.051397  -180.017676
	   59 D(1,9,2,4)      =      0.018608    -0.000010    -0.103679    -0.085071
	   60 D(1,9,2,15)     =   -179.996257     0.000007     0.043140  -179.953117
	   61 D(1,9,10,5)     =     44.964570    -0.000030    -0.172388    44.792181
	   62 D(1,9,10,6)     =   -135.082326    -0.000039    -0.284545  -135.366871
	   63 D(2,4,11,3)     =      0.017261    -0.000005    -0.043447    -0.026186
	   64 D(2,4,11,13)    =    179.964960    -0.000006    -0.051050   179.913910
	   65 D(2,9,1,3)      =     -0.019945    -0.000002     0.001090    -0.018855
	   66 D(2,9,1,14)     =    179.967567     0.000014     0.133497   180.101064
	   67 D(2,9,10,5)     =   -135.022991    -0.000039    -0.285165  -135.308156
	   68 D(2,9,10,6)     =     44.930113    -0.000048    -0.397322    44.532792
	   69 D(3,1,9,10)     =    179.992491    -0.000011    -0.110256   179.882236
	   70 D(3,11,4,17)    =    179.948827    -0.000006    -0.043476   179.905351
	   71 D(4,2,9,10)     =   -179.993820    -0.000001     0.007612  -179.986208
	   72 D(4,11,3,16)    =    179.935781    -0.000008    -0.073605   179.862176
	   73 D(5,7,12,8)     =     -0.027623     0.000003     0.020703    -0.006921
	   74 D(5,10,6,8)     =     -0.017196    -0.000001    -0.023862    -0.041058
	   75 D(5,10,6,19)    =   -179.964114     0.000006     0.042037  -179.922077
	   76 D(6,8,12,7)     =     -0.034339     0.000004     0.041113     0.006774
	   77 D(6,10,5,7)     =     -0.038256     0.000008     0.079178     0.040921
	   78 D(6,10,5,18)    =   -179.912683     0.000013     0.126333  -179.786350
	   79 D(7,5,10,9)     =    179.915014    -0.000001    -0.028672   179.886342
	   80 D(7,12,8,21)    =    180.000000    -0.000008    -0.061993   179.938007
	   81 D(8,6,10,9)     =   -179.970469     0.000008     0.083995  -179.886474
	   82 D(8,12,7,20)    =    179.922676    -0.000010    -0.092850   179.829826
	   83 D(9,1,3,11)     =      0.019955     0.000010     0.081117     0.101072
	   84 D(9,1,3,16)     =   -179.935743     0.000012     0.096148  -179.839595
	   85 D(9,2,4,11)     =     -0.017270     0.000014     0.125348     0.108078
	   86 D(9,2,4,17)     =   -179.950778     0.000014     0.126325  -179.824453
	   87 D(9,10,5,18)    =      0.040587     0.000005     0.018483     0.059071
	   88 D(9,10,6,19)    =      0.082613     0.000015     0.149894     0.232507
	   89 D(10,5,7,12)    =      0.063374    -0.000009    -0.080704    -0.017330
	   90 D(10,5,7,20)    =   -179.884286     0.000005     0.038692  -179.845594
	   91 D(10,6,8,12)    =      0.056334    -0.000005    -0.038712     0.017623
	   92 D(10,6,8,21)    =   -179.980476     0.000008     0.070427  -179.910049
	   93 D(10,9,1,14)    =     -0.019997     0.000005     0.022151     0.002154
	   94 D(10,9,2,15)    =     -0.008685     0.000016     0.154430     0.145745
	   95 D(11,3,1,14)    =   -179.967773    -0.000006    -0.049772  -180.017545
	   96 D(11,4,2,15)    =    179.997347    -0.000003    -0.019853   179.977494
	   97 D(12,7,5,18)    =    179.939902    -0.000014    -0.128243   179.811660
	   98 D(12,8,6,19)    =   -179.995920    -0.000013    -0.104355  -180.100275
	   99 D(13,11,3,16)   =     -0.011889    -0.000008    -0.066008    -0.077897
	  100 D(13,11,4,17)   =     -0.103475    -0.000006    -0.051079    -0.154554
	  101 D(14,1,3,16)    =      0.076530    -0.000004    -0.034742     0.041788
	  102 D(15,2,4,17)    =      0.063839    -0.000002    -0.018876     0.044963
	  103 D(18,5,7,20)    =     -0.007758    -0.000001    -0.008847    -0.016605
	  104 D(19,6,8,21)    =     -0.032730     0.000000     0.004783    -0.027947
	 ---------------------------------------------------------------------------
	Successfully symmetrized geometry.
	 Forces used to impose fixed constraints are not included.
	  Forces zeroed: 61 

  ==> Convergence Check <==

  Measures of convergence in internal coordinates in au.
  Criteria marked as inactive (o), active & met (*), and active & unmet ( ).
  --------------------------------------------------------------------------------------------- ~
   Step     Total Energy     Delta E     MAX Force     RMS Force      MAX Disp      RMS Disp    ~
  --------------------------------------------------------------------------------------------- ~
    Convergence Criteria    1.00e-06 *    3.00e-04 *             o    1.20e-03 *             o  ~
  --------------------------------------------------------------------------------------------- ~
      1    -553.16676602   -5.53e+02      2.63e-02      6.61e-03 o    3.90e-02      9.79e-03 o  ~
  ---------------------------------------------------------------------------------------------

	Writing optimization data to binary file.
	Structure for next step:
	Cartesian Geometry (in Angstrom)
	    C    -1.2881621394   0.7324907826  -0.5591146640
	    C    -0.3009291413   0.1123107520   1.5486244078
	    C    -2.3655751628   1.3038535102   0.1084510881
	    C    -1.3736144467   0.6832421352   2.2246098466
	    C     1.4908320704   0.1918761979  -1.6125590262
	    C     1.3727871476  -1.7139783480  -0.1755734883
	    C     2.5598880704  -0.4206049131  -2.2468305075
	    C     2.4473226545  -2.2401051870  -0.8750887205
	    C    -0.2461196862   0.1314310932   0.1522660598
	    C     0.8766632457  -0.4667337240  -0.5489616798
	    C    -2.4339555185   1.2937106019   1.5188688777
	    N     3.0544298707  -1.6227835486  -1.9039096873
	    O    -3.4253966048   1.8196968197   2.1382203555
	    H    -1.2660367596   0.7567557659  -1.6438385156
	    H     0.4983490036  -0.3487424571   2.1196979537
	    H    -3.1582247376   1.7594949713  -0.4739633023
	    H    -1.3836084069   0.6536984478   3.3078870373
	    H     1.1480890829   1.1636011188  -1.9413523148
	    H     0.9321243757  -2.2681916465   0.6421481574
	    H     3.0622548375   0.0649585082  -3.0760895278
	    H     2.8570269794  -3.2085666064  -0.6116984279
			--------------------------
			 OPTKING Finished Execution 
			--------------------------

    Structure for next step:
    Molecular point group: c1
    Full point group: C1

    Geometry (in Angstrom), charge = -1, multiplicity = 1:

    C           -1.285593348560     0.731116602986    -0.560679029651
    C           -0.298360350552     0.110936572365     1.547060042181
    C           -2.363006371955     1.302479330579     0.106886722462
    C           -1.371045655939     0.681867955635     2.223045480933
    C            1.493400861182     0.190502018318    -1.614123391899
    C            1.375355938386    -1.715352527628    -0.177137853954
    C            2.562456861206    -0.421979092738    -2.248394873132
    C            2.449891445304    -2.241479366595    -0.876653086130
    C           -0.243550895371     0.130056913586     0.150701694126
    C            0.879232036448    -0.468107903644    -0.550526045471
    C           -2.431386727740     1.292336422253     1.517304512064
    N            3.056998661521    -1.624157728249    -1.905474052975
    O           -3.422827814032     1.818322640073     2.136655989799
    H           -1.263467968852     0.755381586277    -1.645402881280
    H            0.500917794425    -0.350116636685     2.118133588071
    H           -3.155655946765     1.758120791705    -0.475527667914
    H           -1.381039616110     0.652324268183     3.306322671680
    H            1.150657873682     1.162226939226    -1.942916680457
    H            0.934693166547    -2.269565826067     0.640583791761
    H            3.064823628329     0.063584328616    -3.077653893468
    H            2.859595770208    -3.209940785952    -0.613262793523

gradient() will perform analytic gradient computation.

*** tstart() called on gpu-2-5.local
*** at Sun Nov 12 06:00:36 2017

    SCF Algorithm Type (re)set to DF.

*** tstart() called on gpu-2-5.local
*** at Sun Nov 12 06:00:36 2017

   => Loading Basis Set <=

    Name: AUG-CC-PVTZ
    Role: ORBITAL
    Keyword: BASIS
    atoms 1-11  entry C          line   221 file /cbio/jclab/home/chayas/anaconda/envs/py35/share/psi4/basis/aug-cc-pvtz.gbs 
    atoms 12    entry N          line   267 file /cbio/jclab/home/chayas/anaconda/envs/py35/share/psi4/basis/aug-cc-pvtz.gbs 
    atoms 13    entry O          line   313 file /cbio/jclab/home/chayas/anaconda/envs/py35/share/psi4/basis/aug-cc-pvtz.gbs 
    atoms 14-21 entry H          line    34 file /cbio/jclab/home/chayas/anaconda/envs/py35/share/psi4/basis/aug-cc-pvtz.gbs 


         ---------------------------------------------------------
                                   SCF
            by Justin Turney, Rob Parrish, and Andy Simmonett
                              RHF Reference
                        8 Threads,   4768 MiB Core
         ---------------------------------------------------------

  ==> Geometry <==

    Molecular point group: c1
    Full point group: C1

    Geometry (in Angstrom), charge = -1, multiplicity = 1:

       Center              X                  Y                   Z               Mass       
    ------------   -----------------  -----------------  -----------------  -----------------
           C         -1.285593348560     0.731116602986    -0.560679029651    12.000000000000
           C         -0.298360350552     0.110936572365     1.547060042181    12.000000000000
           C         -2.363006371955     1.302479330579     0.106886722462    12.000000000000
           C         -1.371045655939     0.681867955635     2.223045480933    12.000000000000
           C          1.493400861182     0.190502018318    -1.614123391899    12.000000000000
           C          1.375355938386    -1.715352527628    -0.177137853954    12.000000000000
           C          2.562456861206    -0.421979092738    -2.248394873132    12.000000000000
           C          2.449891445304    -2.241479366595    -0.876653086130    12.000000000000
           C         -0.243550895371     0.130056913586     0.150701694126    12.000000000000
           C          0.879232036448    -0.468107903644    -0.550526045471    12.000000000000
           C         -2.431386727740     1.292336422253     1.517304512064    12.000000000000
           N          3.056998661521    -1.624157728249    -1.905474052975    14.003074004780
           O         -3.422827814032     1.818322640073     2.136655989799    15.994914619560
           H         -1.263467968852     0.755381586277    -1.645402881280     1.007825032070
           H          0.500917794425    -0.350116636685     2.118133588071     1.007825032070
           H         -3.155655946765     1.758120791705    -0.475527667914     1.007825032070
           H         -1.381039616110     0.652324268183     3.306322671680     1.007825032070
           H          1.150657873682     1.162226939226    -1.942916680457     1.007825032070
           H          0.934693166547    -2.269565826067     0.640583791761     1.007825032070
           H          3.064823628329     0.063584328616    -3.077653893468     1.007825032070
           H          2.859595770208    -3.209940785952    -0.613262793523     1.007825032070

  Running in c1 symmetry.

  Rotational constants: A =      0.09805  B =      0.01357  C =      0.01235 [cm^-1]
  Rotational constants: A =   2939.50653  B =    406.69931  C =    370.27422 [MHz]
  Nuclear repulsion =  684.213462286170625

  Charge       = -1
  Multiplicity = 1
  Electrons    = 90
  Nalpha       = 45
  Nbeta        = 45

  ==> Algorithm <==

  SCF Algorithm Type is DF.
  DIIS enabled.
  MOM disabled.
  Fractional occupation disabled.
  Guess Type is READ.
  Energy threshold   = 1.00e-10
  Density threshold  = 1.00e-10
  Integral threshold = 0.00e+00

  ==> Primary Basis <==

  Basis Set: AUG-CC-PVTZ
    Blend: AUG-CC-PVTZ
    Number of shells: 254
    Number of basis function: 782
    Number of Cartesian functions: 915
    Spherical Harmonics?: true
    Max angular momentum: 3

   => Loading Basis Set <=

    Name: (AUG-CC-PVTZ AUX)
    Role: JKFIT
    Keyword: DF_BASIS_SCF
    atoms 1-11  entry C          line   161 file /cbio/jclab/home/chayas/anaconda/envs/py35/share/psi4/basis/aug-cc-pvtz-jkfit.gbs 
    atoms 12    entry N          line   223 file /cbio/jclab/home/chayas/anaconda/envs/py35/share/psi4/basis/aug-cc-pvtz-jkfit.gbs 
    atoms 13    entry O          line   285 file /cbio/jclab/home/chayas/anaconda/envs/py35/share/psi4/basis/aug-cc-pvtz-jkfit.gbs 
    atoms 14-21 entry H          line    69 file /cbio/jclab/home/chayas/anaconda/envs/py35/share/psi4/basis/aug-cc-pvtz-jkfit.gbs 

  Reading orbitals from file 180, no projection.

  ==> Pre-Iterations <==

   -------------------------------------------------------
    Irrep   Nso     Nmo     Nalpha   Nbeta   Ndocc  Nsocc
   -------------------------------------------------------
     A        782     782       0       0       0       0
   -------------------------------------------------------
    Total     782     782      45      45      45       0
   -------------------------------------------------------

  ==> Integral Setup <==

  ==> DFJK: Density-Fitted J/K Matrices <==

    J tasked:                  Yes
    K tasked:                  Yes
    wK tasked:                  No
    OpenMP threads:              8
    Integrals threads:           8
    Memory (MB):              3576
    Algorithm:                Disk
    Integral Cache:           NONE
    Schwarz Cutoff:          1E-12
    Fitting Condition:       1E-12

   => Auxiliary Basis Set <=

  Basis Set: (AUG-CC-PVTZ AUX)
    Blend: AUG-CC-PVTZ-JKFIT
    Number of shells: 502
    Number of basis function: 1720
    Number of Cartesian functions: 2143
    Spherical Harmonics?: true
    Max angular momentum: 4

  Minimum eigenvalue in the overlap matrix is 7.3310032497E-07.
  Using Symmetric Orthogonalization.

  SCF Guess: Orbitals guess was supplied from a previous computation.

  ==> Iterations <==

                           Total Energy        Delta E     RMS |[F,P]|

   @DF-RHF iter   0:  -550.81548408691947   -5.50815e+02   5.22841e-04 
   @DF-RHF iter   1:  -550.72092268312485    9.45614e-02   1.25607e-04 
   @DF-RHF iter   2:  -550.72134204929830   -4.19366e-04   8.98058e-05 DIIS
   @DF-RHF iter   3:  -550.72165261478403   -3.10565e-04   1.12607e-05 DIIS
   @DF-RHF iter   4:  -550.72165887384153   -6.25906e-06   4.43175e-06 DIIS
   @DF-RHF iter   5:  -550.72166042609706   -1.55226e-06   1.38585e-06 DIIS
   @DF-RHF iter   6:  -550.72166071288757   -2.86791e-07   6.20922e-07 DIIS
   @DF-RHF iter   7:  -550.72166080450495   -9.16174e-08   2.31850e-07 DIIS
   @DF-RHF iter   8:  -550.72166083528202   -3.07771e-08   1.06174e-07 DIIS
   @DF-RHF iter   9:  -550.72166083941602   -4.13399e-09   4.06812e-08 DIIS
   @DF-RHF iter  10:  -550.72166083998547   -5.69457e-10   1.30329e-08 DIIS
   @DF-RHF iter  11:  -550.72166084003936   -5.38876e-11   5.49204e-09 DIIS
   @DF-RHF iter  12:  -550.72166084004550   -6.13909e-12   3.06820e-09 DIIS
   @DF-RHF iter  13:  -550.72166084006471   -1.92131e-11   1.05897e-09 DIIS
   @DF-RHF iter  14:  -550.72166084004857    1.61435e-11   5.39788e-10 DIIS
   @DF-RHF iter  15:  -550.72166084005789   -9.32232e-12   2.26691e-10 DIIS
   @DF-RHF iter  16:  -550.72166084006153   -3.63798e-12   7.90723e-11 DIIS

  ==> Post-Iterations <==

    Orbital Energies (a.u.)
    -----------------------

    Doubly Occupied:                                                      

       1A    -20.300418     2A    -15.452407     3A    -11.167871  
       4A    -11.167809     5A    -11.145647     6A    -11.120820  
       7A    -11.120777     8A    -11.119815     9A    -11.098807  
      10A    -11.098779    11A    -11.075688    12A    -11.060133  
      13A    -11.060093    14A     -1.145017    15A     -1.127756  
      16A     -1.017580    17A     -0.957582    18A     -0.924434  
      19A     -0.865644    20A     -0.836627    21A     -0.748052  
      22A     -0.733467    23A     -0.677520    24A     -0.648307  
      25A     -0.596389    26A     -0.553075    27A     -0.543159  
      28A     -0.505715    29A     -0.490141    30A     -0.483947  
      31A     -0.482081    32A     -0.439897    33A     -0.431330  
      34A     -0.409832    35A     -0.409274    36A     -0.375108  
      37A     -0.355353    38A     -0.354397    39A     -0.310945  
      40A     -0.303400    41A     -0.250290    42A     -0.242927  
      43A     -0.214922    44A     -0.197600    45A     -0.106298  

    Virtual:                                                              

      46A      0.098353    47A      0.099564    48A      0.116802  
      49A      0.116912    50A      0.124431    51A      0.127341  
      52A      0.131639    53A      0.133367    54A      0.162366  
      55A      0.166460    56A      0.178719    57A      0.183407  
      58A      0.185672    59A      0.188258    60A      0.188364  
      61A      0.197883    62A      0.198185    63A      0.204742  
      64A      0.205271    65A      0.212306    66A      0.213227  
      67A      0.215055    68A      0.222330    69A      0.224548  
      70A      0.229829    71A      0.231228    72A      0.233305  
      73A      0.237976    74A      0.240711    75A      0.242621  
      76A      0.249410    77A      0.254283    78A      0.256359  
      79A      0.256958    80A      0.266799    81A      0.268229  
      82A      0.277964    83A      0.279006    84A      0.292518  
      85A      0.293620    86A      0.300700    87A      0.312573  
      88A      0.314573    89A      0.319737    90A      0.321763  
      91A      0.325558    92A      0.329427    93A      0.332089  
      94A      0.332759    95A      0.335267    96A      0.347184  
      97A      0.348228    98A      0.349084    99A      0.363954  
     100A      0.365145   101A      0.368844   102A      0.376195  
     103A      0.379843   104A      0.385402   105A      0.388352  
     106A      0.393862   107A      0.397637   108A      0.400599  
     109A      0.408205   110A      0.411358   111A      0.411639  
     112A      0.419533   113A      0.420287   114A      0.427837  
     115A      0.430353   116A      0.434337   117A      0.440141  
     118A      0.443387   119A      0.446745   120A      0.463101  
     121A      0.467602   122A      0.469329   123A      0.473439  
     124A      0.474559   125A      0.475966   126A      0.487727  
     127A      0.488146   128A      0.500293   129A      0.508917  
     130A      0.511611   131A      0.511676   132A      0.516856  
     133A      0.532534   134A      0.536816   135A      0.543675  
     136A      0.546577   137A      0.550337   138A      0.557853  
     139A      0.559738   140A      0.565243   141A      0.567091  
     142A      0.569374   143A      0.574710   144A      0.578255  
     145A      0.580943   146A      0.582050   147A      0.587639  
     148A      0.593488   149A      0.595091   150A      0.598448  
     151A      0.599359   152A      0.604978   153A      0.606466  
     154A      0.609097   155A      0.610339   156A      0.621864  
     157A      0.623163   158A      0.628248   159A      0.628477  
     160A      0.633608   161A      0.633677   162A      0.637746  
     163A      0.647321   164A      0.647905   165A      0.652683  
     166A      0.657285   167A      0.660401   168A      0.661350  
     169A      0.673448   170A      0.677206   171A      0.682044  
     172A      0.691107   173A      0.696317   174A      0.700264  
     175A      0.704965   176A      0.706849   177A      0.707987  
     178A      0.716063   179A      0.720154   180A      0.731170  
     181A      0.736339   182A      0.743705   183A      0.751352  
     184A      0.757056   185A      0.770033   186A      0.776011  
     187A      0.785707   188A      0.787444   189A      0.797448  
     190A      0.799908   191A      0.805931   192A      0.811753  
     193A      0.816938   194A      0.819003   195A      0.831824  
     196A      0.834508   197A      0.837909   198A      0.844338  
     199A      0.849666   200A      0.852198   201A      0.854727  
     202A      0.863870   203A      0.863970   204A      0.875643  
     205A      0.879623   206A      0.880854   207A      0.884170  
     208A      0.887264   209A      0.898767   210A      0.898946  
     211A      0.921918   212A      0.925768   213A      0.934513  
     214A      0.942879   215A      0.948994   216A      0.954858  
     217A      0.957226   218A      0.968722   219A      0.977358  
     220A      0.981493   221A      0.984208   222A      0.989703  
     223A      0.994367   224A      1.005504   225A      1.008067  
     226A      1.009516   227A      1.016297   228A      1.017309  
     229A      1.021355   230A      1.027072   231A      1.031521  
     232A      1.038126   233A      1.041822   234A      1.047237  
     235A      1.049204   236A      1.049299   237A      1.058076  
     238A      1.059543   239A      1.067040   240A      1.069688  
     241A      1.077487   242A      1.086080   243A      1.088022  
     244A      1.092949   245A      1.097047   246A      1.098779  
     247A      1.102385   248A      1.112866   249A      1.118051  
     250A      1.119305   251A      1.123126   252A      1.130928  
     253A      1.137996   254A      1.142389   255A      1.146580  
     256A      1.149132   257A      1.156563   258A      1.156658  
     259A      1.161669   260A      1.172191   261A      1.174983  
     262A      1.177502   263A      1.178263   264A      1.181516  
     265A      1.188485   266A      1.191199   267A      1.194400  
     268A      1.195728   269A      1.206375   270A      1.207532  
     271A      1.211785   272A      1.224006   273A      1.235485  
     274A      1.238724   275A      1.241743   276A      1.245645  
     277A      1.248727   278A      1.258022   279A      1.263760  
     280A      1.266242   281A      1.268809   282A      1.274547  
     283A      1.283992   284A      1.284126   285A      1.291771  
     286A      1.296462   287A      1.305603   288A      1.309692  
     289A      1.311674   290A      1.316233   291A      1.318475  
     292A      1.320697   293A      1.328287   294A      1.331261  
     295A      1.341207   296A      1.345708   297A      1.346813  
     298A      1.353390   299A      1.367122   300A      1.368416  
     301A      1.376545   302A      1.378637   303A      1.385533  
     304A      1.397879   305A      1.398162   306A      1.402911  
     307A      1.414339   308A      1.416930   309A      1.426978  
     310A      1.429996   311A      1.439856   312A      1.442647  
     313A      1.442828   314A      1.467511   315A      1.469656  
     316A      1.472687   317A      1.482212   318A      1.490900  
     319A      1.494683   320A      1.499181   321A      1.501279  
     322A      1.510509   323A      1.521815   324A      1.529755  
     325A      1.532302   326A      1.554712   327A      1.563804  
     328A      1.577496   329A      1.577618   330A      1.583759  
     331A      1.590046   332A      1.603648   333A      1.609095  
     334A      1.611087   335A      1.622030   336A      1.629898  
     337A      1.644786   338A      1.652621   339A      1.657652  
     340A      1.664691   341A      1.670575   342A      1.683225  
     343A      1.693484   344A      1.696877   345A      1.703392  
     346A      1.713979   347A      1.729003   348A      1.734334  
     349A      1.738243   350A      1.755371   351A      1.757135  
     352A      1.766211   353A      1.767261   354A      1.778422  
     355A      1.782997   356A      1.815501   357A      1.817550  
     358A      1.823021   359A      1.830568   360A      1.830756  
     361A      1.838257   362A      1.844945   363A      1.845692  
     364A      1.852714   365A      1.856111   366A      1.859101  
     367A      1.862315   368A      1.886734   369A      1.888613  
     370A      1.892391   371A      1.917082   372A      1.927243  
     373A      1.930558   374A      1.938573   375A      1.943538  
     376A      1.948396   377A      1.968592   378A      1.972855  
     379A      1.991477   380A      1.994387   381A      1.995003  
     382A      2.012255   383A      2.017056   384A      2.021629  
     385A      2.029649   386A      2.031792   387A      2.046704  
     388A      2.059634   389A      2.064598   390A      2.069093  
     391A      2.077713   392A      2.078104   393A      2.090940  
     394A      2.093615   395A      2.107046   396A      2.114754  
     397A      2.117516   398A      2.131538   399A      2.132624  
     400A      2.139396   401A      2.150559   402A      2.157799  
     403A      2.165960   404A      2.170305   405A      2.172922  
     406A      2.175246   407A      2.177362   408A      2.185567  
     409A      2.202680   410A      2.219527   411A      2.224711  
     412A      2.231587   413A      2.235295   414A      2.237173  
     415A      2.258361   416A      2.266387   417A      2.277073  
[...]
	 B(1,3,16)        =         2.096513	     120.121342
	 B(1,9,2)         =         2.037118	     116.718256
	 B(1,9,10)        =         2.116580	     121.271109
	 B(2,4,11)        =         2.146532	     122.987236
	 B(2,4,17)        =         2.096364	     120.112822
	 B(2,9,10)        =         2.123691	     121.678511
	 B(3,1,9)         =         2.128152	     121.934152
	 B(3,1,14)        =         2.081010	     119.233080
	 B(3,11,4)        =         1.981711	     113.543700
	 B(3,11,13)       =         2.151393	     123.265766
	 B(4,2,9)         =         2.126598	     121.845114
	 B(4,2,15)        =         2.080164	     119.184600
	 B(4,11,13)       =         2.150062	     123.189467
	 B(5,7,12)        =         2.168333	     124.236315
	 B(5,7,20)        =         2.090030	     119.749883
	 B(5,10,6)        =         2.003987	     114.820017
	 B(5,10,9)        =         2.136025	     122.385192
	 B(6,8,12)        =         2.169793	     124.319964
	 B(6,8,21)        =         2.089153	     119.699653
	 B(6,10,9)        =         2.140231	     122.626213
	 B(7,5,10)        =         2.105387	     120.629815
	 B(7,5,18)        =         2.091025	     119.806904
	 B(7,12,8)        =         2.014222	     115.406433
	 B(8,6,10)        =         2.104054	     120.553434
	 B(8,6,19)        =         2.090626	     119.784026
	 B(9,1,14)        =         2.073600	     118.808502
	 B(9,2,15)        =         2.075443	     118.914107
	 B(10,5,18)       =         2.086705	     119.559418
	 B(10,6,19)       =         2.088204	     119.645288
	 B(11,3,16)       =         2.041277	     116.956555
	 B(11,4,17)       =         2.040277	     116.899237
	 B(12,7,20)       =         2.024587	     116.000289
	 B(12,8,21)       =         2.024202	     115.978224
	 D(1,3,11,4)      =        -0.019166	      -1.098135
	 D(1,3,11,13)     =         3.128806	     179.267368
	 D(1,9,2,4)       =        -0.049097	      -2.813045
	 D(1,9,2,15)      =         3.140478	     179.936108
	 D(1,9,10,5)      =         0.776307	      44.479094
	 D(1,9,10,6)      =        -2.451942	    -140.485902
	 D(2,4,11,3)      =        -0.000482	      -0.027597
	 D(2,4,11,13)     =         3.134737	     179.607219
	 D(2,9,1,3)       =         0.029599	       1.695903
	 D(2,9,1,14)      =        -3.080466	    -176.497723
	 D(2,9,10,5)      =        -2.484587	    -142.356366
	 D(2,9,10,6)      =         0.570350	      32.678637
	 D(3,1,9,10)      =         3.057554	     175.184966
	 D(3,11,4,17)     =         3.135774	     179.666594
	 D(4,2,9,10)      =        -3.076554	    -176.273580
	 D(4,11,3,16)     =         3.106409	     177.984154
	 D(5,7,12,8)      =         0.003059	       0.175273
	 D(5,10,6,8)      =        -0.026322	      -1.508160
	 D(5,10,6,19)     =        -3.141489	    -179.994053
	 D(6,8,12,7)      =         0.010018	       0.574004
	 D(6,10,5,7)      =         0.038392	       2.199705
	 D(6,10,5,18)     =        -3.090699	    -177.083982
	 D(7,5,10,9)      =         3.099590	     177.593406
	 D(7,12,8,21)     =        -3.140963	    -179.963949
	 D(8,6,10,9)      =        -3.087304	    -176.889469
	 D(8,12,7,20)     =         3.121175	     178.830145
	 D(9,1,3,11)      =         0.004487	       0.257087
	 D(9,1,3,16)      =        -3.120600	    -178.797204
	 D(9,2,4,11)      =         0.035523	       2.035316
	 D(9,2,4,17)      =        -3.100567	    -177.649413
	 D(9,10,5,18)     =        -0.029501	      -1.690282
	 D(9,10,6,19)     =         0.080715	       4.624637
	 D(10,5,7,12)     =        -0.028658	      -1.641998
	 D(10,5,7,20)     =         3.137239	     179.750536
	 D(10,6,8,12)     =         0.002494	       0.142874
	 D(10,6,8,21)     =        -3.129382	    -179.300391
	 D(10,9,1,14)     =        -0.052511	      -3.008660
	 D(10,9,2,15)     =         0.113020	       6.475573
	 D(11,3,1,14)     =         3.114423	     178.443269
	 D(11,4,2,15)     =         3.129008	     179.278938
	 D(12,7,5,18)     =         3.100402	     177.639924
	 D(12,8,6,19)     =         3.117624	     178.626673
	 D(13,11,3,16)    =        -0.028804	      -1.650343
	 D(13,11,4,17)    =        -0.012193	      -0.698591
	 D(14,1,3,16)     =        -0.010664	      -0.611022
	 D(15,2,4,17)     =        -0.007082	      -0.405790
	 D(18,5,7,20)     =        -0.016887	      -0.967542
	 D(19,6,8,21)     =        -0.014252	      -0.816592

	Current energy   :      -553.1766951325

	Energy change for the previous step:
		Projected    :        -0.0000087141
		Actual       :        -0.0000009580

	Performing BFGS update.
	Previous computed or guess Hessian on step 1.
	Steps to be used in Hessian update: 12 11
	Adding user-defined constraint: Fragment 1; Coordinate 61:
		Value =     0.776307; Fixed value    =     0.785400
		Force =     0.007275; Force constant =     0.800000
	Removing off-diagonal coupling between coordinate 61 and others.
	Taking RFO optimization step.
	Going to follow RFO solution 1.
	Rejecting RFO root 1 because normalization gives large value.
	Using RFO vector 2.
	Norm of target step-size    0.02345
	Projected energy change by RFO approximation:         0.0000053896

	Back-transformation to cartesian coordinates...
	Could not converge backtransformation.
	Using first guess instead.

	--- Internal Coordinate Step in ANG or DEG, aJ/ANG or AJ/DEG ---
	 ---------------------------------------------------------------------------
	   Coordinate                Previous        Force       Change         New 
	   ----------                --------       ------       ------       ------
	    1 R(1,3)          =      1.377409     0.000130    -0.000018     1.377390
	    2 R(1,9)          =      1.403365     0.000262     0.000042     1.403406
	    3 R(1,14)         =      1.084151    -0.000114    -0.000023     1.084128
	    4 R(2,4)          =      1.377350     0.000207    -0.000027     1.377323
	    5 R(2,9)          =      1.403092     0.000054    -0.000012     1.403079
	    6 R(2,15)         =      1.083873    -0.000253    -0.000010     1.083863
	    7 R(3,11)         =      1.435739    -0.000337    -0.000026     1.435713
	    8 R(3,16)         =      1.081837     0.000054    -0.000021     1.081816
	    9 R(4,11)         =      1.436199    -0.000233    -0.000020     1.436179
	   10 R(4,17)         =      1.081938     0.000048    -0.000016     1.081922
	   11 R(5,7)          =      1.383162     0.000063    -0.000033     1.383129
	   12 R(5,10)         =      1.400541     0.000630    -0.000053     1.400487
	   13 R(5,18)         =      1.080377    -0.000104    -0.000024     1.080353
	   14 R(6,8)          =      1.383704     0.000186    -0.000011     1.383693
	   15 R(6,10)         =      1.400285     0.000298    -0.000062     1.400223
	   16 R(6,19)         =      1.080021    -0.000147    -0.000034     1.079987
	   17 R(7,12)         =      1.339506     0.000098     0.000004     1.339509
	   18 R(7,20)         =      1.082812     0.000051    -0.000032     1.082780
	   19 R(8,12)         =      1.338956    -0.000137    -0.000014     1.338942
	   20 R(8,21)         =      1.082883     0.000026    -0.000021     1.082862
	   21 R(9,10)         =      1.442130     0.000466     0.000016     1.442146
	   22 R(11,13)        =      1.263876    -0.000297    -0.000018     1.263858
	   23 B(1,3,11)       =    122.915745    -0.000001     0.001394   122.917139
	   24 B(1,3,16)       =    120.121342     0.000001    -0.004712   120.116629
	   25 B(1,9,2)        =    116.718256    -0.000007    -0.018900   116.699356
	   26 B(1,9,10)       =    121.271109    -0.000001    -0.013102   121.258006
	   27 B(2,4,11)       =    122.987236     0.000001    -0.001427   122.985809
	   28 B(2,4,17)       =    120.112822     0.000000    -0.000452   120.112370
	   29 B(2,9,10)       =    121.678511     0.000007     0.000189   121.678701
	   30 B(3,1,9)        =    121.934152     0.000005     0.009305   121.943457
	   31 B(3,1,14)       =    119.233080    -0.000002    -0.000483   119.232597
	   32 B(3,11,4)       =    113.543700    -0.000001    -0.003888   113.539812
	   33 B(3,11,13)      =    123.265766     0.000001     0.003971   123.269736
	   34 B(4,2,9)        =    121.845114     0.000003     0.010788   121.855902
	   35 B(4,2,15)       =    119.184600    -0.000002    -0.002721   119.181879
	   36 B(4,11,13)      =    123.189467     0.000000     0.000778   123.190245
	   37 B(5,7,12)       =    124.236315    -0.000000    -0.000480   124.235835
	   38 B(5,7,20)       =    119.749883     0.000000    -0.001784   119.748098
	   39 B(5,10,6)       =    114.820017    -0.000006     0.008619   114.828636
	   40 B(5,10,9)       =    122.385192     0.000003     0.007975   122.393167
	   41 B(6,8,12)       =    124.319964     0.000001    -0.000917   124.319047
	   42 B(6,8,21)       =    119.699653    -0.000001    -0.003830   119.695823
	   43 B(6,10,9)       =    122.626213     0.000003     0.013727   122.639940
	   44 B(7,5,10)       =    120.629815     0.000003    -0.001032   120.628784
	   45 B(7,5,18)       =    119.806904    -0.000002     0.003986   119.810890
	   46 B(7,12,8)       =    115.406433    -0.000001     0.002019   115.408452
	   47 B(8,6,10)       =    120.553434     0.000003    -0.002363   120.551071
	   48 B(8,6,19)       =    119.784026    -0.000002     0.003795   119.787821
	   49 B(9,1,14)       =    118.808502    -0.000003    -0.007697   118.800806
	   50 B(9,2,15)       =    118.914107    -0.000002    -0.008724   118.905383
	   51 B(10,5,18)      =    119.559418    -0.000002    -0.002423   119.556994
	   52 B(10,6,19)      =    119.645288    -0.000001    -0.001000   119.644287
	   53 B(11,3,16)      =    116.956555    -0.000000     0.002477   116.959032
	   54 B(11,4,17)      =    116.899237    -0.000001     0.002193   116.901430
	   55 B(12,7,20)      =    116.000289     0.000000     0.004925   116.005214
	   56 B(12,8,21)      =    115.978224    -0.000001     0.005415   115.983639
	   57 D(1,3,11,4)     =     -1.098135     0.000000     0.203651    -0.894484
	   58 D(1,3,11,13)    =    179.267368    -0.000001    -0.322683   178.944685
	   59 D(1,9,2,4)      =     -2.813045    -0.000002    -0.114386    -2.927431
	   60 D(1,9,2,15)     =    179.936108    -0.000001    -0.098285   179.837824
	   61 D(1,9,10,5)     =     44.479094     0.000003    -0.059507    44.419588
	   62 D(1,9,10,6)     =   -140.485902     0.000004     0.408704  -140.077198
	   63 D(2,4,11,3)     =     -0.027597    -0.000001    -0.210787    -0.238383
	   64 D(2,4,11,13)    =    179.607219     0.000001     0.315083   179.922301
	   65 D(2,9,1,3)      =      1.695903     0.000002     0.107325     1.803228
	   66 D(2,9,1,14)     =   -176.497723     0.000001     0.064960  -176.432763
	   67 D(2,9,10,5)     =   -142.356366     0.000001    -0.379407  -142.735773
	   68 D(2,9,10,6)     =     32.678637     0.000002     0.088804    32.767442
	   69 D(3,1,9,10)     =    175.184966    -0.000001    -0.196092   174.988875
	   70 D(3,11,4,17)    =    179.666594    -0.000000    -0.132718   179.533876
	   71 D(4,2,9,10)     =   -176.273580     0.000001     0.191342  -176.082239
	   72 D(4,11,3,16)    =    177.984154     0.000000     0.144775   178.128929
	   73 D(5,7,12,8)     =      0.175273     0.000000     0.005540     0.180812
	   74 D(5,10,6,8)     =     -1.508160     0.000001     0.144403    -1.363757
	   75 D(5,10,6,19)    =   -179.994053     0.000001     0.125282  -179.868771
	   76 D(6,8,12,7)     =      0.574004    -0.000000    -0.062496     0.511508
	   77 D(6,10,5,7)     =      2.199705    -0.000001    -0.196976     2.002729
	   78 D(6,10,5,18)    =   -177.083982    -0.000001    -0.248025  -177.332007
	   79 D(7,5,10,9)     =    177.593406     0.000001     0.237628   177.831034
	   80 D(7,12,8,21)    =   -179.963949    -0.000001     0.028361  -179.935588
	   81 D(8,6,10,9)     =   -176.889469    -0.000000    -0.291102  -177.180572
	   82 D(8,12,7,20)    =    178.830145     0.000000     0.145186   178.975330
	   83 D(9,1,3,11)     =      0.257087    -0.000001    -0.164682     0.092405
	   84 D(9,1,3,16)     =   -178.797204    -0.000001    -0.104079  -178.901284
	   85 D(9,2,4,11)     =      2.035316     0.000001     0.179305     2.214621
	   86 D(9,2,4,17)     =   -177.649413     0.000001     0.098815  -177.550597
	   87 D(9,10,5,18)    =     -1.690282     0.000001     0.186579    -1.503702
	   88 D(9,10,6,19)    =      4.624637    -0.000000    -0.310223     4.314414
	   89 D(10,5,7,12)    =     -1.641998    -0.000000     0.130865    -1.511132
	   90 D(10,5,7,20)    =    179.750536     0.000000    -0.013778   179.736758
	   91 D(10,6,8,12)    =      0.142874    -0.000000    -0.016883     0.125991
	   92 D(10,6,8,21)    =   -179.300391     0.000000    -0.110952  -179.411343
	   93 D(10,9,1,14)    =     -3.008660    -0.000001    -0.238457    -3.247117
	   94 D(10,9,2,15)    =      6.475573     0.000002     0.207443     6.683016
	   95 D(11,3,1,14)    =    178.443269    -0.000001    -0.122265   178.321004
	   96 D(11,4,2,15)    =    179.278938     0.000000     0.163002   179.441940
	   97 D(12,7,5,18)    =    177.639924    -0.000000     0.181997   177.821921
	   98 D(12,8,6,19)    =    178.626673    -0.000000     0.002192   178.628866
	   99 D(13,11,3,16)   =     -1.650343    -0.000001    -0.381559    -2.031902
	  100 D(13,11,4,17)   =     -0.698591     0.000001     0.393152    -0.305439
	  101 D(14,1,3,16)    =     -0.611022    -0.000000    -0.061662    -0.672684
	  102 D(15,2,4,17)    =     -0.405790     0.000000     0.082512    -0.323278
	  103 D(18,5,7,20)    =     -0.967542     0.000000     0.037354    -0.930188
	  104 D(19,6,8,21)    =     -0.816592    -0.000000    -0.091876    -0.908468
	 ---------------------------------------------------------------------------
	Successfully symmetrized geometry.
	 Forces used to impose fixed constraints are not included.
	  Forces zeroed: 61 

  ==> Convergence Check <==

  Measures of convergence in internal coordinates in au.
  Criteria marked as inactive (o), active & met (*), and active & unmet ( ).
  ---------------------------------------------------------------------------------------------
   Step     Total Energy     Delta E     MAX Force     RMS Force      MAX Disp      RMS Disp   
  ---------------------------------------------------------------------------------------------
    Convergence Criteria    1.00e-06 *    3.00e-04 *             o    1.20e-03 *             o
  ---------------------------------------------------------------------------------------------
     13    -553.17669513   -9.58e-07 *    2.57e-04 *    4.68e-05 o    7.13e-03      2.30e-03 o  ~
  ---------------------------------------------------------------------------------------------


  **** Optimization is complete! (in 13 steps) ****

  ==> Optimization Summary <==

  Measures of convergence in internal coordinates in au.
  --------------------------------------------------------------------------------------------------------------- ~
   Step         Total Energy             Delta E       MAX Force       RMS Force        MAX Disp        RMS Disp  ~
  --------------------------------------------------------------------------------------------------------------- ~
      1    -553.166766023295   -553.166766023295      0.02629894      0.00661065      0.03896598      0.00979159  ~
      2    -553.172049321268     -0.005283297972      0.01565363      0.00394941      0.03884150      0.00979515  ~
      3    -553.174999643255     -0.002950321988      0.00725793      0.00191095      0.03795940      0.00980993  ~
      4    -553.176157227826     -0.001157584571      0.00205772      0.00061933      0.05665496      0.00980946  ~
      5    -553.176517543015     -0.000360315188      0.00126608      0.00026843      0.05838912      0.00980926  ~
      6    -553.176705778938     -0.000188235924      0.00072671      0.00017088      0.04005960      0.00733682  ~
      7    -553.176758173173     -0.000052394235      0.00112429      0.00017822      0.00690634      0.00130743  ~
      8    -553.176724854455      0.000033318718      0.00045908      0.00007563      0.00508577      0.00123478  ~
      9    -553.176721894633      0.000002959822      0.00046930      0.00007278      0.00311396      0.00081073  ~
     10    -553.176715622083      0.000006272550      0.00043063      0.00006941      0.01307196      0.00359163  ~
     11    -553.176679893876      0.000035728208      0.00031183      0.00009893      0.01405650      0.00343667  ~
     12    -553.176694174587     -0.000014280711      0.00018713      0.00005106      0.00548393      0.00158687  ~
     13    -553.176695132545     -0.000000957958      0.00025670      0.00005051      0.00713323      0.00229951  ~
  --------------------------------------------------------------------------------------------------------------- ~

	Writing optimization data to binary file.
	Final energy is   -553.1766951325445
	Final (previous) structure:
	Cartesian Geometry (in Angstrom)
	    C    -1.2612804469   0.8193025609  -0.5382022122
	    C    -0.3345477900   0.0782081876   1.5355932632
	    C    -2.3444333496   1.3499720544   0.1269475971
	    C    -1.4014240403   0.6246308820   2.2140405438
	    C     1.4947714853   0.1396586230  -1.6722828686
	    C     1.4247915310  -1.6739256645  -0.1640418239
	    C     2.5562334127  -0.4853463695  -2.3014118156
	    C     2.4985542222  -2.2186360263  -0.8459233700
	    C    -0.2117421144   0.1824958803   0.1417822925
	    C     0.8642255558  -0.4578941919  -0.5737127096
	    C    -2.4839665290   1.3002545829   1.5550246776
	    N     3.0786090614  -1.6562668782  -1.9136687796
	    O    -3.4682729686   1.7967237859   2.1731200800
	    H    -1.2290912452   0.8676748651  -1.6207955916
	    H     0.4552618022  -0.4081613146   2.0963302212
	    H    -3.1466580924   1.8175372257  -0.4282013502
	    H    -1.4488675389   0.5605507910   3.2930368872
	    H     1.1546509003   1.1033322330  -2.0228048830
	    H     0.9991988191  -2.2021373710   0.6763795112
	    H     3.0306679970  -0.0123724263  -3.1521113557
	    H     2.9140375279  -3.1654258799  -0.5240574691
	Saving final (previous) structure.
			--------------------------
			 OPTKING Finished Execution 
			--------------------------

    Final optimized geometry and variables:
    Molecular point group: c1
    Full point group: C1

    Geometry (in Angstrom), charge = -1, multiplicity = 1:

    C           -1.261280446850     0.819302560950    -0.538202212219
    C           -0.334547789994     0.078208187623     1.535593263206
    C           -2.344433349580     1.349972054361     0.126947597080
    C           -1.401424040323     0.624630881953     2.214040543770
    C            1.494771485331     0.139658622984    -1.672282868569
    C            1.424791531019    -1.673925664460    -0.164041823860
    C            2.556233412685    -0.485346369459    -2.301411815555
    C            2.498554222219    -2.218636026288    -0.845923370007
    C           -0.211742114426     0.182495880325     0.141782292519
    C            0.864225555843    -0.457894191853    -0.573712709612
    C           -2.483966528978     1.300254582895     1.555024677575
    N            3.078609061376    -1.656266878150    -1.913668779643
    O           -3.468272968617     1.796723785930     2.173120079956
    H           -1.229091245206     0.867674865053    -1.620795591553
    H            0.455261802173    -0.408161314613     2.096330221174
    H           -3.146658092423     1.817537225713    -0.428201350158
    H           -1.448867538908     0.560550790969     3.293036887178
    H            1.154650900255     1.103332233048    -2.022804882994
    H            0.999198819117    -2.202137370961     0.676379511176
    H            3.030667996963    -0.012372426291    -3.152111355690
    H            2.914037527942    -3.165425879932    -0.524057469054

	Cleaning optimization helper files.

*** Psi4 exiting successfully. Buy a developer a beer!
