
    -----------------------------------------------------------------------
          Psi4: An Open-Source Ab Initio Electronic Structure Package
                               Psi4 1.1 release

                         Git: Rev {HEAD} add49b9 


    R. M. Parrish, L. A. Burns, D. G. A. Smith, A. C. Simmonett,
    A. E. DePrince III, E. G. Hohenstein, U. Bozkaya, A. Yu. Sokolov,
    R. Di Remigio, R. M. Richard, J. F. Gonthier, A. M. James,
    H. R. McAlexander, A. Kumar, M. Saitow, X. Wang, B. P. Pritchard,
    P. Verma, H. F. Schaefer III, K. Patkowski, R. A. King, E. F. Valeev,
    F. A. Evangelista, J. M. Turney, T. D. Crawford, and C. D. Sherrill,
    J. Chem. Theory Comput. in press (2017).
    (doi: 10.1021/acs.jctc.7b00174)

    -----------------------------------------------------------------------


    Psi4 started on: Sunday, 12 November 2017 01:06AM

    Process ID:   4677
    PSIDATADIR: /cbio/jclab/home/chayas/anaconda/envs/py35/share/psi4
    Memory:     500.0 MiB
    Threads:    8
    
  ==> Input File <==

--------------------------------------------------------------------------

memory 5 Gb

molecule phepyrFOH_zwitterion {
  symmetry C1
  0 1 
  C      1.885   -1.036   -0.112
  C      0.807   -0.463   0.561
  C      4.517   -3.474   0.287
  C      4.635   -1.546   -1.153
  C      1.800   -1.079   2.676
  C      5.590   -4.018   -0.405
  C      5.705   -2.139   -1.809
  C      2.921   -1.631   0.608
  C      4.038   -2.224   -0.095
  C      0.764   -0.484   1.955
  C      2.878   -1.652   2.002
  N      6.146   -3.343   -1.421
  O      -0.227   0.043   2.574
  F      3.866   -2.220   2.709
  H      1.904   -1.013   -1.200
  H      0.011   -0.007   -0.025
  H      4.070   -4.026   1.108
  H      4.283   -0.569   -1.472
  H      1.791   -1.109   3.764
  H      6.026   -4.981   -0.179
  H      6.229   -1.687   -2.639
  H      6.934   -3.761   -1.915
  units Angstrom
}

dih_string = "1 8 9 3 225"
set optking fixed_dihedral = $dih_string

optimize('MP2/aug-cc-PVTZ')
--------------------------------------------------------------------------

  Memory set to   4.657 GiB by Python driver.
gradient() will perform analytic gradient computation.

*** tstart() called on gpu-1-14.local
*** at Sun Nov 12 01:06:17 2017

    SCF Algorithm Type (re)set to DF.

*** tstart() called on gpu-1-14.local
*** at Sun Nov 12 01:06:17 2017

   => Loading Basis Set <=

    Name: AUG-CC-PVTZ
    Role: ORBITAL
    Keyword: BASIS
    atoms 1-11  entry C          line   221 file /cbio/jclab/home/chayas/anaconda/envs/py35/share/psi4/basis/aug-cc-pvtz.gbs 
    atoms 12    entry N          line   267 file /cbio/jclab/home/chayas/anaconda/envs/py35/share/psi4/basis/aug-cc-pvtz.gbs 
    atoms 13    entry O          line   313 file /cbio/jclab/home/chayas/anaconda/envs/py35/share/psi4/basis/aug-cc-pvtz.gbs 
    atoms 14    entry F          line   359 file /cbio/jclab/home/chayas/anaconda/envs/py35/share/psi4/basis/aug-cc-pvtz.gbs 
    atoms 15-22 entry H          line    34 file /cbio/jclab/home/chayas/anaconda/envs/py35/share/psi4/basis/aug-cc-pvtz.gbs 


         ---------------------------------------------------------
                                   SCF
            by Justin Turney, Rob Parrish, and Andy Simmonett
                              RHF Reference
                        8 Threads,   4768 MiB Core
         ---------------------------------------------------------

  ==> Geometry <==

    Molecular point group: c1
    Full point group: C1

    Geometry (in Angstrom), charge = 0, multiplicity = 1:

       Center              X                  Y                   Z               Mass       
    ------------   -----------------  -----------------  -----------------  -----------------
           C         -1.361882805449     0.775816349955    -0.769684665444    12.000000000000
           C         -2.439882805449     1.348816349955    -0.096684665444    12.000000000000
           C          1.270117194551    -1.662183650045    -0.370684665444    12.000000000000
           C          1.388117194551     0.265816349955    -1.810684665444    12.000000000000
           C         -1.446882805449     0.732816349955     2.018315334556    12.000000000000
           C          2.343117194551    -2.206183650045    -1.062684665444    12.000000000000
           C          2.458117194551    -0.327183650045    -2.466684665444    12.000000000000
           C         -0.325882805449     0.180816349955    -0.049684665444    12.000000000000
           C          0.791117194551    -0.412183650045    -0.752684665444    12.000000000000
           C         -2.482882805449     1.327816349955     1.297315334556    12.000000000000
           C         -0.368882805449     0.159816349955     1.344315334556    12.000000000000
           N          2.899117194551    -1.531183650045    -2.078684665444    14.003074004780
           O         -3.473882805449     1.854816349955     1.916315334556    15.994914619560
           F          0.619117194551    -0.408183650045     2.051315334556    18.998403224000
           H         -1.342882805449     0.798816349955    -1.857684665444     1.007825032070
           H         -3.235882805449     1.804816349955    -0.682684665444     1.007825032070
           H          0.823117194551    -2.214183650045     0.450315334556     1.007825032070
           H          1.036117194551     1.242816349955    -2.129684665444     1.007825032070
           H         -1.455882805449     0.702816349955     3.106315334556     1.007825032070
           H          2.779117194551    -3.169183650045    -0.836684665444     1.007825032070
           H          2.982117194551     0.124816349955    -3.296684665444     1.007825032070
           H          3.687117194551    -1.949183650045    -2.572684665444     1.007825032070

  Running in c1 symmetry.

  Rotational constants: A =      0.06297  B =      0.01347  C =      0.01160 [cm^-1]
  Rotational constants: A =   1887.84212  B =    403.73972  C =    347.85931 [MHz]
  Nuclear repulsion =  818.201593602184857

  Charge       = 0
  Multiplicity = 1
  Electrons    = 98
  Nalpha       = 49
  Nbeta        = 49

  ==> Algorithm <==

  SCF Algorithm Type is DF.
  DIIS enabled.
  MOM disabled.
  Fractional occupation disabled.
  Guess Type is SAD.
  Energy threshold   = 1.00e-10
  Density threshold  = 1.00e-10
  Integral threshold = 0.00e+00

  ==> Primary Basis <==

  Basis Set: AUG-CC-PVTZ
    Blend: AUG-CC-PVTZ
    Number of shells: 268
    Number of basis function: 828
    Number of Cartesian functions: 970
    Spherical Harmonics?: true
    Max angular momentum: 3

   => Loading Basis Set <=

    Name: (AUG-CC-PVTZ AUX)
    Role: JKFIT
    Keyword: DF_BASIS_SCF
    atoms 1-11  entry C          line   161 file /cbio/jclab/home/chayas/anaconda/envs/py35/share/psi4/basis/aug-cc-pvtz-jkfit.gbs 
    atoms 12    entry N          line   223 file /cbio/jclab/home/chayas/anaconda/envs/py35/share/psi4/basis/aug-cc-pvtz-jkfit.gbs 
    atoms 13    entry O          line   285 file /cbio/jclab/home/chayas/anaconda/envs/py35/share/psi4/basis/aug-cc-pvtz-jkfit.gbs 
    atoms 14    entry F          line   347 file /cbio/jclab/home/chayas/anaconda/envs/py35/share/psi4/basis/aug-cc-pvtz-jkfit.gbs 
    atoms 15-22 entry H          line    69 file /cbio/jclab/home/chayas/anaconda/envs/py35/share/psi4/basis/aug-cc-pvtz-jkfit.gbs 

  ==> Pre-Iterations <==

   -------------------------------------------------------
    Irrep   Nso     Nmo     Nalpha   Nbeta   Ndocc  Nsocc
   -------------------------------------------------------
     A        828     828       0       0       0       0
   -------------------------------------------------------
    Total     828     828      49      49      49       0
   -------------------------------------------------------

  ==> Integral Setup <==

  ==> DFJK: Density-Fitted J/K Matrices <==

    J tasked:                  Yes
    K tasked:                  Yes
    wK tasked:                  No
    OpenMP threads:              8
    Integrals threads:           8
    Memory (MB):              3576
    Algorithm:                Disk
    Integral Cache:           NONE
    Schwarz Cutoff:          1E-12
    Fitting Condition:       1E-12

   => Auxiliary Basis Set <=

  Basis Set: (AUG-CC-PVTZ AUX)
    Blend: AUG-CC-PVTZ-JKFIT
    Number of shells: 532
    Number of basis function: 1824
    Number of Cartesian functions: 2274
    Spherical Harmonics?: true
    Max angular momentum: 4

  Minimum eigenvalue in the overlap matrix is 7.4632110341E-07.
  Using Symmetric Orthogonalization.

  SCF Guess: Superposition of Atomic Densities via on-the-fly atomic UHF.

  ==> Iterations <==

                           Total Energy        Delta E     RMS |[F,P]|

   @DF-RHF iter   0:  -658.14869528823726   -6.58149e+02   1.25355e-02 
   @DF-RHF iter   1:  -649.66637664961502    8.48232e+00   1.49676e-03 
   @DF-RHF iter   2:  -649.95274328732137   -2.86367e-01   1.04188e-03 DIIS
   @DF-RHF iter   3:  -650.07691084391013   -1.24168e-01   5.05302e-04 DIIS
   @DF-RHF iter   4:  -650.09814901821483   -2.12382e-02   1.63148e-04 DIIS
   @DF-RHF iter   5:  -650.10107085219204   -2.92183e-03   6.56028e-05 DIIS
   @DF-RHF iter   6:  -650.10169770305924   -6.26851e-04   2.05065e-05 DIIS
   @DF-RHF iter   7:  -650.10182457607004   -1.26873e-04   7.14489e-06 DIIS
   @DF-RHF iter   8:  -650.10184375129029   -1.91752e-05   3.39015e-06 DIIS
   @DF-RHF iter   9:  -650.10184842030731   -4.66902e-06   1.54836e-06 DIIS
   @DF-RHF iter  10:  -650.10184925297403   -8.32667e-07   6.58370e-07 DIIS
   @DF-RHF iter  11:  -650.10184943417357   -1.81200e-07   2.10688e-07 DIIS
   @DF-RHF iter  12:  -650.10184945846368   -2.42901e-08   1.18634e-07 DIIS
   @DF-RHF iter  13:  -650.10184946306128   -4.59761e-09   5.99337e-08 DIIS
   @DF-RHF iter  14:  -650.10184946435356   -1.29228e-09   2.01976e-08 DIIS
   @DF-RHF iter  15:  -650.10184946453910   -1.85537e-10   7.35249e-09 DIIS
   @DF-RHF iter  16:  -650.10184946458708   -4.79758e-11   3.51925e-09 DIIS
   @DF-RHF iter  17:  -650.10184946458082    6.25278e-12   1.92170e-09 DIIS
   @DF-RHF iter  18:  -650.10184946457230    8.52651e-12   6.20712e-10 DIIS
   @DF-RHF iter  19:  -650.10184946455308    1.92131e-11   3.10282e-10 DIIS
   @DF-RHF iter  20:  -650.10184946457582   -2.27374e-11   1.42466e-10 DIIS
   @DF-RHF iter  21:  -650.10184946457753   -1.70530e-12   6.73604e-11 DIIS

  ==> Post-Iterations <==

    Orbital Energies (a.u.)
    -----------------------

    Doubly Occupied:                                                      

       1A    -26.308755     2A    -20.425672     3A    -15.712647  
       4A    -11.367032     5A    -11.364238     6A    -11.317559  
       7A    -11.316830     8A    -11.295179     9A    -11.292793  
      10A    -11.245123    11A    -11.233502    12A    -11.219113  
      13A    -11.186584    14A    -11.185744    15A     -1.628640  
      16A     -1.394311    17A     -1.252393    18A     -1.187442  
      19A     -1.119219    20A     -1.114230    21A     -1.001165  
      22A     -0.994644    23A     -0.947768    24A     -0.911634  
      25A     -0.846501    26A     -0.829416    27A     -0.805653  
      28A     -0.749402    29A     -0.737570    30A     -0.710410  
      31A     -0.697435    32A     -0.691852    33A     -0.678601  
      34A     -0.670645    35A     -0.660175    36A     -0.614895  
      37A     -0.600879    38A     -0.590677    39A     -0.577582  
      40A     -0.537473    41A     -0.513967    42A     -0.497551  
      43A     -0.477032    44A     -0.465657    45A     -0.424553  
      46A     -0.396941    47A     -0.340263    48A     -0.321197  
      49A     -0.236421  

    Virtual:                                                              

      50A     -0.011543    51A      0.009252    52A      0.013601  
      53A      0.022412    54A      0.034542    55A      0.039146  
      56A      0.043458    57A      0.051108    58A      0.053249  
      59A      0.059427    60A      0.062730    61A      0.067783  
      62A      0.069141    63A      0.077531    64A      0.081704  
      65A      0.091603    66A      0.097899    67A      0.102982  
      68A      0.103747    69A      0.106014    70A      0.117424  
      71A      0.118280    72A      0.123767    73A      0.127148  
      74A      0.128606    75A      0.131454    76A      0.134258  
      77A      0.141132    78A      0.145232    79A      0.150486  
      80A      0.151194    81A      0.159614    82A      0.161985  
      83A      0.164011    84A      0.167946    85A      0.172892  
      86A      0.178256    87A      0.180373    88A      0.184616  
      89A      0.187034    90A      0.194015    91A      0.196311  
      92A      0.205354    93A      0.206807    94A      0.209160  
      95A      0.210996    96A      0.218916    97A      0.223509  
      98A      0.225380    99A      0.229194   100A      0.231773  
     101A      0.240682   102A      0.247076   103A      0.251286  
     104A      0.252196   105A      0.253649   106A      0.259522  
     107A      0.263220   108A      0.267777   109A      0.272969  
     110A      0.276380   111A      0.284402   112A      0.289986  
     113A      0.291440   114A      0.295652   115A      0.297692  
     116A      0.303409   117A      0.304931   118A      0.313091  
     119A      0.317404   120A      0.319130   121A      0.321368  
     122A      0.328268   123A      0.331456   124A      0.339063  
     125A      0.341845   126A      0.345892   127A      0.348269  
     128A      0.352951   129A      0.356387   130A      0.359723  
     131A      0.362037   132A      0.362851   133A      0.375034  
     134A      0.377092   135A      0.379717   136A      0.383676  
     137A      0.385332   138A      0.397791   139A      0.400352  
     140A      0.401274   141A      0.412680   142A      0.413934  
     143A      0.418682   144A      0.420673   145A      0.426238  
     146A      0.430800   147A      0.438584   148A      0.440393  
     149A      0.444997   150A      0.448443   151A      0.453321  
     152A      0.455231   153A      0.457015   154A      0.463721  
     155A      0.468121   156A      0.470977   157A      0.473174  
     158A      0.479916   159A      0.484892   160A      0.487990  
     161A      0.489270   162A      0.492380   163A      0.492533  
     164A      0.495439   165A      0.497801   166A      0.500241  
     167A      0.503472   168A      0.507215   169A      0.514433  
     170A      0.524380   171A      0.525586   172A      0.527867  
     173A      0.533050   174A      0.536923   175A      0.545033  
     176A      0.546488   177A      0.550996   178A      0.558092  
     179A      0.564033   180A      0.568158   181A      0.569737  
     182A      0.579102   183A      0.588801   184A      0.591183  
     185A      0.598572   186A      0.599135   187A      0.601640  
     188A      0.607963   189A      0.612339   190A      0.624204  
     191A      0.631271   192A      0.639423   193A      0.644254  
     194A      0.649974   195A      0.656654   196A      0.661601  
     197A      0.664523   198A      0.670377   199A      0.673916  
     200A      0.681043   201A      0.684824   202A      0.691057  
     203A      0.694865   204A      0.702751   205A      0.706750  
     206A      0.712299   207A      0.720199   208A      0.722789  
     209A      0.727843   210A      0.730704   211A      0.734628  
     212A      0.740783   213A      0.750729   214A      0.752185  
     215A      0.759123   216A      0.764254   217A      0.764966  
     218A      0.775591   219A      0.779944   220A      0.789575  
     221A      0.794433   222A      0.801936   223A      0.809949  
     224A      0.816377   225A      0.819747   226A      0.826264  
     227A      0.836127   228A      0.843877   229A      0.850357  
     230A      0.853088   231A      0.857735   232A      0.865930  
     233A      0.871295   234A      0.874122   235A      0.876757  
     236A      0.880944   237A      0.885304   238A      0.887069  
     239A      0.898644   240A      0.906432   241A      0.908428  
     242A      0.912467   243A      0.916372   244A      0.917644  
     245A      0.921640   246A      0.926165   247A      0.929668  
     248A      0.936242   249A      0.944408   250A      0.945481  
     251A      0.955207   252A      0.958144   253A      0.960051  
     254A      0.963783   255A      0.972579   256A      0.979817  
     257A      0.984478   258A      0.992036   259A      0.994221  
     260A      1.004614   261A      1.009784   262A      1.013253  
     263A      1.014267   264A      1.017364   265A      1.020399  
     266A      1.022434   267A      1.024695   268A      1.032832  
     269A      1.036202   270A      1.041327   271A      1.044307  
     272A      1.047294   273A      1.052559   274A      1.058985  
     275A      1.060859   276A      1.069391   277A      1.073195  
     278A      1.077618   279A      1.078988   280A      1.087271  
     281A      1.090592   282A      1.092736   283A      1.096916  
     284A      1.102087   285A      1.105215   286A      1.111665  
     287A      1.113816   288A      1.121369   289A      1.127269  
     290A      1.136936   291A      1.141528   292A      1.145545  
     293A      1.149708   294A      1.152679   295A      1.158989  
     296A      1.164413   297A      1.171593   298A      1.179226  
     299A      1.182092   300A      1.185838   301A      1.188568  
     302A      1.194961   303A      1.201792   304A      1.206324  
     305A      1.214534   306A      1.219331   307A      1.225846  
     308A      1.228895   309A      1.231401   310A      1.237407  
     311A      1.239434   312A      1.248358   313A      1.257448  
     314A      1.259011   315A      1.263068   316A      1.273728  
     317A      1.274799   318A      1.278913   319A      1.284425  
     320A      1.293238   321A      1.304420   322A      1.306869  
     323A      1.311825   324A      1.326112   325A      1.331188  
     326A      1.337733   327A      1.347361   328A      1.348727  
     329A      1.356279   330A      1.357951   331A      1.372656  
     332A      1.376854   333A      1.378783   334A      1.381192  
     335A      1.394141   336A      1.402953   337A      1.403563  
     338A      1.408670   339A      1.420849   340A      1.429938  
     341A      1.435047   342A      1.438270   343A      1.447949  
     344A      1.453637   345A      1.459555   346A      1.464072  
     347A      1.474662   348A      1.477798   349A      1.483645  
     350A      1.495543   351A      1.497612   352A      1.507360  
     353A      1.516767   354A      1.522694   355A      1.531871  
     356A      1.535498   357A      1.541080   358A      1.559011  
     359A      1.562624   360A      1.568051   361A      1.584085  
     362A      1.594562   363A      1.597375   364A      1.612593  
     365A      1.622486   366A      1.626602   367A      1.628903  
     368A      1.632138   369A      1.640014   370A      1.642017  
     371A      1.643887   372A      1.664675   373A      1.674139  
     374A      1.679042   375A      1.682648   376A      1.689038  
     377A      1.694697   378A      1.711376   379A      1.716851  
     380A      1.722059   381A      1.738607   382A      1.740718  
     383A      1.746434   384A      1.767635   385A      1.770068  
     386A      1.776079   387A      1.782789   388A      1.792165  
     389A      1.802574   390A      1.814107   391A      1.814934  
     392A      1.820717   393A      1.822931   394A      1.828721  
     395A      1.841209   396A      1.848223   397A      1.860466  
     398A      1.871015   399A      1.876817   400A      1.880199  
     401A      1.900898   402A      1.905168   403A      1.914703  
     404A      1.927807   405A      1.929257   406A      1.933538  
     407A      1.942136   408A      1.948832   409A      1.953589  
     410A      1.968269   411A      1.969798   412A      1.973569  
     413A      1.983055   414A      1.994470   415A      1.998511  
     416A      2.008374   417A      2.016315   418A      2.017148  
     419A      2.020648   420A      2.029584   421A      2.031492  
     422A      2.042997   423A      2.048374   424A      2.058259  
     425A      2.063940   426A      2.076143   427A      2.079681  
     428A      2.090832   429A      2.102362   430A      2.116798  
     431A      2.124612   432A      2.132604   433A      2.142390  
     434A      2.148238   435A      2.150556   436A      2.167652  
     437A      2.174770   438A      2.181818   439A      2.187722  
     440A      2.200944   441A      2.201980   442A      2.212001  
     443A      2.218168   444A      2.220680   445A      2.241107  
     446A      2.260370   447A      2.276984   448A      2.280105  
     449A      2.300526   450A      2.303054   451A      2.309052  
     452A      2.317950   453A      2.323980   454A      2.334935  
     455A      2.351445   456A      2.352891   457A      2.355048  
     458A      2.364543   459A      2.383483   460A      2.386222  
     461A      2.398986   462A      2.405838   463A      2.424714  
     464A      2.435276   465A      2.446123   466A      2.448639  
     467A      2.471064   468A      2.486287   469A      2.487557  
     470A      2.496534   471A      2.499316   472A      2.507375  
     473A      2.523134   474A      2.534983   475A      2.538616  
     476A      2.546810   477A      2.551273   478A      2.555520  
     479A      2.568161   480A      2.592276   481A      2.611746  
     482A      2.628057   483A      2.644150   484A      2.645998  
     485A      2.666631   486A      2.676321   487A      2.682656  
     488A      2.701958   489A      2.718470   490A      2.726812  
     491A      2.735628   492A      2.757650   493A      2.761592  
     494A      2.767297   495A      2.785502   496A      2.799286  
     497A      2.835578   498A      2.851008   499A      2.867814  
     500A      2.883609   501A      2.903461   502A      2.912678  
     503A      2.928083   504A      2.963258   505A      2.976541  
     506A      2.994713   507A      3.026815   508A      3.045840  
     509A      3.055557   510A      3.073728   511A      3.081729  
     512A      3.099100   513A      3.103865   514A      3.113486  
     515A      3.127619   516A      3.150580   517A      3.155334  
     518A      3.167449   519A      3.177758   520A      3.193196  
     521A      3.212211   522A      3.218888   523A      3.241754  
     524A      3.245412   525A      3.262359   526A      3.278954  
     527A      3.290865   528A      3.309108   529A      3.315177  
     530A      3.324093   531A      3.330050   532A      3.346770  
     533A      3.359747   534A      3.362799   535A      3.369281  
     536A      3.380228   537A      3.391734   538A      3.397044  
     539A      3.410760   540A      3.422445   541A      3.441141  
     542A      3.450450   543A      3.461908   544A      3.469894  
     545A      3.476291   546A      3.482265   547A      3.492199  
     548A      3.502601   549A      3.511532   550A      3.513856  
     551A      3.522963   552A      3.526202   553A      3.536466  
     554A      3.549130   555A      3.557341   556A      3.562236  
     557A      3.572949   558A      3.574518   559A      3.590286  
     560A      3.599132   561A      3.611451   562A      3.625903  
     563A      3.629136   564A      3.639970   565A      3.648461  
     566A      3.659137   567A      3.662878   568A      3.676868  
     569A      3.680348   570A      3.696136   571A      3.704264  
     572A      3.705981   573A      3.714152   574A      3.723151  
     575A      3.725797   576A      3.746149   577A      3.760035  
     578A      3.768326   579A      3.777802   580A      3.783330  
     581A      3.789276   582A      3.796507   583A      3.805862  
     584A      3.812110   585A      3.828274   586A      3.833804  
     587A      3.841902   588A      3.843390   589A      3.851937  
     590A      3.865367   591A      3.878823   592A      3.887423  
     593A      3.901595   594A      3.907121   595A      3.909540  
     596A      3.911198   597A      3.922822   598A      3.937433  
     599A      3.945877   600A      3.959886   601A      3.968608  
     602A      3.972721   603A      3.979896   604A      3.987708  
     605A      3.996833   606A      4.004981   607A      4.008243  
     608A      4.012780   609A      4.024841   610A      4.027893  
     611A      4.037767   612A      4.046035   613A      4.052091  
     614A      4.065654   615A      4.077660   616A      4.094126  
     617A      4.098239   618A      4.103878   619A      4.109997  
     620A      4.123709   621A      4.139683   622A      4.151670  
     623A      4.158170   624A      4.167157   625A      4.174952  
     626A      4.192691   627A      4.199513   628A      4.202598  
     629A      4.210609   630A      4.230462   631A      4.237829  
     632A      4.245864   633A      4.257784   634A      4.262164  
     635A      4.271009   636A      4.285904   637A      4.296213  
     638A      4.300725   639A      4.307898   640A      4.319887  
     641A      4.335438   642A      4.339833   643A      4.344439  
     644A      4.359402   645A      4.363429   646A      4.369887  
     647A      4.371400   648A      4.382275   649A      4.388596  
     650A      4.388835   651A      4.393781   652A      4.406754  
     653A      4.417110   654A      4.418897   655A      4.426461  
     656A      4.444830   657A      4.451713   658A      4.469885  
     659A      4.476171   660A      4.491805   661A      4.498447  
     662A      4.519180   663A      4.521334   664A      4.539843  
     665A      4.542191   666A      4.565252   667A      4.572581  
     668A      4.581474   669A      4.602477   670A      4.611660  
     671A      4.625070   672A      4.634617   673A      4.647048  
     674A      4.670709   675A      4.679758   676A      4.702186  
     677A      4.716851   678A      4.726044   679A      4.744005  
     680A      4.763879   681A      4.766566   682A      4.771575  
     683A      4.778119   684A      4.797896   685A      4.800165  
     686A      4.810803   687A      4.830219   688A      4.860736  
     689A      4.863764   690A      4.880528   691A      4.891435  
     692A      4.900808   693A      4.916676   694A      4.924937  
     695A      4.941367   696A      4.952826   697A      4.958092  
     698A      4.962932   699A      4.978864   700A      5.004626  
     701A      5.024217   702A      5.025544   703A      5.046000  
     704A      5.056611   705A      5.065789   706A      5.078957  
     707A      5.083806   708A      5.093185   709A      5.117368  
     710A      5.123427   711A      5.138300   712A      5.151881  
     713A      5.162211   714A      5.173550   715A      5.180974  
     716A      5.189253   717A      5.197714   718A      5.212209  
     719A      5.233875   720A      5.240295   721A      5.255678  
     722A      5.262502   723A      5.290316   724A      5.299783  
     725A      5.324241   726A      5.326870   727A      5.347479  
     728A      5.371420   729A      5.380556   730A      5.393033  
     731A      5.410216   732A      5.414008   733A      5.450156  
     734A      5.459538   735A      5.503875   736A      5.507276  
     737A      5.519625   738A      5.560378   739A      5.568265  
     740A      5.593234   741A      5.617196   742A      5.641304  
     743A      5.653628   744A      5.686418   745A      5.715724  
     746A      5.727068   747A      5.731238   748A      5.749481  
     749A      5.767737   750A      5.803147   751A      5.817975  
     752A      5.837211   753A      5.842412   754A      5.896253  
     755A      5.919020   756A      5.956720   757A      5.969759  
     758A      6.011589   759A      6.050899   760A      6.059694  
     761A      6.100645   762A      6.114085   763A      6.156672  
     764A      6.182419   765A      6.252203   766A      6.283730  
     767A      6.290769   768A      6.314940   769A      6.361320  
     770A      6.422497   771A      6.445792   772A      6.484115  
     773A      6.515259   774A      6.550171   775A      6.581966  
     776A      6.641272   777A      6.682679   778A      6.696553  
     779A      6.777532   780A      6.778325   781A      6.785411  
     782A      6.863267   783A      6.868867   784A      6.896966  
     785A      6.950870   786A      6.972349   787A      7.038330  
     788A      7.069799   789A      7.093745   790A      7.180991  
     791A      7.210628   792A      7.236281   793A      7.473156  
     794A      7.489316   795A      7.522811   796A      7.572489  
     797A      7.657203   798A      7.800371   799A      7.817902  
     800A      7.902047   801A      8.025654   802A      8.096329  
     803A      9.064083   804A      9.082874   805A      9.285168  
     806A      9.307174   807A      9.432512   808A      9.540664  
     809A      9.573778   810A      9.627681   811A      9.660098  
     812A      9.735787   813A     10.053082   814A     10.106310  
     815A     15.853267   816A     16.112412   817A     16.299287  
     818A     16.597645   819A     16.797269   820A     17.073960  
     821A     18.912182   822A     19.371864   823A     19.658510  
     824A     19.885975   825A     20.230239   826A     20.388455  
     827A     20.448213   828A     21.848774  

    Final Occupation by Irrep:
              A 
    DOCC [    49 ]

  Energy converged.

  @DF-RHF Final Energy:  -650.10184946457753

   => Energetics <=

    Nuclear Repulsion Energy =            818.2015936021848574
    One-Electron Energy =               -2511.2169577362415112
    Two-Electron Energy =                1042.9135146694791274
    DFT Exchange-Correlation Energy =       0.0000000000000000
    Empirical Dispersion Energy =           0.0000000000000000
    PCM Polarization Energy =               0.0000000000000000
    EFP Energy =                            0.0000000000000000
    Total Energy =                       -650.1018494645775263



Properties will be evaluated at   0.000000,   0.000000,   0.000000 Bohr

Properties computed using the SCF density matrix

  Nuclear Dipole Moment: (a.u.)
     X:     4.3341      Y:    -2.0938      Z:    -9.2504

  Electronic Dipole Moment: (a.u.)
     X:     1.4831      Y:    -0.9870      Z:     5.0064

  Dipole Moment: (a.u.)
     X:     5.8171      Y:    -3.0808      Z:    -4.2440     Total:     7.8321

  Dipole Moment: (Debye)
     X:    14.7857      Y:    -7.8307      Z:   -10.7872     Total:    19.9073


*** tstop() called on gpu-1-14.local at Sun Nov 12 01:15:31 2017
Module time:
	user time   =    1274.65 seconds =      21.24 minutes
	system time =      55.96 seconds =       0.93 minutes
	total time  =        554 seconds =       9.23 minutes
Total time:
	user time   =    1274.65 seconds =      21.24 minutes
	system time =      55.96 seconds =       0.93 minutes
	total time  =        554 seconds =       9.23 minutes

  //>>>>>>>>>>>>>>>>>>>>>>>>>>>>>>>>>>>//
  //               DFMP2               //
  //<<<<<<<<<<<<<<<<<<<<<<<<<<<<<<<<<<<//

   => Loading Basis Set <=

    Name: (AUG-CC-PVTZ AUX)
    Role: RIFIT
    Keyword: DF_BASIS_MP2
    atoms 1-11  entry C          line   147 file /cbio/jclab/home/chayas/anaconda/envs/py35/share/psi4/basis/aug-cc-pvtz-ri.gbs 
    atoms 12    entry N          line   205 file /cbio/jclab/home/chayas/anaconda/envs/py35/share/psi4/basis/aug-cc-pvtz-ri.gbs 
    atoms 13    entry O          line   263 file /cbio/jclab/home/chayas/anaconda/envs/py35/share/psi4/basis/aug-cc-pvtz-ri.gbs 
    atoms 14    entry F          line   321 file /cbio/jclab/home/chayas/anaconda/envs/py35/share/psi4/basis/aug-cc-pvtz-ri.gbs 
    atoms 15-22 entry H          line    29 file /cbio/jclab/home/chayas/anaconda/envs/py35/share/psi4/basis/aug-cc-pvtz-ri.gbs 

	 --------------------------------------------------------
	                          DF-MP2                         
	      2nd-Order Density-Fitted Moller-Plesset Theory     
	              RMP2 Wavefunction,   8 Threads             
	                                                         
	        Rob Parrish, Justin Turney, Andy Simmonett,      
	           Ed Hohenstein, and C. David Sherrill          
	 --------------------------------------------------------

   => Auxiliary Basis Set <=

  Basis Set: (AUG-CC-PVTZ AUX)
    Blend: AUG-CC-PVTZ-RI
    Number of shells: 504
    Number of basis function: 1852
    Number of Cartesian functions: 2344
    Spherical Harmonics?: true
    Max angular momentum: 4

	 --------------------------------------------------------
	                 NBF =   828, NAUX =  1852
	 --------------------------------------------------------
	   CLASS    FOCC     OCC    AOCC    AVIR     VIR    FVIR
	   PAIRS       0      49      49     779     779       0
	 --------------------------------------------------------


         ------------------------------------------------------------
                                     CPHF                           
                                  Rob Parrish                       
         ------------------------------------------------------------

  ==> Geometry <==

    Molecular point group: c1
    Full point group: C1

    Geometry (in Angstrom), charge = 0, multiplicity = 1:

       Center              X                  Y                   Z               Mass       
    ------------   -----------------  -----------------  -----------------  -----------------
           C         -1.361882805449     0.775816349955    -0.769684665444    12.000000000000
           C         -2.439882805449     1.348816349955    -0.096684665444    12.000000000000
           C          1.270117194551    -1.662183650045    -0.370684665444    12.000000000000
           C          1.388117194551     0.265816349955    -1.810684665444    12.000000000000
           C         -1.446882805449     0.732816349955     2.018315334556    12.000000000000
           C          2.343117194551    -2.206183650045    -1.062684665444    12.000000000000
           C          2.458117194551    -0.327183650045    -2.466684665444    12.000000000000
           C         -0.325882805449     0.180816349955    -0.049684665444    12.000000000000
           C          0.791117194551    -0.412183650045    -0.752684665444    12.000000000000
           C         -2.482882805449     1.327816349955     1.297315334556    12.000000000000
           C         -0.368882805449     0.159816349955     1.344315334556    12.000000000000
           N          2.899117194551    -1.531183650045    -2.078684665444    14.003074004780
           O         -3.473882805449     1.854816349955     1.916315334556    15.994914619560
           F          0.619117194551    -0.408183650045     2.051315334556    18.998403224000
           H         -1.342882805449     0.798816349955    -1.857684665444     1.007825032070
           H         -3.235882805449     1.804816349955    -0.682684665444     1.007825032070
           H          0.823117194551    -2.214183650045     0.450315334556     1.007825032070
           H          1.036117194551     1.242816349955    -2.129684665444     1.007825032070
           H         -1.455882805449     0.702816349955     3.106315334556     1.007825032070
           H          2.779117194551    -3.169183650045    -0.836684665444     1.007825032070
           H          2.982117194551     0.124816349955    -3.296684665444     1.007825032070
           H          3.687117194551    -1.949183650045    -2.572684665444     1.007825032070

  Nuclear repulsion =  818.201593602184857
  Reference energy  = -650.101849464577526

  ==> Basis Set <==

  Basis Set: AUG-CC-PVTZ
    Blend: AUG-CC-PVTZ
    Number of shells: 268
    Number of basis function: 828
    Number of Cartesian functions: 970
    Spherical Harmonics?: true
    Max angular momentum: 3

  ==> CGRSolver (by Rob Parrish) <==

   Number of roots    =         1
   Preconditioning    =    JACOBI
   Convergence cutoff =     1E-06
   Maximum iterations =       100

  ==> CPHFRHamiltonian (by Rob Parrish) <== 

  ==> DFJK: Density-Fitted J/K Matrices <==

    J tasked:                  Yes
    K tasked:                  Yes
    wK tasked:                  No
    OpenMP threads:              8
    Integrals threads:           8
    Memory (MB):              3576
    Algorithm:                Disk
    Integral Cache:           NONE
    Schwarz Cutoff:          1E-12
    Fitting Condition:       1E-12

   => Auxiliary Basis Set <=

  Basis Set: (AUG-CC-PVTZ AUX)
    Blend: AUG-CC-PVTZ-JKFIT
    Number of shells: 532
    Number of basis function: 1824
    Number of Cartesian functions: 2274
    Spherical Harmonics?: true
    Max angular momentum: 4

  ==> CPHF Iterations <==

  => Iterations <=

             Iter  Converged  Remaining    Residual
  CGR           1          0          1   1.558E-01
  CGR           2          0          1   6.160E-02
  CGR           3          0          1   3.103E-02
  CGR           4          0          1   9.181E-03
  CGR           5          0          1   3.220E-03
  CGR           6          0          1   1.266E-03
  CGR           7          0          1   5.213E-04
  CGR           8          0          1   2.070E-04
  CGR           9          0          1   9.394E-05
  CGR          10          0          1   4.292E-05
  CGR          11          0          1   1.872E-05
  CGR          12          0          1   5.378E-06
  CGR          13          0          1   2.379E-06
  CGR          14          1          0   9.436E-07

    CGRSolver converged.

  ==> DFCorrGrad: Density-Fitted Correlated Gradients <==

    OpenMP threads:              8
    Integrals threads:           8
    Memory (MB):              3576
    Schwarz Cutoff:          0E+00
    Fitting Condition:       1E-12

   => Auxiliary Basis Set <=

  Basis Set: (AUG-CC-PVTZ AUX)
    Blend: AUG-CC-PVTZ-JKFIT
    Number of shells: 532
    Number of basis function: 1824
    Number of Cartesian functions: 2274
    Spherical Harmonics?: true
    Max angular momentum: 4

	-----------------------------------------------------------
	 ==================> DF-MP2 Energies <==================== 
	-----------------------------------------------------------
	 Reference Energy          =    -650.1018494645775263 [Eh]
	 Singles Energy            =      -0.0000000000000002 [Eh]
	 Same-Spin Energy          =      -0.6790992946817074 [Eh]
	 Opposite-Spin Energy      =      -2.0264135905810319 [Eh]
	 Correlation Energy        =      -2.7055128852627397 [Eh]
	 Total Energy              =    -652.8073623498402185 [Eh]
	-----------------------------------------------------------
	 ================> DF-SCS-MP2 Energies <================== 
	-----------------------------------------------------------
	 SCS Same-Spin Scale       =       0.3333333333333333 [-]
	 SCS Opposite-Spin Scale   =       1.2000000000000000 [-]
	 SCS Same-Spin Energy      =      -0.2263664315605691 [Eh]
	 SCS Opposite-Spin Energy  =      -2.4316963086972381 [Eh]
	 SCS Correlation Energy    =      -2.6580627402578076 [Eh]
	 SCS Total Energy          =    -652.7599122048353593 [Eh]
	-----------------------------------------------------------


  -Total Gradient:
     Atom            X                  Y                   Z
    ------   -----------------  -----------------  -----------------
       1        0.028167475737    -0.029888328562    -0.007430931838
       2       -0.026852392487     0.013437590901     0.053925887418
       3       -0.033439532091     0.020673584664     0.005590657916
       4       -0.022149712187     0.009770775753     0.030526404641
       5       -0.056310090659     0.030828847102    -0.003252084043
       6        0.017958177068     0.005051999206    -0.024031724676
       7        0.018711382226    -0.023375836971     0.001817062283
       8       -0.044354767755     0.023425373393     0.022665023967
       9        0.043731963504    -0.022886693302    -0.030127645858
      10        0.063755239804    -0.033891933412    -0.039810047360
      11        0.052139824761    -0.013799863573    -0.020623362049
      12       -0.016951320776     0.008726107914     0.010278347190
      13       -0.021122929007     0.011245585690     0.012334177963
      14       -0.009164052548     0.003746555482    -0.000489850092
      15       -0.002048795059     0.002273607202    -0.005043004342
      16       -0.001949025801     0.003193905766    -0.008827032220
      17       -0.002305865383    -0.003296520021     0.005730579083
      18       -0.002603489507     0.005246261239    -0.003100693183
      19        0.002598545893    -0.003459046928     0.007433470089
      20        0.002675776133    -0.001691828082     0.000172325641
      21        0.001384782607    -0.000830513782    -0.002586577951
      22        0.008128805526    -0.004499629683    -0.005150982568


*** tstop() called on gpu-1-14.local at Sun Nov 12 01:54:11 2017
Module time:
	user time   =    6041.38 seconds =     100.69 minutes
	system time =     118.79 seconds =       1.98 minutes
	total time  =       2874 seconds =      47.90 minutes
Total time:
	user time   =    6041.38 seconds =     100.69 minutes
	system time =     118.79 seconds =       1.98 minutes
	total time  =       2874 seconds =      47.90 minutes

			-----------------------------------------
			 OPTKING 2.0: for geometry optimizations 
			  - R.A. King,  Bethel University        
			-----------------------------------------

	Internal coordinates to be generated automatically.
	Detected frag 1 with atoms:  1 2 3 4 5 6 7 8 9 10 11 12 13 14 15 16 17 18 19 20
	 21 22
	---Fragment 1 Bond Connectivity---
	 1 : 2 8 15
	 2 : 1 10 16
	 3 : 6 9 17
	 4 : 7 9 18
	 5 : 10 11 19
	 6 : 3 12 20
	 7 : 4 12 21
	 8 : 1 9 11
	 9 : 3 4 8
	 10 : 2 5 13
	 11 : 5 8 14
	 12 : 6 7 22
	 13 : 10
	 14 : 11
	 15 : 1
	 16 : 2
	 17 : 3
	 18 : 4
	 19 : 5
	 20 : 6
	 21 : 7
	 22 : 12

	Assuming in current code that numbering for constraints corresponds to unified fragment.
	Fixed dihedral atom list: 
	     1     8     9     3
	---Fragment 1 Geometry and Gradient---
	 C          -2.5735855274        1.4660804308       -1.4544932264
	 C          -4.6107102986        2.5488935050       -0.1827075389
	 C           2.4001736544       -3.1410718811       -0.7004924993
	 C           2.6231613381        0.5023201031       -3.4216981307
	 C          -2.7342122487        1.3848222071        3.8140632321
	 C           4.4278497950       -4.1690828974       -2.0081829833
	 C           4.6451683002       -0.6182874937       -4.6613584739
	 C          -0.6158292537        0.3416933818       -0.0938904107
	 C           1.4949948367       -0.7789142150       -1.4223678821
	 C          -4.6919685223        2.5092092562        2.4515706903
	 C          -0.6970874774        0.3020091330        2.5403878185
	 N           5.4785375248       -2.8935177577       -3.9281447343
	 O          -6.5646871200        3.5050949282        3.6213111666
	 F           1.1699619419       -0.7713553105        3.8764241945
	 H          -2.5376807309        1.5095441319       -3.5105152590
	 H          -6.1149323004        3.4106086216       -1.2900870528
	 H           1.5554660730       -4.1842007065        0.8509726557
	 H           1.9579777393        2.3485825349       -4.0245207671
	 H          -2.7512197839        1.3281304231        5.8700852647
	 H           5.2517703889       -5.9888891634       -1.5811048773
	 H           5.6353847939        0.2358687183       -6.2298311642
	 H           6.9676417176       -3.6834232813       -4.8616694440
	             0.0281674757       -0.0298883286       -0.0074309318
	            -0.0268523925        0.0134375909        0.0539258874
	            -0.0334395321        0.0206735847        0.0055906579
	            -0.0221497122        0.0097707758        0.0305264046
	            -0.0563100907        0.0308288471       -0.0032520840
	             0.0179581771        0.0050519992       -0.0240317247
	             0.0187113822       -0.0233758370        0.0018170623
	            -0.0443547678        0.0234253734        0.0226650240
	             0.0437319635       -0.0228866933       -0.0301276459
	             0.0637552398       -0.0338919334       -0.0398100474
	             0.0521398248       -0.0137998636       -0.0206233620
	            -0.0169513208        0.0087261079        0.0102783472
	            -0.0211229290        0.0112455857        0.0123341780
	            -0.0091640525        0.0037465555       -0.0004898501
	            -0.0020487951        0.0022736072       -0.0050430043
	            -0.0019490258        0.0031939058       -0.0088270322
	            -0.0023058654       -0.0032965200        0.0057305791
	            -0.0026034895        0.0052462612       -0.0031006932
	             0.0025985459       -0.0034590469        0.0074334701
	             0.0026757761       -0.0016918281        0.0001723256
	             0.0013847826       -0.0008305138       -0.0025865780
	             0.0081288055       -0.0044996297       -0.0051509826

	Previous optimization step data not found.  Starting new optimization.

	---Fragment 1 Intrafragment Coordinates---
	 - Coordinate -           - BOHR/RAD -       - ANG/DEG -
	 R(1,2)           =         2.634350	       1.394038
	 R(1,8)           =         2.635962	       1.394891
	 R(1,15)          =         2.056795	       1.088409
	 R(2,10)          =         2.635830	       1.394821
	 R(2,16)          =         2.057067	       1.088553
	 R(3,6)           =         2.622657	       1.387850
	 R(3,9)           =         2.630635	       1.392072
	 R(3,17)          =         2.051510	       1.085612
	 R(4,7)           =         2.623172	       1.388123
	 R(4,9)           =         2.629000	       1.391207
	 R(4,18)          =         2.052937	       1.086367
	 R(5,10)          =         2.636938	       1.395407
	 R(5,11)          =         2.635263	       1.394521
	 R(5,19)          =         2.056874	       1.088451
	 R(6,12)          =         2.533232	       1.340529
	 R(6,20)          =         2.042776	       1.080991
	 R(7,12)          =         2.531557	       1.339642
	 R(7,21)          =         2.042111	       1.080639
	 R(8,9)           =         2.734263	       1.446909
	 R(8,11)          =         2.635830	       1.394821
	 R(10,13)         =         2.422221	       1.281784
	 R(11,14)         =         2.534359	       1.341125
	 R(12,22)         =         1.926876	       1.019659
	 B(1,2,10)        =         2.094553	     120.009056
	 B(1,2,16)        =         2.068903	     118.539404
	 B(1,8,9)         =         2.091392	     119.827938
	 B(1,8,11)        =         2.093692	     119.959722
	 B(2,1,8)         =         2.094940	     120.031219
	 B(2,1,15)        =         2.079908	     119.169966
	 B(2,10,5)        =         2.094306	     119.994870
	 B(2,10,13)       =         2.094719	     120.018581
	 B(3,6,12)        =         2.095782	     120.079451
	 B(3,6,20)        =         2.161298	     123.833259
	 B(3,9,4)         =         2.092823	     119.909946
	 B(3,9,8)         =         2.094765	     120.021214
	 B(4,7,12)        =         2.095339	     120.054096
	 B(4,7,21)        =         2.162843	     123.921783
	 B(4,9,8)         =         2.095597	     120.068837
	 B(5,10,13)       =         2.094160	     119.986548
	 B(5,11,8)        =         2.095181	     120.045019
	 B(5,11,14)       =         2.081414	     119.256220
	 B(6,3,9)         =         2.072790	     118.762125
	 B(6,3,17)        =         2.089911	     119.743067
	 B(6,12,7)        =         2.135926	     122.379556
	 B(6,12,22)       =         2.072935	     118.770428
	 B(7,4,9)         =         2.073710	     118.814816
	 B(7,4,18)        =         2.088838	     119.681619
	 B(7,12,22)       =         2.074323	     118.849944
	 B(8,1,15)        =         2.108336	     120.798746
	 B(8,11,14)       =         2.106591	     120.698759
	 B(9,3,17)        =         2.120484	     121.494784
	 B(9,4,18)        =         2.120637	     121.503539
	 B(9,8,11)        =         2.098101	     120.212327
	 B(10,2,16)       =         2.119728	     121.451467
	 B(10,5,11)       =         2.093699	     119.960108
	 B(10,5,19)       =         2.120101	     121.472852
	 B(11,5,19)       =         2.069385	     118.567038
	 B(12,6,20)       =         2.026104	     116.087213
	 B(12,7,21)       =         2.025003	     116.024117
	 D(1,2,10,5)      =        -0.000325	      -0.018609
	 D(1,2,10,13)     =         3.141392	     179.988520
	 D(1,8,9,3)       =        -2.356636	    -135.025278
	 D(1,8,9,4)       =         0.785312	      44.995057
	 D(1,8,11,5)      =         0.000325	       0.018608
	 D(1,8,11,14)     =        -3.141528	    -179.996269
	 D(2,1,8,9)       =        -3.141211	    -179.978157
	 D(2,1,8,11)      =        -0.000348	      -0.019945
	 D(2,10,5,11)     =         0.000301	       0.017261
	 D(2,10,5,19)     =        -3.141543	    -179.997173
	 D(3,6,12,7)      =         0.000666	       0.038144
	 D(3,6,12,22)     =         3.140528	     179.938974
	 D(3,9,4,7)       =         0.000192	       0.011010
	 D(3,9,4,18)      =        -3.140352	    -179.928936
	 D(3,9,8,11)      =         0.785688	      45.016616
	 D(4,7,12,6)      =        -0.000339	      -0.019452
	 D(4,7,12,22)     =        -3.140200	    -179.920205
	 D(4,9,3,6)       =         0.000122	       0.006977
	 D(4,9,3,17)      =        -3.140489	    -179.936770
	 D(4,9,8,11)      =        -2.355550	    -134.963049
	 D(5,10,2,16)     =         3.139529	     179.881752
	 D(5,11,8,9)      =         3.141185	     179.976658
	 D(6,3,9,8)       =        -3.141117	    -179.972721
	 D(6,12,7,21)     =         3.140851	     179.957480
	 D(7,4,9,8)       =         3.141430	     179.990698
	 D(7,12,6,20)     =         3.140571	     179.941440
	 D(8,1,2,10)      =         0.000348	       0.019955
	 D(8,1,2,16)      =        -3.139556	    -179.883288
	 D(8,9,3,17)      =         0.001458	       0.083532
	 D(8,9,4,18)      =         0.000886	       0.050751
	 D(8,11,5,10)     =        -0.000301	      -0.017270
	 D(8,11,5,19)     =         3.141536	     179.996748
	 D(9,3,6,12)      =        -0.000544	      -0.031193
	 D(9,3,6,20)      =        -3.140312	    -179.926635
	 D(9,4,7,12)      =        -0.000095	      -0.005454
	 D(9,4,7,21)      =        -3.141252	    -179.980473
	 D(9,8,1,15)      =         0.002066	       0.118384
	 D(9,8,11,14)     =        -0.000667	      -0.038219
	 D(10,2,1,15)     =         3.140283	     179.924984
	 D(10,5,11,14)    =         3.141547	     179.997392
	 D(11,5,10,13)    =        -3.141416	    -179.989865
	 D(11,8,1,15)     =        -3.140256	    -179.923403
	 D(12,6,3,17)     =         3.140084	     179.913563
	 D(12,7,4,18)     =         3.140469	     179.935611
	 D(13,10,2,16)    =        -0.001939	      -0.111119
	 D(13,10,5,19)    =        -0.000075	      -0.004300
	 D(14,11,5,19)    =         0.000199	       0.011410
	 D(15,1,2,16)     =         0.000379	       0.021741
	 D(17,3,6,20)     =         0.000316	       0.018121
	 D(18,4,7,21)     =        -0.000688	      -0.039408
	 D(20,6,12,22)    =        -0.002753	      -0.157730
	 D(21,7,12,22)    =         0.000990	       0.056726
	 R(3,14)          =         5.298787	       2.803997

	Current energy   :      -652.8073623498

	Generating empirical Hessian (Schlegel '84) for each fragment.
	Adding user-defined constraint: Fragment 1; Coordinate 62:
		Value =    -2.356636; Fixed value    =    -2.356194
		Force =     0.000221; Force constant =     0.500000
	Removing off-diagonal coupling between coordinate 62 and others.
	Taking RFO optimization step.
	Going to follow RFO solution 1.
	Using RFO vector 1.

	Determining step-restricting scale parameter for RS-RFO.
	Maximum step size allowed    0.10000

	 Iter      |step|        alpha        rfo_root  
	------------------------------------------------
	    0     0.38066       1.00000           1
	    1     0.25802       3.06205           1
	    2     0.18665       8.87008           1
	    3     0.13925      22.65649           1
	    4     0.11250      41.92816           1
	    5     0.10193      54.80969           1
	    6     0.10006      57.58388           1
	    7     0.10000      57.67379           1
	------------------------------------------------
	Norm of target step-size    0.10000
	Projected energy change by RFO approximation:        -0.0094147249

	Back-transformation to cartesian coordinates...
	Could not converge backtransformation.
	Using first guess instead.

	--- Internal Coordinate Step in ANG or DEG, aJ/ANG or AJ/DEG ---
	 ---------------------------------------------------------------------------
	   Coordinate                Previous        Force       Change         New 
	   ----------                --------       ------       ------       ------
	    1 R(1,2)          =      1.394038    -0.176850    -0.011257     1.382781
	    2 R(1,8)          =      1.394891     0.127953     0.008055     1.402946
	    3 R(1,15)         =      1.088409    -0.041635    -0.002996     1.085413
	    4 R(2,10)         =      1.394821     0.275485     0.017956     1.412777
	    5 R(2,16)         =      1.088553    -0.061916    -0.004480     1.084073
	    6 R(3,6)          =      1.387850    -0.169204    -0.010709     1.377142
	    7 R(3,9)          =      1.392072     0.154372     0.009885     1.401957
	    8 R(3,17)         =      1.085612    -0.057337    -0.004120     1.081493
	    9 R(4,7)          =      1.388123    -0.169587    -0.010737     1.377386
	   10 R(4,9)          =      1.391207     0.149410     0.009542     1.400749
	   11 R(4,18)         =      1.086367    -0.053322    -0.003843     1.082524
	   12 R(5,10)         =      1.395407     0.256507     0.016684     1.412091
	   13 R(5,11)         =      1.394521    -0.236245    -0.015160     1.379361
	   14 R(5,19)         =      1.088451    -0.061824    -0.004470     1.083981
	   15 R(6,12)         =      1.340529     0.117582     0.006856     1.347385
	   16 R(6,20)         =      1.080991    -0.021606    -0.001544     1.079446
	   17 R(7,12)         =      1.339642     0.115267     0.006702     1.346344
	   18 R(7,21)         =      1.080639    -0.019038    -0.001343     1.079296
	   19 R(8,9)          =      1.446909    -0.163722    -0.011367     1.435543
	   20 R(8,11)         =      1.394821     0.097782     0.006152     1.400973
	   21 R(10,13)        =      1.281784    -0.221712    -0.011279     1.270506
	   22 R(11,14)        =      1.341125     0.070841     0.004138     1.345264
	   23 R(12,22)        =      1.019659    -0.087513    -0.005726     1.013933
	   24 B(1,2,10)       =    120.009056     0.000363     0.382392   120.391449
	   25 B(1,2,16)       =    118.539404     0.000267     0.289927   118.829330
	   26 B(1,8,9)        =    119.827938     0.000300     0.314320   120.142258
	   27 B(1,8,11)       =    119.959722    -0.000721    -0.746074   119.213648
	   28 B(2,1,8)        =    120.031219     0.000453     0.427235   120.458454
	   29 B(2,1,15)       =    119.169966     0.000002     0.031831   119.201797
	   30 B(2,10,5)       =    119.994870    -0.001251    -1.135595   118.859276
	   31 B(2,10,13)      =    120.018581     0.000695     0.633810   120.652391
	   32 B(3,6,12)       =    120.079451    -0.000105    -0.105591   119.973861
	   33 B(3,6,20)       =    123.833259    -0.000058    -0.067052   123.766207
	   34 B(3,9,4)        =    119.909946    -0.000914    -0.880710   119.029236
	   35 B(3,9,8)        =    120.021214     0.000655     0.632703   120.653917
	   36 B(4,7,12)       =    120.054096    -0.000118    -0.122475   119.931621
	   37 B(4,7,21)       =    123.921783    -0.000068    -0.075812   123.845971
	   38 B(4,9,8)        =    120.068837     0.000258     0.247660   120.316497
	   39 B(5,10,13)      =    119.986548     0.000556     0.501780   120.488328
	   40 B(5,11,8)       =    120.045019     0.000933     0.848940   120.893959
	   41 B(5,11,14)      =    119.256220    -0.000006     0.009547   119.265768
	   42 B(6,3,9)        =    118.762125     0.000554     0.538940   119.301065
	   43 B(6,3,17)       =    119.743067    -0.000268    -0.262201   119.480866
	   44 B(6,12,7)       =    122.379556    -0.000001     0.000893   122.380449
	   45 B(6,12,22)      =    118.770428     0.000009     0.009918   118.780346
	   46 B(7,4,9)        =    118.814816     0.000583     0.568874   119.383689
	   47 B(7,4,18)       =    119.681619    -0.000254    -0.246118   119.435500
	   48 B(7,12,22)      =    118.849944    -0.000008    -0.010774   118.839169
	   49 B(8,1,15)       =    120.798746    -0.000455    -0.459437   120.339308
	   50 B(8,11,14)      =    120.698759    -0.000927    -0.858711   119.840048
	   51 B(9,3,17)       =    121.494784    -0.000287    -0.276780   121.218004
	   52 B(9,4,18)       =    121.503539    -0.000330    -0.322862   121.180677
	   53 B(9,8,11)       =    120.212327     0.000421     0.431632   120.643959
	   54 B(10,2,16)      =    121.451467    -0.000630    -0.672326   120.779141
	   55 B(10,5,11)      =    119.960108     0.000223     0.222801   120.182910
	   56 B(10,5,19)      =    121.472852    -0.000417    -0.438837   121.034016
	   57 B(11,5,19)      =    118.567038     0.000194     0.216037   118.783074
	   58 B(12,6,20)      =    116.087213     0.000163     0.172484   116.259698
	   59 B(12,7,21)      =    116.024117     0.000186     0.198221   116.222338
	   60 D(1,2,10,5)     =     -0.018609    -0.000014    -0.090618    -0.109227
	   61 D(1,2,10,13)    =    179.988520    -0.000012    -0.073196   179.915324
	   62 D(1,8,9,3)      =   -135.025278    -0.000087    -0.381843  -135.407121
	   63 D(1,8,9,4)      =     44.995057    -0.000118    -0.619492    44.375565
	   64 D(1,8,11,5)     =      0.018608    -0.000021    -0.152994    -0.134386
	   65 D(1,8,11,14)    =   -179.996269     0.000010     0.035810  -179.960460
	   66 D(2,1,8,9)      =   -179.978157    -0.000025    -0.177572  -180.155729
	   67 D(2,1,8,11)     =     -0.019945    -0.000004    -0.003089    -0.023033
	   68 D(2,10,5,11)    =      0.017261    -0.000011    -0.063766    -0.046505
	   69 D(2,10,5,19)    =   -179.997173    -0.000011    -0.051625  -180.048798
	   70 D(3,6,12,7)     =      0.038144    -0.000003    -0.026380     0.011764
	   71 D(3,6,12,22)    =    179.938974     0.000000     0.002946   179.941919
	   72 D(3,9,4,7)      =      0.011010    -0.000011    -0.088546    -0.077536
	   73 D(3,9,4,18)     =   -179.928936     0.000001    -0.014829  -179.943766
	   74 D(3,9,8,11)     =     45.016616    -0.000108    -0.558354    44.458262
	   75 D(4,7,12,6)     =     -0.019452     0.000006     0.040497     0.021045
	   76 D(4,7,12,22)    =   -179.920205     0.000002     0.011135  -179.909071
	   77 D(4,9,3,6)      =      0.006977     0.000014     0.102353     0.109330
	   78 D(4,9,3,17)     =   -179.936770     0.000021     0.139411  -179.797359
	   79 D(4,9,8,11)     =   -134.963049    -0.000139    -0.796002  -135.759051
	   80 D(5,10,2,16)    =    179.881752    -0.000015    -0.095326   179.786426
	   81 D(5,11,8,9)     =    179.976658    -0.000000     0.022335   179.998993
	   82 D(6,3,9,8)      =   -179.972721    -0.000017    -0.132499  -180.105220
	   83 D(6,12,7,21)    =    179.957480    -0.000007    -0.028948   179.928532
	   84 D(7,4,9,8)      =    179.990698     0.000020     0.145573   180.136270
	   85 D(7,12,6,20)    =    179.941440    -0.000016    -0.099500   179.841940
	   86 D(8,1,2,10)     =      0.019955     0.000022     0.123889     0.143844
	   87 D(8,1,2,16)     =   -179.883288     0.000023     0.129464  -179.753824
	   88 D(8,9,3,17)     =      0.083532    -0.000011    -0.095441    -0.011909
	   89 D(8,9,4,18)     =      0.050751     0.000032     0.219289     0.270041
	   90 D(8,11,5,10)    =     -0.017270     0.000029     0.185822     0.168552
	   91 D(8,11,5,19)    =    179.996748     0.000028     0.174047   180.170794
	   92 D(9,3,6,12)     =     -0.031193    -0.000007    -0.046144    -0.077337
	   93 D(9,3,6,20)     =   -179.926635     0.000006     0.032500  -179.894135
	   94 D(9,4,7,12)     =     -0.005454     0.000001     0.018454     0.013000
	   95 D(9,4,7,21)     =   -179.980473     0.000015     0.093399  -179.887074
	   96 D(9,8,1,15)     =      0.118384     0.000000    -0.030793     0.087591
	   97 D(9,8,11,14)    =     -0.038219     0.000031     0.211138     0.172919
	   98 D(10,2,1,15)    =    179.924984    -0.000003    -0.021712   179.903272
	   99 D(10,5,11,14)   =    179.997392    -0.000002    -0.001781   179.995612
	  100 D(11,5,10,13)   =   -179.989865    -0.000013    -0.081149  -180.071014
	  101 D(11,8,1,15)    =   -179.923403     0.000021     0.143690  -179.779713
	  102 D(12,6,3,17)    =    179.913563    -0.000013    -0.082569   179.830994
	  103 D(12,7,4,18)    =    179.935611    -0.000011    -0.054021   179.881590
	  104 D(13,10,2,16)   =     -0.111119    -0.000013    -0.077904    -0.189023
	  105 D(13,10,5,19)   =     -0.004300    -0.000012    -0.069007    -0.073307
	  106 D(14,11,5,19)   =      0.011410    -0.000002    -0.013556    -0.002146
	  107 D(15,1,2,16)    =      0.021741    -0.000002    -0.016137     0.005604
	  108 D(17,3,6,20)    =      0.018121    -0.000000    -0.003925     0.014196
	  109 D(18,4,7,21)    =     -0.039408     0.000003     0.020924    -0.018484
	  110 D(20,6,12,22)   =     -0.157730    -0.000012    -0.070174    -0.227905
	  111 D(21,7,12,22)   =      0.056726    -0.000010    -0.058310    -0.001584
	  112 R(3,14)         =      2.803997    -0.000197     0.000013     2.804011
	 ---------------------------------------------------------------------------
	Successfully symmetrized geometry.
	 Forces used to impose fixed constraints are not included.
	  Forces zeroed: 62 

  ==> Convergence Check <==

  Measures of convergence in internal coordinates in au.
  Criteria marked as inactive (o), active & met (*), and active & unmet ( ).
  --------------------------------------------------------------------------------------------- ~
   Step     Total Energy     Delta E     MAX Force     RMS Force      MAX Disp      RMS Disp    ~
  --------------------------------------------------------------------------------------------- ~
    Convergence Criteria    1.00e-06 *    3.00e-04 *             o    1.20e-03 *             o  ~
  --------------------------------------------------------------------------------------------- ~
      1    -652.80736235   -6.53e+02      3.34e-02      8.91e-03 o    3.39e-02      9.44e-03 o  ~
  ---------------------------------------------------------------------------------------------

	Writing optimization data to binary file.
	Structure for next step:
	Cartesian Geometry (in Angstrom)
	    C    -1.3626210643   0.7847797550  -0.7706247060
	    C    -2.4352692572   1.3527179157  -0.1080885989
	    C     1.2810163954  -1.6665266825  -0.3671877486
	    C     1.3896456574   0.2621753419  -1.8169358456
	    C    -1.4426075215   0.7252003771   2.0218339244
	    C     2.3445144659  -2.2078730757  -1.0545274784
	    C     2.4504562201  -0.3234523547  -2.4718497390
	    C    -0.3210805699   0.1805236232  -0.0506766032
	    C     0.7876352869  -0.4099808012  -0.7455412168
	    C    -2.4945773326   1.3343842939   1.3033238217
	    C    -0.3797635547   0.1593655754   1.3489066163
	    N     2.8981813593  -1.5310740673  -2.0796329573
	    O    -3.4769895881   1.8561353483   1.9171856578
	    F     0.6124724005  -0.4160199027   2.0518530007
	    H    -1.3375481731   0.8083636596  -1.8554915899
	    H    -3.2274463291   1.8089959949  -0.6907386807
	    H     0.8409541329  -2.2178878051   0.4525516026
	    H     1.0374395412   1.2342243239  -2.1377633725
	    H    -1.4517557378   0.6918674614   3.1052638255
	    H     2.7800133650  -3.1687626261  -0.8259747668
	    H     2.9679278703   0.1299982948  -3.3034056006
	    H     3.6809807135  -1.9461949508  -2.5725421844
			--------------------------
			 OPTKING Finished Execution 
			--------------------------

    Structure for next step:
    Molecular point group: c1
    Full point group: C1

    Geometry (in Angstrom), charge = 0, multiplicity = 1:

    C           -1.361274622240     0.784986932627    -0.771154332095
    C           -2.433922815123     1.352925093341    -0.108618224993
    C            1.282362837477    -1.666319504803    -0.367717374704
    C            1.390992099477     0.262382519507    -1.817465471659
    C           -1.441261079418     0.725407554788     2.021304298341
    C            2.345860907917    -2.207665898075    -1.055057104465
    C            2.451802662179    -0.323245177010    -2.472379365030
    C           -0.319734127826     0.180730800898    -0.051206229251
    C            0.788981728970    -0.409773623507    -0.746070842899
    C           -2.493230890511     1.334591471579     1.302794195627
    C           -0.378417112597     0.159572753076     1.348376990257
    N            2.899527801330    -1.530866889640    -2.080162583371
    O           -3.475643146037     1.856342525915     1.916656031735
    F            0.613818842563    -0.415812725017     2.051323374650
    H           -1.336201731053     0.808570837241    -1.856021215965
    H           -3.226099887079     1.809203172514    -0.691268306799
    H            0.842300574968    -2.217680627417     0.452021976521
    H            1.038785983270     1.234431501575    -2.138292998571
    H           -1.450409295766     0.692074639022     3.104734199412
    H            2.781359807093    -3.168555448434    -0.826504392917
    H            2.969274312388     0.130205472450    -3.303935226684
    H            3.682327155568    -1.945987773182    -2.573071810436

gradient() will perform analytic gradient computation.

*** tstart() called on gpu-1-14.local
*** at Sun Nov 12 01:54:13 2017

    SCF Algorithm Type (re)set to DF.

*** tstart() called on gpu-1-14.local
*** at Sun Nov 12 01:54:13 2017

   => Loading Basis Set <=

    Name: AUG-CC-PVTZ
    Role: ORBITAL
    Keyword: BASIS
    atoms 1-11  entry C          line   221 file /cbio/jclab/home/chayas/anaconda/envs/py35/share/psi4/basis/aug-cc-pvtz.gbs 
    atoms 12    entry N          line   267 file /cbio/jclab/home/chayas/anaconda/envs/py35/share/psi4/basis/aug-cc-pvtz.gbs 
    atoms 13    entry O          line   313 file /cbio/jclab/home/chayas/anaconda/envs/py35/share/psi4/basis/aug-cc-pvtz.gbs 
    atoms 14    entry F          line   359 file /cbio/jclab/home/chayas/anaconda/envs/py35/share/psi4/basis/aug-cc-pvtz.gbs 
    atoms 15-22 entry H          line    34 file /cbio/jclab/home/chayas/anaconda/envs/py35/share/psi4/basis/aug-cc-pvtz.gbs 


         ---------------------------------------------------------
                                   SCF
            by Justin Turney, Rob Parrish, and Andy Simmonett
                              RHF Reference
                        8 Threads,   4768 MiB Core
         ---------------------------------------------------------

  ==> Geometry <==

    Molecular point group: c1
    Full point group: C1

    Geometry (in Angstrom), charge = 0, multiplicity = 1:

       Center              X                  Y                   Z               Mass       
    ------------   -----------------  -----------------  -----------------  -----------------
           C         -1.361274622240     0.784986932627    -0.771154332095    12.000000000000
           C         -2.433922815123     1.352925093341    -0.108618224993    12.000000000000
           C          1.282362837477    -1.666319504803    -0.367717374704    12.000000000000
           C          1.390992099477     0.262382519507    -1.817465471659    12.000000000000
           C         -1.441261079418     0.725407554788     2.021304298341    12.000000000000
           C          2.345860907917    -2.207665898075    -1.055057104465    12.000000000000
           C          2.451802662179    -0.323245177010    -2.472379365030    12.000000000000
           C         -0.319734127826     0.180730800898    -0.051206229251    12.000000000000
           C          0.788981728970    -0.409773623507    -0.746070842899    12.000000000000
           C         -2.493230890511     1.334591471579     1.302794195627    12.000000000000
           C         -0.378417112597     0.159572753076     1.348376990257    12.000000000000
           N          2.899527801330    -1.530866889640    -2.080162583371    14.003074004780
           O         -3.475643146037     1.856342525915     1.916656031735    15.994914619560
           F          0.613818842563    -0.415812725017     2.051323374650    18.998403224000
           H         -1.336201731053     0.808570837241    -1.856021215965     1.007825032070
           H         -3.226099887079     1.809203172514    -0.691268306799     1.007825032070
           H          0.842300574968    -2.217680627417     0.452021976521     1.007825032070
           H          1.038785983270     1.234431501575    -2.138292998571     1.007825032070
           H         -1.450409295766     0.692074639022     3.104734199412     1.007825032070
           H          2.781359807093    -3.168555448434    -0.826504392917     1.007825032070
           H          2.969274312388     0.130205472450    -3.303935226684     1.007825032070
           H          3.682327155568    -1.945987773182    -2.573071810436     1.007825032070

  Running in c1 symmetry.

  Rotational constants: A =      0.06271  B =      0.01346  C =      0.01158 [cm^-1]
  Rotational constants: A =   1879.84925  B =    403.64181  C =    347.25983 [MHz]
  Nuclear repulsion =  817.630055445089738

  Charge       = 0
  Multiplicity = 1
  Electrons    = 98
  Nalpha       = 49
  Nbeta        = 49

  ==> Algorithm <==

  SCF Algorithm Type is DF.
  DIIS enabled.
  MOM disabled.
  Fractional occupation disabled.
  Guess Type is READ.
  Energy threshold   = 1.00e-10
  Density threshold  = 1.00e-10
  Integral threshold = 0.00e+00

  ==> Primary Basis <==

  Basis Set: AUG-CC-PVTZ
    Blend: AUG-CC-PVTZ
    Number of shells: 268
    Number of basis function: 828
    Number of Cartesian functions: 970
    Spherical Harmonics?: true
    Max angular momentum: 3

   => Loading Basis Set <=

    Name: (AUG-CC-PVTZ AUX)
    Role: JKFIT
    Keyword: DF_BASIS_SCF
    atoms 1-11  entry C          line   161 file /cbio/jclab/home/chayas/anaconda/envs/py35/share/psi4/basis/aug-cc-pvtz-jkfit.gbs 
    atoms 12    entry N          line   223 file /cbio/jclab/home/chayas/anaconda/envs/py35/share/psi4/basis/aug-cc-pvtz-jkfit.gbs 
    atoms 13    entry O          line   285 file /cbio/jclab/home/chayas/anaconda/envs/py35/share/psi4/basis/aug-cc-pvtz-jkfit.gbs 
    atoms 14    entry F          line   347 file /cbio/jclab/home/chayas/anaconda/envs/py35/share/psi4/basis/aug-cc-pvtz-jkfit.gbs 
    atoms 15-22 entry H          line    69 file /cbio/jclab/home/chayas/anaconda/envs/py35/share/psi4/basis/aug-cc-pvtz-jkfit.gbs 

  Reading orbitals from file 180, no projection.

  ==> Pre-Iterations <==

   -------------------------------------------------------
    Irrep   Nso     Nmo     Nalpha   Nbeta   Ndocc  Nsocc
   -------------------------------------------------------
     A        828     828       0       0       0       0
   -------------------------------------------------------
    Total     828     828      49      49      49       0
   -------------------------------------------------------

  ==> Integral Setup <==

  ==> DFJK: Density-Fitted J/K Matrices <==

    J tasked:                  Yes
    K tasked:                  Yes
    wK tasked:                  No
    OpenMP threads:              8
    Integrals threads:           8
    Memory (MB):              3576
    Algorithm:                Disk
    Integral Cache:           NONE
    Schwarz Cutoff:          1E-12
    Fitting Condition:       1E-12

   => Auxiliary Basis Set <=

  Basis Set: (AUG-CC-PVTZ AUX)
    Blend: AUG-CC-PVTZ-JKFIT
    Number of shells: 532
    Number of basis function: 1824
    Number of Cartesian functions: 2274
    Spherical Harmonics?: true
    Max angular momentum: 4

  Minimum eigenvalue in the overlap matrix is 7.5188444919E-07.
  Using Symmetric Orthogonalization.

  SCF Guess: Orbitals guess was supplied from a previous computation.

  ==> Iterations <==

                           Total Energy        Delta E     RMS |[F,P]|

   @DF-RHF iter   0:  -650.16156229357603   -6.50162e+02   4.43641e-04 
   @DF-RHF iter   1:  -650.11140705201842    5.01552e-02   6.45050e-05 
   @DF-RHF iter   2:  -650.11180030715093   -3.93255e-04   3.84989e-05 DIIS
   @DF-RHF iter   3:  -650.11201715634422   -2.16849e-04   6.17542e-06 DIIS
   @DF-RHF iter   4:  -650.11204200203633   -2.48457e-05   5.24397e-06 DIIS
   @DF-RHF iter   5:  -650.11205502355813   -1.30215e-05   3.29029e-06 DIIS
   @DF-RHF iter   6:  -650.11205998022831   -4.95667e-06   1.43596e-06 DIIS
   @DF-RHF iter   7:  -650.11206110470812   -1.12448e-06   4.26639e-07 DIIS
   @DF-RHF iter   8:  -650.11206118273151   -7.80234e-08   1.93318e-07 DIIS
   @DF-RHF iter   9:  -650.11206118723328   -4.50177e-09   4.56181e-08 DIIS
   @DF-RHF iter  10:  -650.11206118803341   -8.00128e-10   2.21988e-08 DIIS
   @DF-RHF iter  11:  -650.11206118818529   -1.51886e-10   1.23941e-08 DIIS
   @DF-RHF iter  12:  -650.11206118822383   -3.85398e-11   4.84254e-09 DIIS
   @DF-RHF iter  13:  -650.11206118822531   -1.47793e-12   1.47122e-09 DIIS
   @DF-RHF iter  14:  -650.11206118821826    7.04858e-12   6.73965e-10 DIIS
   @DF-RHF iter  15:  -650.11206118823316   -1.48930e-11   2.76877e-10 DIIS
   @DF-RHF iter  16:  -650.11206118822258    1.05729e-11   1.24639e-10 DIIS
   @DF-RHF iter  17:  -650.11206118823361   -1.10276e-11   6.07537e-11 DIIS

  ==> Post-Iterations <==

    Orbital Energies (a.u.)
    -----------------------

    Doubly Occupied:                                                      

       1A    -26.307665     2A    -20.438048     3A    -15.703556  
       4A    -11.361189     5A    -11.358218     6A    -11.318058  
       7A    -11.316308     8A    -11.289323     9A    -11.286896  
      10A    -11.255494    11A    -11.235132    12A    -11.219774  
      13A    -11.189613    14A    -11.188233    15A     -1.626482  
      16A     -1.384357    17A     -1.266619    18A     -1.183204  
      19A     -1.115527    20A     -1.114587    21A     -1.004049  
      22A     -0.997706    23A     -0.940047    24A     -0.908993  
      25A     -0.840821    26A     -0.828457    27A     -0.806718  
      28A     -0.745591    29A     -0.734974    30A     -0.708678  
      31A     -0.695968    32A     -0.689314    33A     -0.677793  
      34A     -0.668863    35A     -0.653507    36A     -0.616202  
      37A     -0.600175    38A     -0.592970    39A     -0.575448  
      40A     -0.543817    41A     -0.515111    42A     -0.500517  
      43A     -0.487820    44A     -0.465084    45A     -0.423408  
      46A     -0.399699    47A     -0.349188    48A     -0.327458  
      49A     -0.239066  

    Virtual:                                                              

      50A     -0.009031    51A      0.010826    52A      0.015712  
      53A      0.023802    54A      0.035699    55A      0.039948  
      56A      0.044468    57A      0.054260    58A      0.056455  
      59A      0.059952    60A      0.062358    61A      0.069881  
      62A      0.070311    63A      0.078899    64A      0.083255  
      65A      0.092680    66A      0.098745    67A      0.103886  
      68A      0.105223    69A      0.107097    70A      0.117688  
      71A      0.118783    72A      0.123788    73A      0.127686  
      74A      0.128703    75A      0.131765    76A      0.134988  
      77A      0.141478    78A      0.145820    79A      0.150365  
      80A      0.151352    81A      0.160579    82A      0.161212  
      83A      0.164503    84A      0.167496    85A      0.171813  
      86A      0.177990    87A      0.179917    88A      0.184463  
      89A      0.187711    90A      0.193538    91A      0.195985  
      92A      0.205752    93A      0.207476    94A      0.210176  
      95A      0.212244    96A      0.219412    97A      0.224047  
      98A      0.226186    99A      0.230670   100A      0.231553  
     101A      0.239610   102A      0.249514   103A      0.252344  
     104A      0.252877   105A      0.253956   106A      0.257629  
     107A      0.261874   108A      0.268403   109A      0.273768  
     110A      0.278010   111A      0.285209   112A      0.291619  
     113A      0.291843   114A      0.296893   115A      0.297726  
     116A      0.302556   117A      0.306225   118A      0.313262  
     119A      0.317813   120A      0.319608   121A      0.323758  
     122A      0.327829   123A      0.332205   124A      0.338354  
     125A      0.342668   126A      0.346745   127A      0.349154  
     128A      0.353501   129A      0.356582   130A      0.359710  
     131A      0.361356   132A      0.362760   133A      0.376023  
     134A      0.377640   135A      0.379876   136A      0.384158  
     137A      0.386099   138A      0.398555   139A      0.401174  
     140A      0.402970   141A      0.414006   142A      0.415903  
     143A      0.420473   144A      0.422485   145A      0.427654  
     146A      0.432408   147A      0.438912   148A      0.441304  
     149A      0.447077   150A      0.448283   151A      0.453249  
     152A      0.455882   153A      0.458038   154A      0.465394  
     155A      0.468285   156A      0.471732   157A      0.473924  
     158A      0.480483   159A      0.485213   160A      0.487974  
     161A      0.489943   162A      0.491549   163A      0.492032  
     164A      0.494434   165A      0.498725   166A      0.502198  
     167A      0.504729   168A      0.508540   169A      0.515452  
     170A      0.524395   171A      0.525387   172A      0.528334  
     173A      0.532690   174A      0.536441   175A      0.544524  
     176A      0.546246   177A      0.550546   178A      0.557559  
     179A      0.564641   180A      0.567660   181A      0.570946  
     182A      0.577895   183A      0.588528   184A      0.592992  
     185A      0.597753   186A      0.599091   187A      0.601433  
     188A      0.607101   189A      0.612185   190A      0.623526  
     191A      0.631546   192A      0.640432   193A      0.644741  
     194A      0.649560   195A      0.656634   196A      0.662126  
     197A      0.663643   198A      0.671721   199A      0.676429  
     200A      0.682395   201A      0.686347   202A      0.692178  
     203A      0.695306   204A      0.700756   205A      0.705413  
     206A      0.714676   207A      0.720412   208A      0.723341  
     209A      0.728371   210A      0.731370   211A      0.736184  
     212A      0.738250   213A      0.749235   214A      0.752455  
     215A      0.760082   216A      0.764671   217A      0.766316  
     218A      0.774761   219A      0.779683   220A      0.788923  
     221A      0.795617   222A      0.801594   223A      0.812185  
     224A      0.816564   225A      0.821429   226A      0.827008  
     227A      0.836789   228A      0.844651   229A      0.851564  
     230A      0.854787   231A      0.859589   232A      0.867008  
     233A      0.871433   234A      0.874774   235A      0.876549  
     236A      0.881608   237A      0.884452   238A      0.888002  
     239A      0.898895   240A      0.905021   241A      0.908940  
     242A      0.912237   243A      0.915621   244A      0.919298  
     245A      0.921048   246A      0.927387   247A      0.929272  
     248A      0.936792   249A      0.943206   250A      0.945123  
     251A      0.955695   252A      0.957992   253A      0.959058  
     254A      0.962757   255A      0.972861   256A      0.980718  
     257A      0.985287   258A      0.992351   259A      0.995425  
     260A      1.003149   261A      1.010332   262A      1.012575  
[...]
     104A      0.253234   105A      0.259447   106A      0.261455  
     107A      0.265551   108A      0.271597   109A      0.275254  
     110A      0.283608   111A      0.285744   112A      0.290592  
     113A      0.295334   114A      0.298140   115A      0.301546  
     116A      0.303235   117A      0.308006   118A      0.312771  
     119A      0.317731   120A      0.320457   121A      0.326844  
     122A      0.329707   123A      0.334551   124A      0.341014  
     125A      0.347805   126A      0.348494   127A      0.350618  
     128A      0.352290   129A      0.356130   130A      0.361337  
     131A      0.364115   132A      0.366719   133A      0.372395  
     134A      0.381832   135A      0.384718   136A      0.387388  
     137A      0.389986   138A      0.397117   139A      0.401329  
     140A      0.407698   141A      0.415673   142A      0.421517  
     143A      0.423141   144A      0.427210   145A      0.431604  
     146A      0.437722   147A      0.441183   148A      0.443197  
     149A      0.446441   150A      0.449668   151A      0.454723  
     152A      0.455722   153A      0.459308   154A      0.468276  
     155A      0.470648   156A      0.473118   157A      0.474803  
     158A      0.476043   159A      0.483565   160A      0.486247  
     161A      0.489656   162A      0.491928   163A      0.496482  
     164A      0.498610   165A      0.504689   166A      0.510508  
     167A      0.512376   168A      0.519970   169A      0.522131  
     170A      0.525765   171A      0.527993   172A      0.529250  
     173A      0.531152   174A      0.536945   175A      0.539160  
     176A      0.542497   177A      0.550060   178A      0.556118  
     179A      0.558521   180A      0.567624   181A      0.573235  
     182A      0.578121   183A      0.586268   184A      0.588886  
     185A      0.591927   186A      0.600568   187A      0.604767  
     188A      0.615877   189A      0.616744   190A      0.620231  
     191A      0.632211   192A      0.640895   193A      0.644503  
     194A      0.646171   195A      0.649256   196A      0.657946  
     197A      0.662444   198A      0.672734   199A      0.682367  
     200A      0.686269   201A      0.692485   202A      0.692724  
     203A      0.699241   204A      0.700320   205A      0.704991  
     206A      0.709479   207A      0.720004   208A      0.724606  
     209A      0.727485   210A      0.732695   211A      0.742439  
     212A      0.749519   213A      0.751289   214A      0.755713  
     215A      0.758894   216A      0.764571   217A      0.776285  
     218A      0.781435   219A      0.787006   220A      0.794661  
     221A      0.801034   222A      0.805228   223A      0.809549  
     224A      0.812699   225A      0.825952   226A      0.833990  
     227A      0.841666   228A      0.843896   229A      0.855370  
     230A      0.859126   231A      0.862257   232A      0.863481  
     233A      0.870540   234A      0.874870   235A      0.879485  
     236A      0.885270   237A      0.886575   238A      0.889761  
     239A      0.900285   240A      0.904662   241A      0.907632  
     242A      0.911089   243A      0.914672   244A      0.922633  
     245A      0.926419   246A      0.931234   247A      0.938003  
     248A      0.941341   249A      0.946365   250A      0.949473  
     251A      0.957095   252A      0.958402   253A      0.965092  
     254A      0.967523   255A      0.973409   256A      0.978501  
     257A      0.985815   258A      0.991083   259A      0.992891  
     260A      0.998411   261A      1.003522   262A      1.005993  
     263A      1.011832   264A      1.016457   265A      1.020502  
     266A      1.023558   267A      1.027339   268A      1.030477  
     269A      1.034841   270A      1.041610   271A      1.045106  
     272A      1.051434   273A      1.054019   274A      1.056411  
     275A      1.062071   276A      1.067187   277A      1.070110  
     278A      1.072339   279A      1.076950   280A      1.079571  
     281A      1.089150   282A      1.096630   283A      1.103563  
     284A      1.108912   285A      1.116013   286A      1.119446  
     287A      1.124702   288A      1.129686   289A      1.135620  
     290A      1.137964   291A      1.140466   292A      1.148351  
     293A      1.149466   294A      1.155925   295A      1.161524  
     296A      1.167341   297A      1.176288   298A      1.176761  
     299A      1.180372   300A      1.185121   301A      1.186924  
     302A      1.195349   303A      1.202092   304A      1.210347  
     305A      1.213840   306A      1.216667   307A      1.219860  
     308A      1.227183   309A      1.235153   310A      1.237572  
     311A      1.245768   312A      1.248011   313A      1.254865  
     314A      1.264315   315A      1.265478   316A      1.270561  
     317A      1.281867   318A      1.285876   319A      1.290577  
     320A      1.295697   321A      1.297616   322A      1.309165  
     323A      1.310308   324A      1.321742   325A      1.327017  
     326A      1.341321   327A      1.346027   328A      1.350717  
     329A      1.357918   330A      1.361894   331A      1.369538  
     332A      1.377926   333A      1.381581   334A      1.391268  
     335A      1.392717   336A      1.397537   337A      1.410715  
     338A      1.414093   339A      1.424153   340A      1.429263  
     341A      1.437335   342A      1.443594   343A      1.444472  
     344A      1.454936   345A      1.467331   346A      1.474926  
     347A      1.482507   348A      1.487951   349A      1.491489  
     350A      1.497170   351A      1.507726   352A      1.512777  
     353A      1.519899   354A      1.525217   355A      1.527658  
     356A      1.539841   357A      1.543899   358A      1.558921  
     359A      1.561692   360A      1.565976   361A      1.579763  
     362A      1.595432   363A      1.603734   364A      1.609268  
     365A      1.618926   366A      1.621294   367A      1.634166  
     368A      1.638608   369A      1.643532   370A      1.648958  
     371A      1.663259   372A      1.671144   373A      1.677907  
     374A      1.689675   375A      1.692644   376A      1.705831  
     377A      1.711246   378A      1.714724   379A      1.723996  
     380A      1.726286   381A      1.734463   382A      1.740677  
     383A      1.764319   384A      1.766330   385A      1.776526  
     386A      1.788740   387A      1.791070   388A      1.798823  
     389A      1.803704   390A      1.807476   391A      1.816923  
     392A      1.820846   393A      1.834333   394A      1.839145  
     395A      1.847227   396A      1.857800   397A      1.863948  
     398A      1.874750   399A      1.879557   400A      1.884304  
     401A      1.902371   402A      1.915395   403A      1.917860  
     404A      1.926555   405A      1.936271   406A      1.940494  
     407A      1.948428   408A      1.952238   409A      1.966486  
     410A      1.969879   411A      1.979049   412A      1.985286  
     413A      1.989602   414A      1.998236   415A      2.001078  
     416A      2.011199   417A      2.013339   418A      2.023356  
     419A      2.033309   420A      2.041716   421A      2.045505  
     422A      2.053069   423A      2.057034   424A      2.066630  
     425A      2.074496   426A      2.078642   427A      2.085008  
     428A      2.105356   429A      2.107968   430A      2.110417  
     431A      2.122893   432A      2.138406   433A      2.140858  
     434A      2.146864   435A      2.154944   436A      2.165242  
     437A      2.172986   438A      2.185769   439A      2.198283  
     440A      2.204265   441A      2.213520   442A      2.215855  
     443A      2.223118   444A      2.225768   445A      2.232202  
     446A      2.250490   447A      2.275718   448A      2.282778  
     449A      2.300418   450A      2.306409   451A      2.313375  
     452A      2.325231   453A      2.331811   454A      2.345823  
     455A      2.357499   456A      2.364220   457A      2.367637  
     458A      2.373934   459A      2.388264   460A      2.391854  
     461A      2.402429   462A      2.405179   463A      2.425632  
     464A      2.427884   465A      2.443929   466A      2.451409  
     467A      2.475073   468A      2.478771   469A      2.486588  
     470A      2.497348   471A      2.506976   472A      2.513353  
     473A      2.517740   474A      2.527128   475A      2.541937  
     476A      2.555423   477A      2.561918   478A      2.577643  
     479A      2.580900   480A      2.603703   481A      2.620725  
     482A      2.625536   483A      2.640581   484A      2.653058  
     485A      2.664472   486A      2.685695   487A      2.707019  
     488A      2.715834   489A      2.730297   490A      2.738102  
     491A      2.741037   492A      2.745681   493A      2.752865  
     494A      2.767411   495A      2.768858   496A      2.797727  
     497A      2.824288   498A      2.846996   499A      2.850904  
     500A      2.865027   501A      2.890491   502A      2.913364  
     503A      2.924924   504A      2.941514   505A      2.967920  
     506A      3.000650   507A      3.004820   508A      3.020768  
     509A      3.041232   510A      3.056603   511A      3.071636  
     512A      3.078883   513A      3.083724   514A      3.111612  
     515A      3.128926   516A      3.134837   517A      3.161062  
     518A      3.167796   519A      3.177971   520A      3.194529  
     521A      3.220625   522A      3.223517   523A      3.225357  
     524A      3.245678   525A      3.259720   526A      3.278926  
     527A      3.289611   528A      3.299455   529A      3.305294  
     530A      3.316505   531A      3.326994   532A      3.351565  
     533A      3.367507   534A      3.372463   535A      3.380930  
     536A      3.396550   537A      3.397329   538A      3.405523  
     539A      3.420185   540A      3.422678   541A      3.441067  
     542A      3.449331   543A      3.462204   544A      3.467704  
     545A      3.478915   546A      3.485228   547A      3.495441  
     548A      3.496485   549A      3.506438   550A      3.522707  
     551A      3.528867   552A      3.535861   553A      3.542325  
     554A      3.548953   555A      3.557008   556A      3.565896  
     557A      3.573149   558A      3.584699   559A      3.589308  
     560A      3.599474   561A      3.612019   562A      3.615111  
     563A      3.623654   564A      3.637748   565A      3.647408  
     566A      3.650728   567A      3.656258   568A      3.659772  
     569A      3.677949   570A      3.688168   571A      3.697217  
     572A      3.698593   573A      3.715151   574A      3.724950  
     575A      3.739419   576A      3.751327   577A      3.757718  
     578A      3.766404   579A      3.770896   580A      3.781581  
     581A      3.785808   582A      3.796344   583A      3.800758  
     584A      3.815468   585A      3.829150   586A      3.835499  
     587A      3.845935   588A      3.851651   589A      3.866960  
     590A      3.879165   591A      3.886561   592A      3.890387  
     593A      3.903647   594A      3.907736   595A      3.915208  
     596A      3.919266   597A      3.929798   598A      3.938301  
     599A      3.949104   600A      3.951101   601A      3.960303  
     602A      3.970278   603A      3.972667   604A      3.982107  
     605A      3.995291   606A      4.001345   607A      4.016358  
     608A      4.017934   609A      4.035155   610A      4.044151  
     611A      4.048531   612A      4.062984   613A      4.064648  
     614A      4.076832   615A      4.089616   616A      4.092519  
     617A      4.106217   618A      4.117631   619A      4.119641  
     620A      4.133122   621A      4.141929   622A      4.157918  
     623A      4.171735   624A      4.175916   625A      4.186219  
     626A      4.190248   627A      4.203032   628A      4.205404  
     629A      4.218381   630A      4.224425   631A      4.238368  
     632A      4.250661   633A      4.253652   634A      4.264046  
     635A      4.274903   636A      4.282856   637A      4.293329  
     638A      4.309812   639A      4.314314   640A      4.322136  
     641A      4.332709   642A      4.343440   643A      4.346318  
     644A      4.355193   645A      4.364500   646A      4.370985  
     647A      4.372792   648A      4.374097   649A      4.389901  
     650A      4.392906   651A      4.398624   652A      4.407319  
     653A      4.423710   654A      4.425322   655A      4.450823  
     656A      4.457820   657A      4.459282   658A      4.471234  
     659A      4.478896   660A      4.500685   661A      4.508722  
     662A      4.514156   663A      4.516864   664A      4.536266  
     665A      4.548002   666A      4.551387   667A      4.556505  
     668A      4.580346   669A      4.589589   670A      4.602446  
     671A      4.619629   672A      4.638254   673A      4.650767  
     674A      4.660515   675A      4.687956   676A      4.704962  
     677A      4.708723   678A      4.724909   679A      4.739164  
     680A      4.753628   681A      4.769524   682A      4.780162  
     683A      4.789984   684A      4.800543   685A      4.808780  
     686A      4.822944   687A      4.828437   688A      4.843368  
     689A      4.862882   690A      4.874588   691A      4.878774  
     692A      4.910240   693A      4.923491   694A      4.946262  
     695A      4.959339   696A      4.961748   697A      4.974476  
     698A      4.989110   699A      5.012596   700A      5.021811  
     701A      5.043528   702A      5.049625   703A      5.065212  
     704A      5.070426   705A      5.082252   706A      5.102706  
     707A      5.108247   708A      5.119345   709A      5.138448  
     710A      5.139941   711A      5.145902   712A      5.155485  
     713A      5.167230   714A      5.179702   715A      5.191475  
     716A      5.194423   717A      5.204401   718A      5.209123  
     719A      5.240616   720A      5.247419   721A      5.257950  
     722A      5.269881   723A      5.292000   724A      5.296690  
     725A      5.317440   726A      5.349748   727A      5.364213  
     728A      5.408836   729A      5.416727   730A      5.420018  
     731A      5.436899   732A      5.459099   733A      5.471484  
     734A      5.486685   735A      5.511265   736A      5.527960  
     737A      5.540346   738A      5.561246   739A      5.578477  
     740A      5.617312   741A      5.633132   742A      5.643687  
     743A      5.663626   744A      5.698006   745A      5.729748  
     746A      5.737431   747A      5.749572   748A      5.778708  
     749A      5.779341   750A      5.822155   751A      5.828517  
     752A      5.831867   753A      5.863610   754A      5.893736  
     755A      5.931009   756A      5.957573   757A      5.990069  
     758A      5.997020   759A      6.063808   760A      6.077102  
     761A      6.105632   762A      6.132952   763A      6.149279  
     764A      6.178718   765A      6.209180   766A      6.254099  
     767A      6.286652   768A      6.336661   769A      6.352478  
     770A      6.403645   771A      6.469222   772A      6.518997  
     773A      6.563065   774A      6.591586   775A      6.642426  
     776A      6.663158   777A      6.671100   778A      6.695268  
     779A      6.735373   780A      6.736964   781A      6.782638  
     782A      6.824504   783A      6.862627   784A      6.928206  
     785A      6.974372   786A      6.994606   787A      7.030794  
     788A      7.057786   789A      7.089035   790A      7.129243  
     791A      7.165875   792A      7.239406   793A      7.418039  
     794A      7.450662   795A      7.494836   796A      7.563045  
     797A      7.695351   798A      7.777815   799A      7.819533  
     800A      7.879607   801A      7.973925   802A      8.060043  
     803A      9.068959   804A      9.094471   805A      9.284948  
     806A      9.304763   807A      9.443776   808A      9.526893  
     809A      9.590286   810A      9.633638   811A      9.658786  
     812A      9.720673   813A     10.045825   814A     10.113997  
     815A     15.929400   816A     16.298261   817A     16.692350  
     818A     16.781284   819A     16.996239   820A     17.041322  
     821A     18.861910   822A     19.245192   823A     19.668037  
     824A     19.944375   825A     20.127466   826A     20.396033  
     827A     20.762472   828A     21.737333  

    Final Occupation by Irrep:
              A 
    DOCC [    49 ]

  Energy converged.

  @DF-RHF Final Energy:  -650.13163677412331

   => Energetics <=

    Nuclear Repulsion Energy =            815.4021953301879648
    One-Electron Energy =               -2505.6001280302807572
    Two-Electron Energy =                1040.0662959259693707
    DFT Exchange-Correlation Energy =       0.0000000000000000
    Empirical Dispersion Energy =           0.0000000000000000
    PCM Polarization Energy =               0.0000000000000000
    EFP Energy =                            0.0000000000000000
    Total Energy =                       -650.1316367741233080



Properties will be evaluated at   0.000000,   0.000000,   0.000000 Bohr

Properties computed using the SCF density matrix

  Nuclear Dipole Moment: (a.u.)
     X:     4.3656      Y:    -2.2222      Z:    -9.5772

  Electronic Dipole Moment: (a.u.)
     X:     0.0238      Y:    -0.0895      Z:     6.1642

  Dipole Moment: (a.u.)
     X:     4.3894      Y:    -2.3116      Z:    -3.4130     Total:     6.0216

  Dipole Moment: (Debye)
     X:    11.1568      Y:    -5.8756      Z:    -8.6750     Total:    15.3053


*** tstop() called on gpu-1-14.local at Mon Nov 13 00:51:04 2017
Module time:
	user time   =     950.40 seconds =      15.84 minutes
	system time =      41.13 seconds =       0.69 minutes
	total time  =        392 seconds =       6.53 minutes
Total time:
	user time   =  177303.56 seconds =    2955.06 minutes
	system time =    3320.72 seconds =      55.35 minutes
	total time  =      85487 seconds =    1424.78 minutes

  //>>>>>>>>>>>>>>>>>>>>>>>>>>>>>>>>>>>//
  //               DFMP2               //
  //<<<<<<<<<<<<<<<<<<<<<<<<<<<<<<<<<<<//

   => Loading Basis Set <=

    Name: (AUG-CC-PVTZ AUX)
    Role: RIFIT
    Keyword: DF_BASIS_MP2
    atoms 1-11  entry C          line   147 file /cbio/jclab/home/chayas/anaconda/envs/py35/share/psi4/basis/aug-cc-pvtz-ri.gbs 
    atoms 12    entry N          line   205 file /cbio/jclab/home/chayas/anaconda/envs/py35/share/psi4/basis/aug-cc-pvtz-ri.gbs 
    atoms 13    entry O          line   263 file /cbio/jclab/home/chayas/anaconda/envs/py35/share/psi4/basis/aug-cc-pvtz-ri.gbs 
    atoms 14    entry F          line   321 file /cbio/jclab/home/chayas/anaconda/envs/py35/share/psi4/basis/aug-cc-pvtz-ri.gbs 
    atoms 15-22 entry H          line    29 file /cbio/jclab/home/chayas/anaconda/envs/py35/share/psi4/basis/aug-cc-pvtz-ri.gbs 

	 --------------------------------------------------------
	                          DF-MP2                         
	      2nd-Order Density-Fitted Moller-Plesset Theory     
	              RMP2 Wavefunction,   8 Threads             
	                                                         
	        Rob Parrish, Justin Turney, Andy Simmonett,      
	           Ed Hohenstein, and C. David Sherrill          
	 --------------------------------------------------------

   => Auxiliary Basis Set <=

  Basis Set: (AUG-CC-PVTZ AUX)
    Blend: AUG-CC-PVTZ-RI
    Number of shells: 504
    Number of basis function: 1852
    Number of Cartesian functions: 2344
    Spherical Harmonics?: true
    Max angular momentum: 4

	 --------------------------------------------------------
	                 NBF =   828, NAUX =  1852
	 --------------------------------------------------------
	   CLASS    FOCC     OCC    AOCC    AVIR     VIR    FVIR
	   PAIRS       0      49      49     779     779       0
	 --------------------------------------------------------

