
    -----------------------------------------------------------------------
          Psi4: An Open-Source Ab Initio Electronic Structure Package
                               Psi4 1.1 release

                         Git: Rev {HEAD} add49b9 


    R. M. Parrish, L. A. Burns, D. G. A. Smith, A. C. Simmonett,
    A. E. DePrince III, E. G. Hohenstein, U. Bozkaya, A. Yu. Sokolov,
    R. Di Remigio, R. M. Richard, J. F. Gonthier, A. M. James,
    H. R. McAlexander, A. Kumar, M. Saitow, X. Wang, B. P. Pritchard,
    P. Verma, H. F. Schaefer III, K. Patkowski, R. A. King, E. F. Valeev,
    F. A. Evangelista, J. M. Turney, T. D. Crawford, and C. D. Sherrill,
    J. Chem. Theory Comput. in press (2017).
    (doi: 10.1021/acs.jctc.7b00174)

    -----------------------------------------------------------------------


    Psi4 started on: Sunday, 12 November 2017 01:31AM

    Process ID:   1318
    PSIDATADIR: /cbio/jclab/home/chayas/anaconda/envs/py35/share/psi4
    Memory:     500.0 MiB
    Threads:    8
    
  ==> Input File <==

--------------------------------------------------------------------------

memory 5 Gb

molecule phepyrFOH_zwitterion {
  symmetry C1
  0 1 
  C      1.885   -1.036   -0.112
  C      0.807   -0.463   0.561
  C      3.885   -3.448   -0.739
  C      5.267   -1.572   -0.128
  C      1.800   -1.079   2.676
  C      4.973   -3.994   -1.405
  C      6.320   -2.165   -0.809
  C      2.921   -1.631   0.608
  C      4.038   -2.224   -0.095
  C      0.764   -0.484   1.955
  C      2.878   -1.652   2.002
  N      6.145   -3.344   -1.421
  O      -0.227   0.043   2.574
  F      3.866   -2.220   2.709
  H      1.904   -1.013   -1.200
  H      0.011   -0.007   -0.025
  H      2.938   -3.979   -0.730
  H      5.415   -0.616   0.366
  H      1.791   -1.109   3.764
  H      4.946   -4.937   -1.932
  H      7.308   -1.731   -0.888
  H      6.933   -3.763   -1.915
  units Angstrom
}

dih_string = "1 8 9 3 285"
set optking fixed_dihedral = $dih_string

optimize('MP2/aug-cc-PVTZ')
--------------------------------------------------------------------------

  Memory set to   4.657 GiB by Python driver.
gradient() will perform analytic gradient computation.

*** tstart() called on gpu-2-6.local
*** at Sun Nov 12 01:31:42 2017

    SCF Algorithm Type (re)set to DF.

*** tstart() called on gpu-2-6.local
*** at Sun Nov 12 01:31:42 2017

   => Loading Basis Set <=

    Name: AUG-CC-PVTZ
    Role: ORBITAL
    Keyword: BASIS
    atoms 1-11  entry C          line   221 file /cbio/jclab/home/chayas/anaconda/envs/py35/share/psi4/basis/aug-cc-pvtz.gbs 
    atoms 12    entry N          line   267 file /cbio/jclab/home/chayas/anaconda/envs/py35/share/psi4/basis/aug-cc-pvtz.gbs 
    atoms 13    entry O          line   313 file /cbio/jclab/home/chayas/anaconda/envs/py35/share/psi4/basis/aug-cc-pvtz.gbs 
    atoms 14    entry F          line   359 file /cbio/jclab/home/chayas/anaconda/envs/py35/share/psi4/basis/aug-cc-pvtz.gbs 
    atoms 15-22 entry H          line    34 file /cbio/jclab/home/chayas/anaconda/envs/py35/share/psi4/basis/aug-cc-pvtz.gbs 


         ---------------------------------------------------------
                                   SCF
            by Justin Turney, Rob Parrish, and Andy Simmonett
                              RHF Reference
                        8 Threads,   4768 MiB Core
         ---------------------------------------------------------

  ==> Geometry <==

    Molecular point group: c1
    Full point group: C1

    Geometry (in Angstrom), charge = 0, multiplicity = 1:

       Center              X                  Y                   Z               Mass       
    ------------   -----------------  -----------------  -----------------  -----------------
           C         -1.361671132237     0.776028023167    -0.769610531705    12.000000000000
           C         -2.439671132237     1.349028023167    -0.096610531705    12.000000000000
           C          0.638328867763    -1.635971976833    -1.396610531705    12.000000000000
           C          2.020328867763     0.240028023167    -0.785610531705    12.000000000000
           C         -1.446671132237     0.733028023167     2.018389468295    12.000000000000
           C          1.726328867763    -2.181971976833    -2.062610531705    12.000000000000
           C          3.073328867763    -0.352971976833    -1.466610531705    12.000000000000
           C         -0.325671132237     0.181028023167    -0.049610531705    12.000000000000
           C          0.791328867763    -0.411971976833    -0.752610531705    12.000000000000
           C         -2.482671132237     1.328028023167     1.297389468295    12.000000000000
           C         -0.368671132237     0.160028023167     1.344389468295    12.000000000000
           N          2.898328867763    -1.531971976833    -2.078610531705    14.003074004780
           O         -3.473671132237     1.855028023167     1.916389468295    15.994914619560
           F          0.619328867763    -0.407971976833     2.051389468295    18.998403224000
           H         -1.342671132237     0.799028023167    -1.857610531705     1.007825032070
           H         -3.235671132237     1.805028023167    -0.682610531705     1.007825032070
           H         -0.308671132237    -2.166971976833    -1.387610531705     1.007825032070
           H          2.168328867763     1.196028023167    -0.291610531705     1.007825032070
           H         -1.455671132237     0.703028023167     3.106389468295     1.007825032070
           H          1.699328867763    -3.124971976833    -2.589610531705     1.007825032070
           H          4.061328867763     0.081028023167    -1.545610531705     1.007825032070
           H          3.686328867763    -1.950971976833    -2.572610531705     1.007825032070

  Running in c1 symmetry.

  Rotational constants: A =      0.06297  B =      0.01302  C =      0.01195 [cm^-1]
  Rotational constants: A =   1887.84866  B =    390.46779  C =    358.39342 [MHz]
  Nuclear repulsion =  816.258981038840261

  Charge       = 0
  Multiplicity = 1
  Electrons    = 98
  Nalpha       = 49
  Nbeta        = 49

  ==> Algorithm <==

  SCF Algorithm Type is DF.
  DIIS enabled.
  MOM disabled.
  Fractional occupation disabled.
  Guess Type is SAD.
  Energy threshold   = 1.00e-10
  Density threshold  = 1.00e-10
  Integral threshold = 0.00e+00

  ==> Primary Basis <==

  Basis Set: AUG-CC-PVTZ
    Blend: AUG-CC-PVTZ
    Number of shells: 268
    Number of basis function: 828
    Number of Cartesian functions: 970
    Spherical Harmonics?: true
    Max angular momentum: 3

   => Loading Basis Set <=

    Name: (AUG-CC-PVTZ AUX)
    Role: JKFIT
    Keyword: DF_BASIS_SCF
    atoms 1-11  entry C          line   161 file /cbio/jclab/home/chayas/anaconda/envs/py35/share/psi4/basis/aug-cc-pvtz-jkfit.gbs 
    atoms 12    entry N          line   223 file /cbio/jclab/home/chayas/anaconda/envs/py35/share/psi4/basis/aug-cc-pvtz-jkfit.gbs 
    atoms 13    entry O          line   285 file /cbio/jclab/home/chayas/anaconda/envs/py35/share/psi4/basis/aug-cc-pvtz-jkfit.gbs 
    atoms 14    entry F          line   347 file /cbio/jclab/home/chayas/anaconda/envs/py35/share/psi4/basis/aug-cc-pvtz-jkfit.gbs 
    atoms 15-22 entry H          line    69 file /cbio/jclab/home/chayas/anaconda/envs/py35/share/psi4/basis/aug-cc-pvtz-jkfit.gbs 

  ==> Pre-Iterations <==

   -------------------------------------------------------
    Irrep   Nso     Nmo     Nalpha   Nbeta   Ndocc  Nsocc
   -------------------------------------------------------
     A        828     828       0       0       0       0
   -------------------------------------------------------
    Total     828     828      49      49      49       0
   -------------------------------------------------------

  ==> Integral Setup <==

  ==> DFJK: Density-Fitted J/K Matrices <==

    J tasked:                  Yes
    K tasked:                  Yes
    wK tasked:                  No
    OpenMP threads:              8
    Integrals threads:           8
    Memory (MB):              3576
    Algorithm:                Disk
    Integral Cache:           NONE
    Schwarz Cutoff:          1E-12
    Fitting Condition:       1E-12

   => Auxiliary Basis Set <=

  Basis Set: (AUG-CC-PVTZ AUX)
    Blend: AUG-CC-PVTZ-JKFIT
    Number of shells: 532
    Number of basis function: 1824
    Number of Cartesian functions: 2274
    Spherical Harmonics?: true
    Max angular momentum: 4

  Minimum eigenvalue in the overlap matrix is 8.0390838886E-07.
  Using Symmetric Orthogonalization.

  SCF Guess: Superposition of Atomic Densities via on-the-fly atomic UHF.

  ==> Iterations <==

                           Total Energy        Delta E     RMS |[F,P]|

   @DF-RHF iter   0:  -657.54716995960757   -6.57547e+02   2.32724e-02 
   @DF-RHF iter   1:  -649.62240045266662    7.92477e+00   2.59536e-03 
   @DF-RHF iter   2:  -649.91184377651678   -2.89443e-01   1.80953e-03 DIIS
   @DF-RHF iter   3:  -650.05703896676187   -1.45195e-01   5.45732e-04 DIIS
   @DF-RHF iter   4:  -650.08018953349767   -2.31506e-02   1.71815e-04 DIIS
   @DF-RHF iter   5:  -650.08354847710086   -3.35894e-03   8.18467e-05 DIIS
   @DF-RHF iter   6:  -650.08441907996041   -8.70603e-04   3.31652e-05 DIIS
   @DF-RHF iter   7:  -650.08468217959398   -2.63100e-04   1.48086e-05 DIIS
   @DF-RHF iter   8:  -650.08473184549462   -4.96659e-05   5.93239e-06 DIIS
   @DF-RHF iter   9:  -650.08474606898915   -1.42235e-05   2.71808e-06 DIIS
   @DF-RHF iter  10:  -650.08474888945034   -2.82046e-06   1.10787e-06 DIIS
   @DF-RHF iter  11:  -650.08474942975238   -5.40302e-07   4.19679e-07 DIIS
   @DF-RHF iter  12:  -650.08474950589618   -7.61438e-08   2.05766e-07 DIIS
   @DF-RHF iter  13:  -650.08474951920584   -1.33097e-08   1.13466e-07 DIIS
   @DF-RHF iter  14:  -650.08474952363861   -4.43276e-09   4.80341e-08 DIIS
   @DF-RHF iter  15:  -650.08474952418419   -5.45583e-10   1.84576e-08 DIIS
   @DF-RHF iter  16:  -650.08474952425252   -6.83258e-11   7.03425e-09 DIIS
   @DF-RHF iter  17:  -650.08474952425229    2.27374e-13   2.80416e-09 DIIS
   @DF-RHF iter  18:  -650.08474952427116   -1.88720e-11   1.02509e-09 DIIS
   @DF-RHF iter  19:  -650.08474952427048    6.82121e-13   4.33622e-10 DIIS
   @DF-RHF iter  20:  -650.08474952426445    6.02540e-12   1.91532e-10 DIIS
   @DF-RHF iter  21:  -650.08474952427480   -1.03455e-11   8.54916e-11 DIIS

  ==> Post-Iterations <==

    Orbital Energies (a.u.)
    -----------------------

    Doubly Occupied:                                                      

       1A    -26.298221     2A    -20.398953     3A    -15.739764  
       4A    -11.384719     5A    -11.383964     6A    -11.332568  
       7A    -11.310545     8A    -11.309973     9A    -11.303404  
      10A    -11.224286    11A    -11.221965    12A    -11.204770  
      13A    -11.170007    14A    -11.168728    15A     -1.617438  
      16A     -1.415699    17A     -1.230183    18A     -1.197030  
      19A     -1.137636    20A     -1.106615    21A     -0.999921  
      22A     -0.980971    23A     -0.963765    24A     -0.913988  
      25A     -0.865373    26A     -0.815716    27A     -0.797281  
      28A     -0.765594    29A     -0.744643    30A     -0.709713  
      31A     -0.697449    32A     -0.689952    33A     -0.681267  
      34A     -0.681091    35A     -0.663682    36A     -0.618409  
      37A     -0.607510    38A     -0.580691    39A     -0.569884  
      40A     -0.526713    41A     -0.497947    42A     -0.484053  
      43A     -0.459802    44A     -0.458574    45A     -0.437852  
      46A     -0.394345    47A     -0.317175    48A     -0.307410  
      49A     -0.223854  

    Virtual:                                                              

      50A     -0.019000    51A      0.002318    52A      0.004228  
      53A      0.017618    54A      0.027513    55A      0.035676  
      56A      0.037828    57A      0.039533    58A      0.049449  
      59A      0.056124    60A      0.060073    61A      0.065620  
      62A      0.069711    63A      0.073662    64A      0.076597  
      65A      0.086707    66A      0.093849    67A      0.097066  
      68A      0.100795    69A      0.106079    70A      0.112299  
      71A      0.120457    72A      0.123718    73A      0.124939  
      74A      0.125805    75A      0.129182    76A      0.130131  
      77A      0.133303    78A      0.145135    79A      0.148527  
      80A      0.154240    81A      0.158412    82A      0.160097  
      83A      0.162834    84A      0.169637    85A      0.176197  
      86A      0.180084    87A      0.182863    88A      0.187023  
      89A      0.189724    90A      0.192309    91A      0.193358  
      92A      0.200116    93A      0.203453    94A      0.203717  
      95A      0.208855    96A      0.210152    97A      0.221204  
      98A      0.223242    99A      0.231573   100A      0.238494  
     101A      0.243525   102A      0.244516   103A      0.247562  
     104A      0.248067   105A      0.252012   106A      0.259670  
     107A      0.262481   108A      0.265274   109A      0.268540  
     110A      0.274687   111A      0.277339   112A      0.280890  
     113A      0.289490   114A      0.293019   115A      0.297944  
     116A      0.300134   117A      0.302697   118A      0.307082  
     119A      0.312775   120A      0.315550   121A      0.319298  
     122A      0.330283   123A      0.332485   124A      0.337183  
     125A      0.340814   126A      0.346050   127A      0.350788  
     128A      0.353753   129A      0.356514   130A      0.358219  
     131A      0.362424   132A      0.369101   133A      0.371842  
     134A      0.375278   135A      0.379857   136A      0.381389  
     137A      0.387100   138A      0.387848   139A      0.391756  
     140A      0.396042   141A      0.406768   142A      0.413061  
     143A      0.416169   144A      0.416856   145A      0.423516  
     146A      0.425096   147A      0.432213   148A      0.435557  
     149A      0.439259   150A      0.440682   151A      0.449896  
     152A      0.453942   153A      0.457485   154A      0.460895  
     155A      0.463471   156A      0.470605   157A      0.472576  
     158A      0.477220   159A      0.477763   160A      0.480162  
     161A      0.485407   162A      0.487865   163A      0.493371  
     164A      0.497833   165A      0.499811   166A      0.502100  
     167A      0.508229   168A      0.510826   169A      0.515899  
     170A      0.524416   171A      0.526508   172A      0.529728  
     173A      0.536157   174A      0.541969   175A      0.543397  
     176A      0.549952   177A      0.550908   178A      0.559277  
     179A      0.561342   180A      0.564732   181A      0.577950  
     182A      0.581706   183A      0.587651   184A      0.592760  
     185A      0.598297   186A      0.599856   187A      0.603800  
     188A      0.608686   189A      0.613899   190A      0.615803  
     191A      0.625688   192A      0.632676   193A      0.637703  
     194A      0.644262   195A      0.650130   196A      0.658151  
     197A      0.665189   198A      0.669294   199A      0.669385  
     200A      0.673281   201A      0.682255   202A      0.684905  
     203A      0.688871   204A      0.695620   205A      0.701047  
     206A      0.710160   207A      0.719477   208A      0.722104  
     209A      0.729582   210A      0.732029   211A      0.737098  
     212A      0.738409   213A      0.741483   214A      0.744627  
     215A      0.750235   216A      0.752470   217A      0.764866  
     218A      0.769167   219A      0.772910   220A      0.785634  
     221A      0.787461   222A      0.790184   223A      0.797984  
     224A      0.812160   225A      0.815310   226A      0.830255  
     227A      0.833998   228A      0.838591   229A      0.839038  
     230A      0.851677   231A      0.855745   232A      0.857478  
     233A      0.860869   234A      0.867431   235A      0.877945  
     236A      0.883894   237A      0.889663   238A      0.895422  
     239A      0.896792   240A      0.900325   241A      0.901957  
     242A      0.910414   243A      0.912151   244A      0.916603  
     245A      0.920098   246A      0.923619   247A      0.928065  
     248A      0.936455   249A      0.939919   250A      0.946954  
     251A      0.952172   252A      0.953684   253A      0.958816  
     254A      0.962262   255A      0.968303   256A      0.970752  
     257A      0.984621   258A      0.987543   259A      0.988712  
     260A      0.997752   261A      1.001907   262A      1.007722  
     263A      1.010624   264A      1.014631   265A      1.018026  
     266A      1.022052   267A      1.024027   268A      1.031571  
     269A      1.033560   270A      1.044449   271A      1.048394  
     272A      1.051788   273A      1.053114   274A      1.058289  
     275A      1.062572   276A      1.071491   277A      1.071984  
     278A      1.081012   279A      1.082014   280A      1.082812  
     281A      1.088740   282A      1.090954   283A      1.097471  
     284A      1.098485   285A      1.102034   286A      1.112473  
     287A      1.115138   288A      1.122223   289A      1.126487  
     290A      1.132158   291A      1.137249   292A      1.143193  
     293A      1.154862   294A      1.157386   295A      1.161702  
     296A      1.170460   297A      1.175264   298A      1.175963  
     299A      1.186050   300A      1.188086   301A      1.193303  
     302A      1.196407   303A      1.203796   304A      1.206697  
     305A      1.209012   306A      1.218701   307A      1.219667  
     308A      1.223779   309A      1.227200   310A      1.235944  
     311A      1.240339   312A      1.247787   313A      1.257538  
     314A      1.259836   315A      1.262081   316A      1.268798  
     317A      1.276876   318A      1.281728   319A      1.289826  
     320A      1.292446   321A      1.299545   322A      1.306919  
     323A      1.311061   324A      1.325422   325A      1.327797  
     326A      1.338603   327A      1.343833   328A      1.348480  
     329A      1.352373   330A      1.357479   331A      1.360337  
     332A      1.370393   333A      1.376643   334A      1.382755  
     335A      1.387094   336A      1.398298   337A      1.403486  
     338A      1.408666   339A      1.416335   340A      1.422231  
     341A      1.426839   342A      1.432154   343A      1.438197  
     344A      1.440120   345A      1.448087   346A      1.466402  
     347A      1.469703   348A      1.476715   349A      1.485508  
     350A      1.488245   351A      1.496118   352A      1.504026  
     353A      1.519595   354A      1.528189   355A      1.533868  
     356A      1.538551   357A      1.544526   358A      1.560664  
     359A      1.563624   360A      1.570292   361A      1.576105  
     362A      1.585723   363A      1.590639   364A      1.600398  
     365A      1.604429   366A      1.614522   367A      1.619151  
     368A      1.624211   369A      1.630440   370A      1.640349  
     371A      1.642225   372A      1.650035   373A      1.653203  
     374A      1.665316   375A      1.669872   376A      1.680258  
     377A      1.697890   378A      1.704266   379A      1.720936  
     380A      1.721356   381A      1.738724   382A      1.742077  
     383A      1.746626   384A      1.754168   385A      1.761147  
     386A      1.771280   387A      1.778343   388A      1.781541  
     389A      1.790565   390A      1.797365   391A      1.803841  
     392A      1.819349   393A      1.823446   394A      1.829145  
     395A      1.837596   396A      1.843535   397A      1.853397  
     398A      1.860458   399A      1.866239   400A      1.870698  
     401A      1.895273   402A      1.909088   403A      1.914597  
     404A      1.924067   405A      1.925635   406A      1.930957  
     407A      1.934440   408A      1.949845   409A      1.952557  
     410A      1.961854   411A      1.967702   412A      1.974388  
     413A      1.976119   414A      1.980891   415A      1.987163  
     416A      1.996928   417A      2.007630   418A      2.015092  
     419A      2.024411   420A      2.028872   421A      2.035039  
     422A      2.039163   423A      2.056535   424A      2.060110  
     425A      2.067191   426A      2.076840   427A      2.079085  
     428A      2.093550   429A      2.098939   430A      2.122517  
     431A      2.127089   432A      2.132777   433A      2.136955  
     434A      2.143693   435A      2.147911   436A      2.156639  
     437A      2.168307   438A      2.172020   439A      2.180500  
     440A      2.189500   441A      2.194597   442A      2.203555  
     443A      2.216501   444A      2.224317   445A      2.234208  
     446A      2.240385   447A      2.252205   448A      2.271920  
     449A      2.280666   450A      2.302501   451A      2.304078  
     452A      2.309676   453A      2.323105   454A      2.324510  
     455A      2.334548   456A      2.348481   457A      2.352813  
     458A      2.372228   459A      2.377661   460A      2.389499  
     461A      2.393107   462A      2.404807   463A      2.412240  
     464A      2.421026   465A      2.423482   466A      2.441444  
     467A      2.455955   468A      2.463420   469A      2.480145  
     470A      2.487711   471A      2.494064   472A      2.505111  
     473A      2.510620   474A      2.518734   475A      2.528555  
     476A      2.548920   477A      2.558290   478A      2.573265  
     479A      2.577514   480A      2.589182   481A      2.614741  
     482A      2.625116   483A      2.626056   484A      2.638049  
     485A      2.652669   486A      2.665185   487A      2.673092  
     488A      2.681837   489A      2.693910   490A      2.698292  
     491A      2.747756   492A      2.753709   493A      2.779195  
     494A      2.782548   495A      2.799660   496A      2.803373  
     497A      2.824974   498A      2.843347   499A      2.866669  
     500A      2.890593   501A      2.900329   502A      2.919651  
     503A      2.929621   504A      2.969585   505A      2.993046  
     506A      3.002820   507A      3.030481   508A      3.035210  
     509A      3.044323   510A      3.056547   511A      3.065663  
     512A      3.071494   513A      3.095406   514A      3.103274  
     515A      3.134298   516A      3.146835   517A      3.153126  
     518A      3.180090   519A      3.193200   520A      3.200699  
     521A      3.210478   522A      3.219113   523A      3.223341  
     524A      3.234353   525A      3.260577   526A      3.269551  
     527A      3.272557   528A      3.276229   529A      3.303752  
     530A      3.334300   531A      3.338629   532A      3.341673  
     533A      3.353026   534A      3.358734   535A      3.372209  
     536A      3.383019   537A      3.389091   538A      3.397833  
     539A      3.407689   540A      3.431185   541A      3.432901  
     542A      3.437793   543A      3.439316   544A      3.449929  
     545A      3.472243   546A      3.482503   547A      3.486667  
     548A      3.494756   549A      3.503012   550A      3.513548  
     551A      3.517635   552A      3.529066   553A      3.533443  
     554A      3.548559   555A      3.549720   556A      3.564142  
     557A      3.571423   558A      3.577119   559A      3.583392  
     560A      3.595575   561A      3.609557   562A      3.617079  
     563A      3.625843   564A      3.637886   565A      3.644984  
     566A      3.654014   567A      3.662813   568A      3.677649  
     569A      3.682092   570A      3.690541   571A      3.700541  
     572A      3.711125   573A      3.715907   574A      3.725715  
     575A      3.725852   576A      3.738863   577A      3.742346  
     578A      3.756304   579A      3.756986   580A      3.768673  
     581A      3.784839   582A      3.795231   583A      3.797569  
     584A      3.806890   585A      3.816478   586A      3.828503  
     587A      3.841188   588A      3.842841   589A      3.845572  
     590A      3.856238   591A      3.864550   592A      3.878231  
     593A      3.884206   594A      3.893201   595A      3.896727  
     596A      3.909697   597A      3.915723   598A      3.929258  
     599A      3.936600   600A      3.948504   601A      3.956095  
     602A      3.967658   603A      3.976890   604A      3.979374  
     605A      3.991077   606A      4.000380   607A      4.003196  
     608A      4.016835   609A      4.024082   610A      4.031561  
     611A      4.037198   612A      4.053738   613A      4.056008  
     614A      4.066779   615A      4.085468   616A      4.089268  
     617A      4.100770   618A      4.103507   619A      4.114646  
     620A      4.120177   621A      4.131358   622A      4.135869  
     623A      4.143267   624A      4.160222   625A      4.165392  
     626A      4.177692   627A      4.181028   628A      4.191589  
     629A      4.193917   630A      4.207334   631A      4.218092  
     632A      4.226678   633A      4.233999   634A      4.261828  
     635A      4.267628   636A      4.274826   637A      4.279995  
     638A      4.287800   639A      4.300551   640A      4.302091  
     641A      4.313509   642A      4.323554   643A      4.329825  
     644A      4.339183   645A      4.341826   646A      4.355481  
     647A      4.371242   648A      4.372580   649A      4.390700  
     650A      4.404496   651A      4.411494   652A      4.413732  
     653A      4.417194   654A      4.422171   655A      4.432071  
     656A      4.437663   657A      4.445187   658A      4.461743  
     659A      4.472707   660A      4.482412   661A      4.484681  
     662A      4.498447   663A      4.517184   664A      4.529250  
     665A      4.536074   666A      4.559391   667A      4.565477  
     668A      4.575847   669A      4.586010   670A      4.605360  
     671A      4.608869   672A      4.618032   673A      4.629778  
     674A      4.656285   675A      4.667556   676A      4.699159  
     677A      4.708346   678A      4.711746   679A      4.734513  
     680A      4.740972   681A      4.760860   682A      4.763038  
     683A      4.786953   684A      4.792272   685A      4.799367  
     686A      4.811072   687A      4.847252   688A      4.855006  
     689A      4.866645   690A      4.872300   691A      4.879659  
     692A      4.886834   693A      4.913301   694A      4.917107  
     695A      4.923328   696A      4.932901   697A      4.945864  
     698A      4.963126   699A      4.971677   700A      4.996525  
     701A      5.020512   702A      5.026216   703A      5.029364  
     704A      5.047771   705A      5.056361   706A      5.059946  
     707A      5.064473   708A      5.094605   709A      5.104348  
     710A      5.119132   711A      5.125539   712A      5.139268  
     713A      5.153010   714A      5.155387   715A      5.181316  
     716A      5.193674   717A      5.199079   718A      5.205875  
     719A      5.233874   720A      5.236560   721A      5.249756  
     722A      5.267516   723A      5.288296   724A      5.292308  
     725A      5.305423   726A      5.348825   727A      5.352755  
     728A      5.365901   729A      5.372494   730A      5.384791  
     731A      5.394749   732A      5.416641   733A      5.433641  
     734A      5.443750   735A      5.490118   736A      5.494801  
     737A      5.513031   738A      5.519353   739A      5.571617  
     740A      5.587990   741A      5.616694   742A      5.638376  
     743A      5.663240   744A      5.686756   745A      5.704178  
     746A      5.707508   747A      5.735516   748A      5.738001  
     749A      5.782465   750A      5.791534   751A      5.799034  
     752A      5.829369   753A      5.852253   754A      5.879761  
     755A      5.922816   756A      5.932398   757A      5.971382  
     758A      6.008488   759A      6.029374   760A      6.067590  
     761A      6.084966   762A      6.107812   763A      6.131374  
     764A      6.169534   765A      6.244772   766A      6.260774  
     767A      6.310084   768A      6.331680   769A      6.346016  
     770A      6.398248   771A      6.443347   772A      6.456168  
     773A      6.512040   774A      6.552990   775A      6.578119  
     776A      6.625569   777A      6.662413   778A      6.717558  
     779A      6.756243   780A      6.794019   781A      6.802694  
     782A      6.845823   783A      6.885963   784A      6.890062  
     785A      6.940402   786A      6.985065   787A      7.033831  
     788A      7.062652   789A      7.095516   790A      7.203420  
     791A      7.219243   792A      7.259067   793A      7.486088  
     794A      7.514109   795A      7.542962   796A      7.544350  
     797A      7.638683   798A      7.814954   799A      7.845290  
     800A      7.923027   801A      8.052434   802A      8.119058  
     803A      9.013123   804A      9.063955   805A      9.295022  
     806A      9.312774   807A      9.426000   808A      9.535358  
     809A      9.557923   810A      9.606153   811A      9.669702  
     812A      9.736851   813A     10.046500   814A     10.101583  
     815A     15.870990   816A     16.142559   817A     16.176930  
     818A     16.530651   819A     16.733437   820A     17.098620  
     821A     18.865812   822A     19.234717   823A     19.708559  
     824A     19.949950   825A     20.214025   826A     20.276273  
     827A     20.458099   828A     21.814897  

    Final Occupation by Irrep:
              A 
    DOCC [    49 ]

  Energy converged.

  @DF-RHF Final Energy:  -650.08474952427480

   => Energetics <=

    Nuclear Repulsion Energy =            816.2589810388402611
    One-Electron Energy =               -2507.4652827816607896
    Two-Electron Energy =                1041.1215522185457303
    DFT Exchange-Correlation Energy =       0.0000000000000000
    Empirical Dispersion Energy =           0.0000000000000000
    PCM Polarization Energy =               0.0000000000000000
    EFP Energy =                            0.0000000000000000
    Total Energy =                       -650.0847495242746845



Properties will be evaluated at   0.000000,   0.000000,   0.000000 Bohr

Properties computed using the SCF density matrix

  Nuclear Dipole Moment: (a.u.)
     X:     4.3336      Y:    -2.0943      Z:    -9.2518

  Electronic Dipole Moment: (a.u.)
     X:     2.3982      Y:    -1.4586      Z:     4.4026

  Dipole Moment: (a.u.)
     X:     6.7318      Y:    -3.5529      Z:    -4.8491     Total:     9.0252

  Dipole Moment: (Debye)
     X:    17.1105      Y:    -9.0304      Z:   -12.3253     Total:    22.9398


*** tstop() called on gpu-2-6.local at Sun Nov 12 01:41:21 2017
Module time:
	user time   =    1357.24 seconds =      22.62 minutes
	system time =      55.28 seconds =       0.92 minutes
	total time  =        579 seconds =       9.65 minutes
Total time:
	user time   =    1357.25 seconds =      22.62 minutes
	system time =      55.28 seconds =       0.92 minutes
	total time  =        579 seconds =       9.65 minutes

  //>>>>>>>>>>>>>>>>>>>>>>>>>>>>>>>>>>>//
  //               DFMP2               //
  //<<<<<<<<<<<<<<<<<<<<<<<<<<<<<<<<<<<//

   => Loading Basis Set <=

    Name: (AUG-CC-PVTZ AUX)
    Role: RIFIT
    Keyword: DF_BASIS_MP2
    atoms 1-11  entry C          line   147 file /cbio/jclab/home/chayas/anaconda/envs/py35/share/psi4/basis/aug-cc-pvtz-ri.gbs 
    atoms 12    entry N          line   205 file /cbio/jclab/home/chayas/anaconda/envs/py35/share/psi4/basis/aug-cc-pvtz-ri.gbs 
    atoms 13    entry O          line   263 file /cbio/jclab/home/chayas/anaconda/envs/py35/share/psi4/basis/aug-cc-pvtz-ri.gbs 
    atoms 14    entry F          line   321 file /cbio/jclab/home/chayas/anaconda/envs/py35/share/psi4/basis/aug-cc-pvtz-ri.gbs 
    atoms 15-22 entry H          line    29 file /cbio/jclab/home/chayas/anaconda/envs/py35/share/psi4/basis/aug-cc-pvtz-ri.gbs 

	 --------------------------------------------------------
	                          DF-MP2                         
	      2nd-Order Density-Fitted Moller-Plesset Theory     
	              RMP2 Wavefunction,   8 Threads             
	                                                         
	        Rob Parrish, Justin Turney, Andy Simmonett,      
	           Ed Hohenstein, and C. David Sherrill          
	 --------------------------------------------------------

   => Auxiliary Basis Set <=

  Basis Set: (AUG-CC-PVTZ AUX)
    Blend: AUG-CC-PVTZ-RI
    Number of shells: 504
    Number of basis function: 1852
    Number of Cartesian functions: 2344
    Spherical Harmonics?: true
    Max angular momentum: 4

	 --------------------------------------------------------
	                 NBF =   828, NAUX =  1852
	 --------------------------------------------------------
	   CLASS    FOCC     OCC    AOCC    AVIR     VIR    FVIR
	   PAIRS       0      49      49     779     779       0
	 --------------------------------------------------------


         ------------------------------------------------------------
                                     CPHF                           
                                  Rob Parrish                       
         ------------------------------------------------------------

  ==> Geometry <==

    Molecular point group: c1
    Full point group: C1

    Geometry (in Angstrom), charge = 0, multiplicity = 1:

       Center              X                  Y                   Z               Mass       
    ------------   -----------------  -----------------  -----------------  -----------------
           C         -1.361671132237     0.776028023167    -0.769610531705    12.000000000000
           C         -2.439671132237     1.349028023167    -0.096610531705    12.000000000000
           C          0.638328867763    -1.635971976833    -1.396610531705    12.000000000000
           C          2.020328867763     0.240028023167    -0.785610531705    12.000000000000
           C         -1.446671132237     0.733028023167     2.018389468295    12.000000000000
           C          1.726328867763    -2.181971976833    -2.062610531705    12.000000000000
           C          3.073328867763    -0.352971976833    -1.466610531705    12.000000000000
           C         -0.325671132237     0.181028023167    -0.049610531705    12.000000000000
           C          0.791328867763    -0.411971976833    -0.752610531705    12.000000000000
           C         -2.482671132237     1.328028023167     1.297389468295    12.000000000000
           C         -0.368671132237     0.160028023167     1.344389468295    12.000000000000
           N          2.898328867763    -1.531971976833    -2.078610531705    14.003074004780
           O         -3.473671132237     1.855028023167     1.916389468295    15.994914619560
           F          0.619328867763    -0.407971976833     2.051389468295    18.998403224000
           H         -1.342671132237     0.799028023167    -1.857610531705     1.007825032070
           H         -3.235671132237     1.805028023167    -0.682610531705     1.007825032070
           H         -0.308671132237    -2.166971976833    -1.387610531705     1.007825032070
           H          2.168328867763     1.196028023167    -0.291610531705     1.007825032070
           H         -1.455671132237     0.703028023167     3.106389468295     1.007825032070
           H          1.699328867763    -3.124971976833    -2.589610531705     1.007825032070
           H          4.061328867763     0.081028023167    -1.545610531705     1.007825032070
           H          3.686328867763    -1.950971976833    -2.572610531705     1.007825032070

  Nuclear repulsion =  816.258981038840261
  Reference energy  = -650.084749524274798

  ==> Basis Set <==

  Basis Set: AUG-CC-PVTZ
    Blend: AUG-CC-PVTZ
    Number of shells: 268
    Number of basis function: 828
    Number of Cartesian functions: 970
    Spherical Harmonics?: true
    Max angular momentum: 3

  ==> CGRSolver (by Rob Parrish) <==

   Number of roots    =         1
   Preconditioning    =    JACOBI
   Convergence cutoff =     1E-06
   Maximum iterations =       100

  ==> CPHFRHamiltonian (by Rob Parrish) <== 

  ==> DFJK: Density-Fitted J/K Matrices <==

    J tasked:                  Yes
    K tasked:                  Yes
    wK tasked:                  No
    OpenMP threads:              8
    Integrals threads:           8
    Memory (MB):              3576
    Algorithm:                Disk
    Integral Cache:           NONE
    Schwarz Cutoff:          1E-12
    Fitting Condition:       1E-12

   => Auxiliary Basis Set <=

  Basis Set: (AUG-CC-PVTZ AUX)
    Blend: AUG-CC-PVTZ-JKFIT
    Number of shells: 532
    Number of basis function: 1824
    Number of Cartesian functions: 2274
    Spherical Harmonics?: true
    Max angular momentum: 4

  ==> CPHF Iterations <==

  => Iterations <=

             Iter  Converged  Remaining    Residual
  CGR           1          0          1   1.481E-01
  CGR           2          0          1   5.814E-02
  CGR           3          0          1   3.163E-02
  CGR           4          0          1   9.769E-03
  CGR           5          0          1   3.804E-03
  CGR           6          0          1   1.744E-03
  CGR           7          0          1   7.553E-04
  CGR           8          0          1   3.267E-04
  CGR           9          0          1   1.316E-04
  CGR          10          0          1   5.522E-05
  CGR          11          0          1   2.667E-05
  CGR          12          0          1   9.814E-06
  CGR          13          0          1   3.596E-06
  CGR          14          0          1   1.244E-06
  CGR          15          1          0   3.777E-07

    CGRSolver converged.

  ==> DFCorrGrad: Density-Fitted Correlated Gradients <==

    OpenMP threads:              8
    Integrals threads:           8
    Memory (MB):              3576
    Schwarz Cutoff:          0E+00
    Fitting Condition:       1E-12

   => Auxiliary Basis Set <=

  Basis Set: (AUG-CC-PVTZ AUX)
    Blend: AUG-CC-PVTZ-JKFIT
    Number of shells: 532
    Number of basis function: 1824
    Number of Cartesian functions: 2274
    Spherical Harmonics?: true
    Max angular momentum: 4

	-----------------------------------------------------------
	 ==================> DF-MP2 Energies <==================== 
	-----------------------------------------------------------
	 Reference Energy          =    -650.0847495242747982 [Eh]
	 Singles Energy            =      -0.0000000000000003 [Eh]
	 Same-Spin Energy          =      -0.6778035239242797 [Eh]
	 Opposite-Spin Energy      =      -2.0224492148614734 [Eh]
	 Correlation Energy        =      -2.7002527387857538 [Eh]
	 Total Energy              =    -652.7850022630605054 [Eh]
	-----------------------------------------------------------
	 ================> DF-SCS-MP2 Energies <================== 
	-----------------------------------------------------------
	 SCS Same-Spin Scale       =       0.3333333333333333 [-]
	 SCS Opposite-Spin Scale   =       1.2000000000000000 [-]
	 SCS Same-Spin Energy      =      -0.2259345079747599 [Eh]
	 SCS Opposite-Spin Energy  =      -2.4269390578337680 [Eh]
	 SCS Correlation Energy    =      -2.6528735658085281 [Eh]
	 SCS Total Energy          =    -652.7376230900832752 [Eh]
	-----------------------------------------------------------


  -Total Gradient:
     Atom            X                  Y                   Z
    ------   -----------------  -----------------  -----------------
       1        0.028677455715    -0.003096462264    -0.004993493955
       2       -0.024090550369     0.011503816362     0.045104779993
       3       -0.014839419050     0.008122552167     0.019632628880
       4       -0.022729723266     0.011563909749     0.004046586307
       5       -0.048803203457     0.027340033851    -0.001294591994
       6        0.016252980577     0.005467313551     0.000720867211
       7       -0.001802428623    -0.014959173930    -0.009854246949
       8       -0.021310712287     0.011897148388     0.005372038226
       9        0.019517531112    -0.010538438708    -0.014642454339
      10        0.058663508256    -0.031815334643    -0.036449489594
      11        0.037899022363    -0.032303011573    -0.008105781212
      12       -0.005958438366     0.003704963585     0.003731083363
      13       -0.014098479787     0.007753088658     0.008056066538
      14       -0.013511241012     0.007247018559    -0.000392510719
      15       -0.002903501308     0.001543172614    -0.004288072883
      16       -0.003501957939     0.000597387375    -0.008674820559
      17       -0.004728458440    -0.003902112411    -0.001565859605
      18        0.002561825729     0.005485545818     0.002650949590
      19        0.003898031547    -0.000856050041     0.007593577280
      20        0.000417993506    -0.001258645940    -0.002140854020
      21        0.003261779562     0.000252351420    -0.000014680050
      22        0.007127985534    -0.003749072582    -0.004491721500


*** tstop() called on gpu-2-6.local at Sun Nov 12 02:19:41 2017
Module time:
	user time   =    6409.25 seconds =     106.82 minutes
	system time =     119.87 seconds =       2.00 minutes
	total time  =       2879 seconds =      47.98 minutes
Total time:
	user time   =    6409.26 seconds =     106.82 minutes
	system time =     119.87 seconds =       2.00 minutes
	total time  =       2879 seconds =      47.98 minutes

			-----------------------------------------
			 OPTKING 2.0: for geometry optimizations 
			  - R.A. King,  Bethel University        
			-----------------------------------------

	Internal coordinates to be generated automatically.
	Detected frag 1 with atoms:  1 2 3 4 5 6 7 8 9 10 11 12 13 14 15 16 17 18 19 20
	 21 22
	---Fragment 1 Bond Connectivity---
	 1 : 2 8 15
	 2 : 1 10 16
	 3 : 6 9 17
	 4 : 7 9 18
	 5 : 10 11 19
	 6 : 3 12 20
	 7 : 4 12 21
	 8 : 1 9 11
	 9 : 3 4 8
	 10 : 2 5 13
	 11 : 5 8 14
	 12 : 6 7 22
	 13 : 10
	 14 : 11
	 15 : 1
	 16 : 2
	 17 : 3
	 18 : 4
	 19 : 5
	 20 : 6
	 21 : 7
	 22 : 12

	Assuming in current code that numbering for constraints corresponds to unified fragment.
	Fixed dihedral atom list: 
	     1     8     9     3
	---Fragment 1 Geometry and Gradient---
	 C          -2.5731855230        1.4664804352       -1.4543531339
	 C          -4.6103102942        2.5492935094       -0.1825674465
	 C           1.2062667428       -3.0915389973       -2.6392114192
	 C           3.8178682584        0.4535872280       -1.4845887520
	 C          -2.7338122443        1.3852222115        3.8142033246
	 C           3.2622887754       -4.1233294658       -3.8977690237
	 C           5.8077498764       -0.6670203688       -2.7714922485
	 C          -0.6154292493        0.3420933862       -0.0937503182
	 C           1.4953948411       -0.7785142106       -1.4222277896
	 C          -4.6915685179        2.5096092606        2.4517107828
	 C          -0.6966874730        0.3024091374        2.5405279110
	 N           5.4770478031       -2.8950074795       -3.9280046419
	 O          -6.5642871156        3.5054949326        3.6214512590
	 F           1.1703619463       -0.7709553061        3.8765642870
	 H          -2.5372807265        1.5099441363       -3.5103751665
	 H          -6.1145322960        3.4110086260       -1.2899469603
	 H          -0.5833039051       -4.0949835739       -2.6222038840
	 H           4.0975477261        2.2601654110       -0.5510640424
	 H          -2.7508197795        1.3285304275        5.8702253572
	 H           3.2112661698       -5.9053412092       -4.8936546958
	 H           7.6747992957        0.1531207729       -2.9207806130
	 H           6.9661519958       -3.6868027291       -4.8615293515
	             0.0286774557       -0.0030964623       -0.0049934940
	            -0.0240905504        0.0115038164        0.0451047800
	            -0.0148394190        0.0081225522        0.0196326289
	            -0.0227297233        0.0115639097        0.0040465863
	            -0.0488032035        0.0273400339       -0.0012945920
	             0.0162529806        0.0054673136        0.0007208672
	            -0.0018024286       -0.0149591739       -0.0098542469
	            -0.0213107123        0.0118971484        0.0053720382
	             0.0195175311       -0.0105384387       -0.0146424543
	             0.0586635083       -0.0318153346       -0.0364494896
	             0.0378990224       -0.0323030116       -0.0081057812
	            -0.0059584384        0.0037049636        0.0037310834
	            -0.0140984798        0.0077530887        0.0080560665
	            -0.0135112410        0.0072470186       -0.0003925107
	            -0.0029035013        0.0015431726       -0.0042880729
	            -0.0035019579        0.0005973874       -0.0086748206
	            -0.0047284584       -0.0039021124       -0.0015658596
	             0.0025618257        0.0054855458        0.0026509496
	             0.0038980315       -0.0008560500        0.0075935773
	             0.0004179935       -0.0012586459       -0.0021408540
	             0.0032617796        0.0002523514       -0.0000146800
	             0.0071279855       -0.0037490726       -0.0044917215

	Previous optimization step data not found.  Starting new optimization.

	---Fragment 1 Intrafragment Coordinates---
	 - Coordinate -           - BOHR/RAD -       - ANG/DEG -
	 R(1,2)           =         2.634350	       1.394038
	 R(1,8)           =         2.635962	       1.394891
	 R(1,15)          =         2.056795	       1.088409
	 R(2,10)          =         2.635830	       1.394821
	 R(2,16)          =         2.057067	       1.088553
	 R(3,6)           =         2.622172	       1.387594
	 R(3,9)           =         2.629587	       1.391518
	 R(3,17)          =         2.051768	       1.085749
	 R(4,7)           =         2.621357	       1.387162
	 R(4,9)           =         2.629800	       1.391630
	 R(4,18)          =         2.052660	       1.086221
	 R(5,10)          =         2.636938	       1.395407
	 R(5,11)          =         2.635263	       1.394521
	 R(5,19)          =         2.056874	       1.088451
	 R(6,12)          =         2.532755	       1.340276
	 R(6,20)          =         2.042047	       1.080605
	 R(7,12)          =         2.531958	       1.339854
	 R(7,21)          =         2.044699	       1.082008
	 R(8,9)           =         2.734263	       1.446909
	 R(8,11)          =         2.635830	       1.394821
	 R(10,13)         =         2.422221	       1.281784
	 R(11,14)         =         2.534359	       1.341125
	 R(12,22)         =         1.927651	       1.020069
	 B(1,2,10)        =         2.094553	     120.009056
	 B(1,2,16)        =         2.068903	     118.539404
	 B(1,8,9)         =         2.091392	     119.827938
	 B(1,8,11)        =         2.093692	     119.959722
	 B(2,1,8)         =         2.094940	     120.031219
	 B(2,1,15)        =         2.079908	     119.169966
	 B(2,10,5)        =         2.094306	     119.994870
	 B(2,10,13)       =         2.094719	     120.018581
	 B(3,6,12)        =         2.095024	     120.036034
	 B(3,6,20)        =         2.162606	     123.908214
	 B(3,9,4)         =         2.092365	     119.883711
	 B(3,9,8)         =         2.094948	     120.031651
	 B(4,7,12)        =         2.095853	     120.083554
	 B(4,7,21)        =         2.162198	     123.884823
	 B(4,9,8)         =         2.095872	     120.084633
	 B(5,10,13)       =         2.094160	     119.986548
	 B(5,11,8)        =         2.095181	     120.045019
	 B(5,11,14)       =         2.081414	     119.256220
	 B(6,3,9)         =         2.073773	     118.818447
	 B(6,3,17)        =         2.089126	     119.698102
	 B(6,12,7)        =         2.135910	     122.378602
	 B(6,12,22)       =         2.073826	     118.821465
	 B(7,4,9)         =         2.073445	     118.799619
	 B(7,4,18)        =         2.089876	     119.741087
	 B(7,12,22)       =         2.073447	     118.799760
	 B(8,1,15)        =         2.108336	     120.798746
	 B(8,11,14)       =         2.106591	     120.698759
	 B(9,3,17)        =         2.120286	     121.483451
	 B(9,4,18)        =         2.119864	     121.459286
	 B(9,8,11)        =         2.098101	     120.212327
	 B(10,2,16)       =         2.119728	     121.451467
	 B(10,5,11)       =         2.093699	     119.960108
	 B(10,5,19)       =         2.120101	     121.472852
	 B(11,5,19)       =         2.069385	     118.567038
	 B(12,6,20)       =         2.025554	     116.055699
	 B(12,7,21)       =         2.025132	     116.031526
	 D(1,2,10,5)      =        -0.000325	      -0.018609
	 D(1,2,10,13)     =         3.141392	     179.988520
	 D(1,8,9,3)       =        -1.309148	     -75.008646
	 D(1,8,9,4)       =         1.832883	     105.016455
	 D(1,8,11,5)      =         0.000325	       0.018608
	 D(1,8,11,14)     =        -3.141528	    -179.996269
	 D(2,1,8,9)       =        -3.141211	    -179.978157
	 D(2,1,8,11)      =        -0.000348	      -0.019945
	 D(2,10,5,11)     =         0.000301	       0.017261
	 D(2,10,5,19)     =        -3.141543	    -179.997173
	 D(3,6,12,7)      =         0.001082	       0.062022
	 D(3,6,12,22)     =         3.139999	     179.908687
	 D(3,9,4,7)       =        -0.000256	      -0.014666
	 D(3,9,4,18)      =        -3.141280	    -179.982090
	 D(3,9,8,11)      =         1.833176	     105.033248
	 D(4,7,12,6)      =        -0.001215	      -0.069600
	 D(4,7,12,22)     =        -3.140132	    -179.916296
	 D(4,9,3,6)       =         0.000129	       0.007400
	 D(4,9,3,17)      =        -3.141406	    -179.989329
	 D(4,9,8,11)      =        -1.307979	     -74.941651
	 D(5,10,2,16)     =         3.139529	     179.881752
	 D(5,11,8,9)      =         3.141185	     179.976658
	 D(6,3,9,8)       =        -3.141026	    -179.967550
	 D(6,12,7,21)     =        -3.140902	    -179.960413
	 D(7,4,9,8)       =         3.140899	     179.960271
	 D(7,12,6,20)     =         3.141263	     179.981102
	 D(8,1,2,10)      =         0.000348	       0.019955
	 D(8,1,2,16)      =        -3.139556	    -179.883288
	 D(8,9,3,17)      =         0.000623	       0.035720
	 D(8,9,4,18)      =        -0.000125	      -0.007153
	 D(8,11,5,10)     =        -0.000301	      -0.017270
	 D(8,11,5,19)     =         3.141536	     179.996748
	 D(9,3,6,12)      =        -0.000521	      -0.029837
	 D(9,3,6,20)      =        -3.140585	    -179.942245
	 D(9,4,7,12)      =         0.000780	       0.044666
	 D(9,4,7,21)      =         3.140310	     179.926484
	 D(9,8,1,15)      =         0.002066	       0.118384
	 D(9,8,11,14)     =        -0.000667	      -0.038219
	 D(10,2,1,15)     =         3.140283	     179.924984
	 D(10,5,11,14)    =         3.141547	     179.997392
	 D(11,5,10,13)    =        -3.141416	    -179.989865
	 D(11,8,1,15)     =        -3.140256	    -179.923403
	 D(12,6,3,17)     =         3.141016	     179.966953
	 D(12,7,4,18)     =        -3.141372	    -179.987338
	 D(13,10,2,16)    =        -0.001939	      -0.111119
	 D(13,10,5,19)    =        -0.000075	      -0.004300
	 D(14,11,5,19)    =         0.000199	       0.011410
	 D(15,1,2,16)     =         0.000379	       0.021741
	 D(17,3,6,20)     =         0.000952	       0.054545
	 D(18,4,7,21)     =        -0.001842	      -0.105519
	 D(20,6,12,22)    =        -0.003006	      -0.172233
	 D(21,7,12,22)    =         0.003367	       0.192890
	 R(4,14)          =         6.103340	       3.229748

	Current energy   :      -652.7850022631

	Generating empirical Hessian (Schlegel '84) for each fragment.
	Adding user-defined constraint: Fragment 1; Coordinate 62:
		Value =    -1.309148; Fixed value    =    -1.308997
		Force =     0.000075; Force constant =     0.500000
	Removing off-diagonal coupling between coordinate 62 and others.
	Taking RFO optimization step.
	Going to follow RFO solution 1.
	Using RFO vector 1.

	Determining step-restricting scale parameter for RS-RFO.
	Maximum step size allowed    0.10000

	 Iter      |step|        alpha        rfo_root  
	------------------------------------------------
	    0     0.36398       1.00000           1
	    1     0.24614       3.19383           1
	    2     0.17876       9.04239           1
	    3     0.13514      22.35516           1
	    4     0.11076      40.26540           1
	    5     0.10151      51.37547           1
	    6     0.10004      53.47462           1
	    7     0.10000      53.52859           1
	------------------------------------------------
	Norm of target step-size    0.10000
	Projected energy change by RFO approximation:        -0.0070564066

	Back-transformation to cartesian coordinates...
	Could not converge backtransformation.
	Using first guess instead.

	--- Internal Coordinate Step in ANG or DEG, aJ/ANG or AJ/DEG ---
	 ---------------------------------------------------------------------------
	   Coordinate                Previous        Force       Change         New 
	   ----------                --------       ------       ------       ------
	    1 R(1,2)          =      1.394038    -0.110808    -0.008197     1.385841
	    2 R(1,8)          =      1.394891     0.069937     0.004999     1.399890
	    3 R(1,15)         =      1.088409    -0.035166    -0.003011     1.085398
	    4 R(2,10)         =      1.394821     0.248357     0.019040     1.413862
	    5 R(2,16)         =      1.088553    -0.061634    -0.005313     1.083240
	    6 R(3,6)          =      1.387594    -0.103957    -0.007651     1.379942
	    7 R(3,9)          =      1.391518     0.069226     0.005179     1.396696
	    8 R(3,17)         =      1.085749    -0.049593    -0.004251     1.081498
	    9 R(4,7)          =      1.387162    -0.104580    -0.007682     1.379480
	   10 R(4,9)          =      1.391630     0.081440     0.006205     1.397835
	   11 R(4,18)         =      1.086221    -0.052585    -0.004509     1.081712
	   12 R(5,10)         =      1.395407     0.233748     0.017933     1.413340
	   13 R(5,11)         =      1.394521    -0.173334    -0.012968     1.381553
	   14 R(5,19)         =      1.088451    -0.062464    -0.005372     1.083078
	   15 R(6,12)         =      1.340276     0.047885     0.003207     1.343483
	   16 R(6,20)         =      1.080605    -0.017565    -0.001487     1.079118
	   17 R(7,12)         =      1.339854     0.051296     0.003439     1.343293
	   18 R(7,21)         =      1.082008    -0.025381    -0.002155     1.079853
	   19 R(8,9)          =      1.446909     0.013264     0.001214     1.448124
	   20 R(8,11)         =      1.394821     0.025926     0.001841     1.396662
	   21 R(10,13)        =      1.281784    -0.148117    -0.008493     1.273291
	   22 R(11,14)        =      1.341125     0.113873     0.007688     1.348814
	   23 R(12,22)        =      1.020069    -0.075974    -0.005823     1.014246
	   24 B(1,2,10)       =    120.009056     0.000489     0.640472   120.649528
	   25 B(1,2,16)       =    118.539404     0.000184     0.256203   118.795606
	   26 B(1,8,9)        =    119.827938     0.000224     0.283170   120.111108
	   27 B(1,8,11)       =    119.959722    -0.000610    -0.824353   119.135368
	   28 B(2,1,8)        =    120.031219     0.000408     0.462550   120.493769
	   29 B(2,1,15)       =    119.169966     0.000055     0.119862   119.289828
	   30 B(2,10,5)       =    119.994870    -0.001555    -1.712791   118.282080
	   31 B(2,10,13)      =    120.018581     0.000844     0.934906   120.953487
	   32 B(3,6,12)       =    120.036034    -0.000258    -0.324292   119.711742
	   33 B(3,6,20)       =    123.908214     0.000067     0.078203   123.986416
	   34 B(3,9,4)        =    119.883711    -0.000803    -0.950763   118.932949
	   35 B(3,9,8)        =    120.031651     0.000260     0.296041   120.327692
	   36 B(4,7,12)       =    120.083554    -0.000282    -0.349868   119.733686
	   37 B(4,7,21)       =    123.884823     0.000079     0.091334   123.976157
	   38 B(4,9,8)        =    120.084633     0.000543     0.654440   120.739073
	   39 B(5,10,13)      =    119.986548     0.000711     0.777883   120.764431
	   40 B(5,11,8)       =    120.045019     0.000902     0.976068   121.021087
	   41 B(5,11,14)      =    119.256220     0.000071     0.089390   119.345611
	   42 B(6,3,9)        =    118.818447     0.000570     0.688531   119.506978
	   43 B(6,3,17)       =    119.698102    -0.000145    -0.155119   119.542984
	   44 B(6,12,7)       =    122.378602     0.000209     0.251706   122.630308
	   45 B(6,12,22)      =    118.821465    -0.000106    -0.128661   118.692803
	   46 B(7,4,9)        =    118.799619     0.000564     0.684636   119.484255
	   47 B(7,4,18)       =    119.741087    -0.000150    -0.165821   119.575266
	   48 B(7,12,22)      =    118.799760    -0.000102    -0.123099   118.676661
	   49 B(8,1,15)       =    120.798746    -0.000463    -0.582361   120.216385
	   50 B(8,11,14)      =    120.698759    -0.000973    -1.065781   119.632978
	   51 B(9,3,17)       =    121.483451    -0.000425    -0.533422   120.950029
	   52 B(9,4,18)       =    121.459286    -0.000414    -0.518807   120.940479
	   53 B(9,8,11)       =    120.212327     0.000386     0.540625   120.752952
	   54 B(10,2,16)      =    121.451467    -0.000673    -0.896671   120.554796
	   55 B(10,5,11)      =    119.960108     0.000366     0.457629   120.417737
	   56 B(10,5,19)      =    121.472852    -0.000479    -0.625068   120.847785
	   57 B(11,5,19)      =    118.567038     0.000113     0.167431   118.734468
	   58 B(12,6,20)      =    116.055699     0.000191     0.246134   116.301832
	   59 B(12,7,21)      =    116.031526     0.000203     0.258426   116.289952
	   60 D(1,2,10,5)     =     -0.018609     0.000010     0.091283     0.072674
	   61 D(1,2,10,13)    =    179.988520     0.000012     0.098298   180.086818
	   62 D(1,8,9,3)      =    -75.008646     0.000087     0.469270   -74.539376
	   63 D(1,8,9,4)      =    105.016455     0.000099     0.641116   105.657571
	   64 D(1,8,11,5)     =      0.018608     0.000016     0.167960     0.186568
	   65 D(1,8,11,14)    =   -179.996269    -0.000007    -0.025772  -180.022041
	   66 D(2,1,8,9)      =   -179.978157     0.000025     0.244300  -179.733857
	   67 D(2,1,8,11)     =     -0.019945     0.000006     0.013224    -0.006720
	   68 D(2,10,5,11)    =      0.017261     0.000011     0.087774     0.105036
	   69 D(2,10,5,19)    =   -179.997173     0.000010     0.066315  -179.930858
	   70 D(3,6,12,7)     =      0.062022    -0.000002    -0.010457     0.051565
	   71 D(3,6,12,22)    =    179.908687    -0.000004    -0.033059   179.875627
	   72 D(3,9,4,7)      =     -0.014666     0.000004     0.063222     0.048557
	   73 D(3,9,4,18)     =   -179.982090     0.000001     0.037397  -179.944693
	   74 D(3,9,8,11)     =    105.033248     0.000106     0.704714   105.737962
	   75 D(4,7,12,6)     =     -0.069600    -0.000002    -0.018105    -0.087704
	   76 D(4,7,12,22)    =   -179.916296     0.000000     0.004502  -179.911794
	   77 D(4,9,3,6)      =      0.007400    -0.000007    -0.091266    -0.083866
	   78 D(4,9,3,17)     =   -179.989329    -0.000013    -0.130549  -180.119879
	   79 D(4,9,8,11)     =    -74.941651     0.000118     0.876560   -74.065091
	   80 D(5,10,2,16)    =    179.881752     0.000011     0.094017   179.975769
	   81 D(5,11,8,9)     =    179.976658    -0.000003    -0.064755   179.911903
	   82 D(6,3,9,8)      =   -179.967550     0.000004     0.077101  -179.890448
	   83 D(6,12,7,21)    =   -179.960413     0.000006     0.031058  -179.929355
	   84 D(7,4,9,8)      =    179.960271    -0.000008    -0.105953   179.854318
	   85 D(7,12,6,20)    =    179.981102     0.000012     0.104678   180.085780
	   86 D(8,1,2,10)     =      0.019955    -0.000019    -0.141543    -0.121588
	   87 D(8,1,2,16)     =   -179.883288    -0.000019    -0.143076  -180.026364
	   88 D(8,9,3,17)     =      0.035720    -0.000001     0.037819     0.073539
	   89 D(8,9,4,18)     =     -0.007153    -0.000011    -0.131778    -0.138931
	   90 D(8,11,5,10)    =     -0.017270    -0.000024    -0.219228    -0.236498
	   91 D(8,11,5,19)    =    179.996748    -0.000023    -0.198102   179.798646
	   92 D(9,3,6,12)     =     -0.029837     0.000007     0.065698     0.035861
	   93 D(9,3,6,20)     =   -179.942245    -0.000008    -0.058886  -180.001131
	   94 D(9,4,7,12)     =      0.044666     0.000001    -0.009233     0.035433
	   95 D(9,4,7,21)     =    179.926484    -0.000007    -0.062250   179.864234
	   96 D(9,8,1,15)     =      0.118384     0.000006     0.098965     0.217349
	   97 D(9,8,11,14)    =     -0.038219    -0.000025    -0.258487    -0.296706
	   98 D(10,2,1,15)    =    179.924984    -0.000001     0.001773   179.926756
	   99 D(10,5,11,14)   =    179.997392    -0.000003    -0.025872   179.971521
	  100 D(11,5,10,13)   =   -179.989865     0.000010     0.080784  -179.909081
	  101 D(11,8,1,15)    =   -179.923403    -0.000013    -0.132111  -180.055514
	  102 D(12,6,3,17)    =    179.966953     0.000012     0.104409   180.071362
	  103 D(12,7,4,18)    =   -179.987338     0.000004     0.016113  -179.971225
	  104 D(13,10,2,16)   =     -0.111119     0.000013     0.101033    -0.010086
	  105 D(13,10,5,19)   =     -0.004300     0.000008     0.059325     0.055025
	  106 D(14,11,5,19)   =      0.011410    -0.000001    -0.004746     0.006664
	  107 D(15,1,2,16)    =      0.021741    -0.000001     0.000239     0.021980
	  108 D(17,3,6,20)    =      0.054545    -0.000003    -0.020175     0.034370
	  109 D(18,4,7,21)    =     -0.105519    -0.000004    -0.036904    -0.142424
	  110 D(20,6,12,22)   =     -0.172233     0.000010     0.082075    -0.090158
	  111 D(21,7,12,22)   =      0.192890     0.000007     0.053666     0.246555
	  112 R(4,14)         =      3.229748    -0.021342    -0.003618     3.226130
	 ---------------------------------------------------------------------------
	Successfully symmetrized geometry.
	 Forces used to impose fixed constraints are not included.
	  Forces zeroed: 62 

  ==> Convergence Check <==

  Measures of convergence in internal coordinates in au.
  Criteria marked as inactive (o), active & met (*), and active & unmet ( ).
  --------------------------------------------------------------------------------------------- ~
   Step     Total Energy     Delta E     MAX Force     RMS Force      MAX Disp      RMS Disp    ~
  --------------------------------------------------------------------------------------------- ~
    Convergence Criteria    1.00e-06 *    3.00e-04 *             o    1.20e-03 *             o  ~
  --------------------------------------------------------------------------------------------- ~
      1    -652.78500226   -6.53e+02      3.01e-02      7.09e-03 o    3.60e-02      9.44e-03 o  ~
  ---------------------------------------------------------------------------------------------

	Writing optimization data to binary file.
	Structure for next step:
	Cartesian Geometry (in Angstrom)
	    C    -1.3737282647   0.7734005529  -0.7668185876
	    C    -2.4463810549   1.3455886101  -0.1015568843
	    C     0.6470720762  -1.6354092093  -1.4074162130
	    C     2.0334912196   0.2317916391  -0.7868150229
	    C    -1.4429098067   0.7362664115   2.0225706044
	    C     1.7258379260  -2.1836579820  -2.0706870561
	    C     3.0833125640  -0.3553953668  -1.4621319050
	    C    -0.3275991090   0.1805733841  -0.0499778459
	    C     0.7920509650  -0.4098129661  -0.7534622713
	    C    -2.5050545562   1.3388839731   1.3110708420
	    C    -0.3783130563   0.1730367315   1.3457432047
	    N     2.9019934106  -1.5344113151  -2.0797741999
	    O    -3.4886028038   1.8614551094   1.9281784633
	    F     0.6240257021  -0.3958415678   2.0464518993
	    H    -1.3518200808   0.7899192623  -1.8518700983
	    H    -3.2406064835   1.7971261248  -0.6835612602
	    H    -0.2981313576  -2.1609436934  -1.4008724493
	    H     2.1822256821   1.1814716615  -0.2907446215
	    H    -1.4458924684   0.7068008558   3.1052441024
	    H     1.6948274569  -3.1243167364  -2.5986021527
	    H     4.0702972715   0.0764440393  -1.5360124815
	    H     3.6851398587  -1.9523530088  -2.5703877641
			--------------------------
			 OPTKING Finished Execution 
			--------------------------

    Structure for next step:
    Molecular point group: c1
    Full point group: C1

    Geometry (in Angstrom), charge = 0, multiplicity = 1:

    C           -1.372264408426     0.771267337327    -0.767216933457
    C           -2.444917198671     1.343455394450    -0.101955230132
    C            0.648535932448    -1.637542424908    -1.407814558830
    C            2.034955075877     0.229658423450    -0.787213368755
    C           -1.441445950469     0.734133195931     2.022172258542
    C            1.727301782244    -2.185791197644    -2.071085401879
    C            3.084776420284    -0.357528582398    -1.462530250787
    C           -0.326135252715     0.178440168506    -0.050376191674
    C            0.793514821243    -0.411946181724    -0.753860617136
    C           -2.503590699929     1.336750757522     1.310672496138
    C           -0.376849199998     0.170903515846     1.345344858840
    N            2.903457266900    -1.536544530706    -2.080172545680
    O           -3.487138947489     1.859321893794     1.927780117502
    F            0.625489558356    -0.397974783449     2.046053553461
    H           -1.350356224516     0.787786046695    -1.852268444109
    H           -3.239142627180     1.794992909200    -0.683959606007
    H           -0.296667501375    -2.163076909001    -1.401270795153
    H            2.183689538417     1.179338445888    -0.291142967355
    H           -1.444428612116     0.704667640189     3.104845756601
    H            1.696291313159    -3.126449952036    -2.599000498487
    H            4.071761127734     0.074310823672    -1.536410827305
    H            3.686603715019    -1.954486224420    -2.570786109879

gradient() will perform analytic gradient computation.

*** tstart() called on gpu-2-6.local
*** at Sun Nov 12 02:19:43 2017

    SCF Algorithm Type (re)set to DF.

*** tstart() called on gpu-2-6.local
*** at Sun Nov 12 02:19:43 2017

   => Loading Basis Set <=

    Name: AUG-CC-PVTZ
    Role: ORBITAL
    Keyword: BASIS
    atoms 1-11  entry C          line   221 file /cbio/jclab/home/chayas/anaconda/envs/py35/share/psi4/basis/aug-cc-pvtz.gbs 
    atoms 12    entry N          line   267 file /cbio/jclab/home/chayas/anaconda/envs/py35/share/psi4/basis/aug-cc-pvtz.gbs 
    atoms 13    entry O          line   313 file /cbio/jclab/home/chayas/anaconda/envs/py35/share/psi4/basis/aug-cc-pvtz.gbs 
    atoms 14    entry F          line   359 file /cbio/jclab/home/chayas/anaconda/envs/py35/share/psi4/basis/aug-cc-pvtz.gbs 
    atoms 15-22 entry H          line    34 file /cbio/jclab/home/chayas/anaconda/envs/py35/share/psi4/basis/aug-cc-pvtz.gbs 


         ---------------------------------------------------------
                                   SCF
            by Justin Turney, Rob Parrish, and Andy Simmonett
                              RHF Reference
                        8 Threads,   4768 MiB Core
         ---------------------------------------------------------

  ==> Geometry <==

    Molecular point group: c1
    Full point group: C1

    Geometry (in Angstrom), charge = 0, multiplicity = 1:

       Center              X                  Y                   Z               Mass       
    ------------   -----------------  -----------------  -----------------  -----------------
           C         -1.372264408426     0.771267337327    -0.767216933457    12.000000000000
           C         -2.444917198671     1.343455394450    -0.101955230132    12.000000000000
           C          0.648535932448    -1.637542424908    -1.407814558830    12.000000000000
           C          2.034955075877     0.229658423450    -0.787213368755    12.000000000000
           C         -1.441445950469     0.734133195931     2.022172258542    12.000000000000
           C          1.727301782244    -2.185791197644    -2.071085401879    12.000000000000
           C          3.084776420284    -0.357528582398    -1.462530250787    12.000000000000
           C         -0.326135252715     0.178440168506    -0.050376191674    12.000000000000
           C          0.793514821243    -0.411946181724    -0.753860617136    12.000000000000
           C         -2.503590699929     1.336750757522     1.310672496138    12.000000000000
           C         -0.376849199998     0.170903515846     1.345344858840    12.000000000000
           N          2.903457266900    -1.536544530706    -2.080172545680    14.003074004780
           O         -3.487138947489     1.859321893794     1.927780117502    15.994914619560
           F          0.625489558356    -0.397974783449     2.046053553461    18.998403224000
           H         -1.350356224516     0.787786046695    -1.852268444109     1.007825032070
           H         -3.239142627180     1.794992909200    -0.683959606007     1.007825032070
           H         -0.296667501375    -2.163076909001    -1.401270795153     1.007825032070
           H          2.183689538417     1.179338445888    -0.291142967355     1.007825032070
           H         -1.444428612116     0.704667640189     3.104845756601     1.007825032070
           H          1.696291313159    -3.126449952036    -2.599000498487     1.007825032070
           H          4.071761127734     0.074310823672    -1.536410827305     1.007825032070
           H          3.686603715019    -1.954486224420    -2.570786109879     1.007825032070

  Running in c1 symmetry.

  Rotational constants: A =      0.06298  B =      0.01295  C =      0.01188 [cm^-1]
  Rotational constants: A =   1888.19289  B =    388.22859  C =    356.21063 [MHz]
  Nuclear repulsion =  814.946796774088398

  Charge       = 0
  Multiplicity = 1
  Electrons    = 98
  Nalpha       = 49
  Nbeta        = 49

  ==> Algorithm <==

  SCF Algorithm Type is DF.
  DIIS enabled.
  MOM disabled.
  Fractional occupation disabled.
  Guess Type is READ.
  Energy threshold   = 1.00e-10
  Density threshold  = 1.00e-10
  Integral threshold = 0.00e+00

  ==> Primary Basis <==

  Basis Set: AUG-CC-PVTZ
    Blend: AUG-CC-PVTZ
    Number of shells: 268
    Number of basis function: 828
    Number of Cartesian functions: 970
    Spherical Harmonics?: true
    Max angular momentum: 3

   => Loading Basis Set <=

    Name: (AUG-CC-PVTZ AUX)
    Role: JKFIT
    Keyword: DF_BASIS_SCF
    atoms 1-11  entry C          line   161 file /cbio/jclab/home/chayas/anaconda/envs/py35/share/psi4/basis/aug-cc-pvtz-jkfit.gbs 
    atoms 12    entry N          line   223 file /cbio/jclab/home/chayas/anaconda/envs/py35/share/psi4/basis/aug-cc-pvtz-jkfit.gbs 
    atoms 13    entry O          line   285 file /cbio/jclab/home/chayas/anaconda/envs/py35/share/psi4/basis/aug-cc-pvtz-jkfit.gbs 
    atoms 14    entry F          line   347 file /cbio/jclab/home/chayas/anaconda/envs/py35/share/psi4/basis/aug-cc-pvtz-jkfit.gbs 
    atoms 15-22 entry H          line    69 file /cbio/jclab/home/chayas/anaconda/envs/py35/share/psi4/basis/aug-cc-pvtz-jkfit.gbs 

  Reading orbitals from file 180, no projection.

  ==> Pre-Iterations <==

   -------------------------------------------------------
    Irrep   Nso     Nmo     Nalpha   Nbeta   Ndocc  Nsocc
   -------------------------------------------------------
     A        828     828       0       0       0       0
   -------------------------------------------------------
    Total     828     828      49      49      49       0
   -------------------------------------------------------

  ==> Integral Setup <==

  ==> DFJK: Density-Fitted J/K Matrices <==

    J tasked:                  Yes
    K tasked:                  Yes
    wK tasked:                  No
    OpenMP threads:              8
    Integrals threads:           8
    Memory (MB):              3576
    Algorithm:                Disk
    Integral Cache:           NONE
    Schwarz Cutoff:          1E-12
    Fitting Condition:       1E-12

   => Auxiliary Basis Set <=

  Basis Set: (AUG-CC-PVTZ AUX)
    Blend: AUG-CC-PVTZ-JKFIT
    Number of shells: 532
    Number of basis function: 1824
    Number of Cartesian functions: 2274
    Spherical Harmonics?: true
    Max angular momentum: 4

  Minimum eigenvalue in the overlap matrix is 8.0529692508E-07.
  Using Symmetric Orthogonalization.

  SCF Guess: Orbitals guess was supplied from a previous computation.

  ==> Iterations <==

                           Total Energy        Delta E     RMS |[F,P]|

   @DF-RHF iter   0:  -650.14550120169815   -6.50146e+02   5.34349e-04 
   @DF-RHF iter   1:  -650.09193672262109    5.35645e-02   9.86297e-05 
   @DF-RHF iter   2:  -650.09224942762978   -3.12705e-04   6.81533e-05 DIIS
   @DF-RHF iter   3:  -650.09241249113654   -1.63064e-04   8.95160e-06 DIIS
   @DF-RHF iter   4:  -650.09242319611201   -1.07050e-05   4.28359e-06 DIIS
   @DF-RHF iter   5:  -650.09242799590879   -4.79980e-06   2.95055e-06 DIIS
   @DF-RHF iter   6:  -650.09242995477871   -1.95887e-06   1.36174e-06 DIIS
   @DF-RHF iter   7:  -650.09243061694451   -6.62166e-07   5.73949e-07 DIIS
   @DF-RHF iter   8:  -650.09243072791162   -1.10967e-07   2.15671e-07 DIIS
   @DF-RHF iter   9:  -650.09243073933033   -1.14187e-08   9.29801e-08 DIIS
   @DF-RHF iter  10:  -650.09243074182768   -2.49736e-09   4.06079e-08 DIIS
   @DF-RHF iter  11:  -650.09243074234030   -5.12614e-10   1.82766e-08 DIIS
   @DF-RHF iter  12:  -650.09243074245853   -1.18234e-10   7.24247e-09 DIIS
   @DF-RHF iter  13:  -650.09243074248343   -2.48974e-11   3.08720e-09 DIIS
   @DF-RHF iter  14:  -650.09243074249025   -6.82121e-12   8.86672e-10 DIIS
   @DF-RHF iter  15:  -650.09243074247570    1.45519e-11   2.68553e-10 DIIS
   @DF-RHF iter  16:  -650.09243074246808    7.61702e-12   1.32730e-10 DIIS
   @DF-RHF iter  17:  -650.09243074246228    5.79803e-12   6.64956e-11 DIIS

  ==> Post-Iterations <==

    Orbital Energies (a.u.)
    -----------------------

    Doubly Occupied:                                                      

       1A    -26.295446     2A    -20.408251     3A    -15.735791  
       4A    -11.382271     5A    -11.381336     6A    -11.333943  
       7A    -11.307361     8A    -11.306946     9A    -11.303047  
      10A    -11.232737    11A    -11.222237    12A    -11.204335  
      13A    -11.170855    14A    -11.169215    15A     -1.612437  
      16A     -1.411816    17A     -1.239410    18A     -1.194122  
      19A     -1.137147    20A     -1.106863    21A     -1.000197  
      22A     -0.982672    23A     -0.960257    24A     -0.913299  
      25A     -0.863703    26A     -0.813060    27A     -0.796466  
      28A     -0.763290    29A     -0.743919    30A     -0.707483  
      31A     -0.697971    32A     -0.687364    33A     -0.678540  
      34A     -0.677855    35A     -0.662469    36A     -0.619926  
      37A     -0.603552    38A     -0.582637    39A     -0.569445  
      40A     -0.530890    41A     -0.497208    42A     -0.484480  
      43A     -0.469177    44A     -0.457190    45A     -0.438125  
      46A     -0.398064    47A     -0.323265    48A     -0.310980  
      49A     -0.225088  

    Virtual:                                                              

      50A     -0.017831    51A      0.002458    52A      0.004904  
      53A      0.018278    54A      0.027961    55A      0.038145  
      56A      0.038580    57A      0.040502    58A      0.049973  
      59A      0.056587    60A      0.061083    61A      0.065517  
      62A      0.070244    63A      0.074248    64A      0.077019  
      65A      0.087181    66A      0.094411    67A      0.097646  
      68A      0.101390    69A      0.106422    70A      0.112799  
      71A      0.121040    72A      0.123881    73A      0.125343  
      74A      0.126061    75A      0.129860    76A      0.130322  
      77A      0.133672    78A      0.145452    79A      0.148952  
      80A      0.153858    81A      0.158723    82A      0.159860  
      83A      0.162814    84A      0.169678    85A      0.176233  
      86A      0.179810    87A      0.183018    88A      0.186726  
      89A      0.189650    90A      0.192746    91A      0.193592  
      92A      0.199997    93A      0.203270    94A      0.203946  
      95A      0.209429    96A      0.210089    97A      0.221856  
      98A      0.224021    99A      0.231879   100A      0.237991  
     101A      0.243883   102A      0.245167   103A      0.247929  
     104A      0.248696   105A      0.252272   106A      0.260392  
     107A      0.262233   108A      0.264676   109A      0.266145  
     110A      0.276122   111A      0.278668   112A      0.280918  
     113A      0.289443   114A      0.293616   115A      0.299160  
     116A      0.300556   117A      0.303286   118A      0.307397  
     119A      0.313395   120A      0.316010   121A      0.319448  
     122A      0.330465   123A      0.331380   124A      0.337464  
     125A      0.340683   126A      0.345673   127A      0.350409  
     128A      0.353448   129A      0.357172   130A      0.358234  
     131A      0.361924   132A      0.369249   133A      0.372208  
     134A      0.375213   135A      0.379887   136A      0.382007  
     137A      0.387686   138A      0.388370   139A      0.392650  
     140A      0.396436   141A      0.407055   142A      0.412691  
     143A      0.416653   144A      0.417539   145A      0.424269  
     146A      0.426433   147A      0.432882   148A      0.436418  
     149A      0.439453   150A      0.440537   151A      0.449809  
     152A      0.454056   153A      0.457742   154A      0.461989  
     155A      0.463819   156A      0.471703   157A      0.472401  
     158A      0.477024   159A      0.478506   160A      0.481849  
     161A      0.486298   162A      0.487179   163A      0.492245  
     164A      0.496938   165A      0.500122   166A      0.502161  
     167A      0.507866   168A      0.512218   169A      0.516035  
     170A      0.524545   171A      0.525546   172A      0.530184  
     173A      0.535708   174A      0.542521   175A      0.544684  
     176A      0.549820   177A      0.551577   178A      0.558990  
     179A      0.562389   180A      0.565777   181A      0.577525  
     182A      0.581811   183A      0.587125   184A      0.593449  
     185A      0.597423   186A      0.599107   187A      0.602481  
     188A      0.609181   189A      0.612970   190A      0.615726  
     191A      0.625006   192A      0.632292   193A      0.636244  
     194A      0.642826   195A      0.651008   196A      0.658839  
     197A      0.665242   198A      0.669010   199A      0.670766  
     200A      0.672764   201A      0.680022   202A      0.685850  
     203A      0.689349   204A      0.696873   205A      0.701367  
     206A      0.710882   207A      0.718775   208A      0.721738  
     209A      0.728889   210A      0.733321   211A      0.737467  
     212A      0.739377   213A      0.740728   214A      0.743428  
     215A      0.748831   216A      0.751189   217A      0.761718  
     218A      0.768760   219A      0.772622   220A      0.785344  
     221A      0.787542   222A      0.789916   223A      0.798627  
     224A      0.811725   225A      0.816734   226A      0.828177  
     227A      0.833443   228A      0.836724   229A      0.840729  
     230A      0.852339   231A      0.856332   232A      0.857579  
     233A      0.861236   234A      0.867475   235A      0.877742  
     236A      0.885976   237A      0.891964   238A      0.896247  
     239A      0.897250   240A      0.899908   241A      0.901965  
     242A      0.908906   243A      0.912385   244A      0.916820  
     245A      0.920488   246A      0.924153   247A      0.926439  
     248A      0.935678   249A      0.938856   250A      0.945542  
     251A      0.951568   252A      0.953471   253A      0.959359  
     254A      0.962598   255A      0.966524   256A      0.971804  
     257A      0.984342   258A      0.988852   259A      0.989182  
[...]
     104A      0.252414   105A      0.255362   106A      0.261528  
     107A      0.261933   108A      0.266065   109A      0.274860  
     110A      0.277276   111A      0.284161   112A      0.287677  
     113A      0.292652   114A      0.294250   115A      0.299281  
     116A      0.302914   117A      0.308962   118A      0.313913  
     119A      0.315339   120A      0.319383   121A      0.324983  
     122A      0.329777   123A      0.333217   124A      0.336129  
     125A      0.341778   126A      0.345768   127A      0.349123  
     128A      0.353182   129A      0.354349   130A      0.360369  
     131A      0.363986   132A      0.368474   133A      0.372190  
     134A      0.374065   135A      0.380513   136A      0.383423  
     137A      0.389939   138A      0.393213   139A      0.399312  
     140A      0.404616   141A      0.412942   142A      0.416734  
     143A      0.422209   144A      0.426753   145A      0.433111  
     146A      0.436313   147A      0.436897   148A      0.443136  
     149A      0.445008   150A      0.447548   151A      0.450789  
     152A      0.457498   153A      0.463235   154A      0.464862  
     155A      0.470741   156A      0.472015   157A      0.474124  
     158A      0.477437   159A      0.479442   160A      0.485116  
     161A      0.490379   162A      0.490831   163A      0.492585  
     164A      0.495637   165A      0.502229   166A      0.503580  
     167A      0.506173   168A      0.518599   169A      0.520439  
     170A      0.522947   171A      0.527123   172A      0.532730  
     173A      0.537790   174A      0.540506   175A      0.545427  
     176A      0.549051   177A      0.553170   178A      0.554620  
     179A      0.565675   180A      0.568068   181A      0.574142  
     182A      0.578730   183A      0.585541   184A      0.587481  
     185A      0.594979   186A      0.600417   187A      0.606087  
     188A      0.612415   189A      0.614890   190A      0.620511  
     191A      0.624707   192A      0.630250   193A      0.637938  
     194A      0.648792   195A      0.654025   196A      0.658188  
     197A      0.666106   198A      0.669465   199A      0.675586  
     200A      0.677376   201A      0.686476   202A      0.689283  
     203A      0.696105   204A      0.702474   205A      0.705827  
     206A      0.710794   207A      0.713579   208A      0.721424  
     209A      0.722695   210A      0.730829   211A      0.738245  
     212A      0.742562   213A      0.748058   214A      0.751635  
     215A      0.757948   216A      0.767901   217A      0.772592  
     218A      0.773762   219A      0.775751   220A      0.781165  
     221A      0.793909   222A      0.800067   223A      0.808197  
     224A      0.819974   225A      0.825986   226A      0.831644  
     227A      0.837927   228A      0.843243   229A      0.847869  
     230A      0.850902   231A      0.855407   232A      0.860014  
     233A      0.867148   234A      0.872005   235A      0.880302  
     236A      0.883381   237A      0.885520   238A      0.889032  
     239A      0.892287   240A      0.898955   241A      0.907190  
     242A      0.910303   243A      0.913751   244A      0.915890  
     245A      0.921258   246A      0.924442   247A      0.929945  
     248A      0.937829   249A      0.942549   250A      0.948094  
     251A      0.954936   252A      0.957426   253A      0.962738  
     254A      0.970128   255A      0.972878   256A      0.979320  
     257A      0.985062   258A      0.987855   259A      0.993270  
     260A      0.994973   261A      1.001578   262A      1.011671  
     263A      1.016242   264A      1.017105   265A      1.023288  
     266A      1.024302   267A      1.029056   268A      1.032121  
     269A      1.037172   270A      1.043569   271A      1.045691  
     272A      1.049052   273A      1.053619   274A      1.059417  
     275A      1.065321   276A      1.071044   277A      1.075981  
     278A      1.082220   279A      1.085033   280A      1.090914  
     281A      1.092308   282A      1.099728   283A      1.104462  
     284A      1.107481   285A      1.109261   286A      1.111998  
     287A      1.117113   288A      1.121781   289A      1.130785  
     290A      1.138414   291A      1.140943   292A      1.143003  
     293A      1.149344   294A      1.154223   295A      1.161829  
     296A      1.164402   297A      1.172309   298A      1.174596  
     299A      1.177317   300A      1.185321   301A      1.194552  
     302A      1.196310   303A      1.198140   304A      1.204119  
     305A      1.216542   306A      1.219525   307A      1.222856  
     308A      1.229754   309A      1.237995   310A      1.238629  
     311A      1.242623   312A      1.254097   313A      1.260263  
     314A      1.267926   315A      1.268858   316A      1.272949  
     317A      1.276554   318A      1.281654   319A      1.288067  
     320A      1.293500   321A      1.300037   322A      1.308165  
     323A      1.317781   324A      1.325446   325A      1.328750  
     326A      1.331411   327A      1.344428   328A      1.354085  
     329A      1.357085   330A      1.369911   331A      1.371182  
     332A      1.379996   333A      1.384942   334A      1.390527  
     335A      1.392813   336A      1.398318   337A      1.406638  
     338A      1.414403   339A      1.419354   340A      1.421495  
     341A      1.435634   342A      1.441131   343A      1.442724  
     344A      1.452235   345A      1.462952   346A      1.464621  
     347A      1.473396   348A      1.477595   349A      1.490151  
     350A      1.492503   351A      1.498195   352A      1.508679  
     353A      1.513055   354A      1.519903   355A      1.529352  
     356A      1.540635   357A      1.549633   358A      1.550486  
     359A      1.556672   360A      1.572159   361A      1.589333  
     362A      1.591442   363A      1.603632   364A      1.606311  
     365A      1.618143   366A      1.620441   367A      1.627725  
     368A      1.637412   369A      1.643358   370A      1.650443  
     371A      1.654846   372A      1.664676   373A      1.675657  
     374A      1.678622   375A      1.690498   376A      1.698140  
     377A      1.707278   378A      1.711822   379A      1.715550  
     380A      1.720104   381A      1.724176   382A      1.735637  
     383A      1.747470   384A      1.762417   385A      1.769847  
     386A      1.774459   387A      1.785520   388A      1.790437  
     389A      1.805938   390A      1.807491   391A      1.811921  
     392A      1.817259   393A      1.825687   394A      1.831651  
     395A      1.841115   396A      1.851343   397A      1.852482  
     398A      1.861276   399A      1.874430   400A      1.885405  
     401A      1.898905   402A      1.906026   403A      1.909458  
     404A      1.916958   405A      1.931176   406A      1.932352  
     407A      1.943000   408A      1.953835   409A      1.956363  
     410A      1.963120   411A      1.964943   412A      1.971753  
     413A      1.980944   414A      1.988995   415A      1.991006  
     416A      2.001019   417A      2.013446   418A      2.018650  
     419A      2.021465   420A      2.031784   421A      2.035902  
     422A      2.046412   423A      2.051632   424A      2.059071  
     425A      2.064810   426A      2.068240   427A      2.079400  
     428A      2.092195   429A      2.103311   430A      2.107060  
     431A      2.126398   432A      2.136363   433A      2.140502  
     434A      2.144523   435A      2.150028   436A      2.166137  
     437A      2.170485   438A      2.181386   439A      2.187563  
     440A      2.196172   441A      2.203117   442A      2.218179  
     443A      2.221793   444A      2.231931   445A      2.238188  
     446A      2.250329   447A      2.260486   448A      2.277582  
     449A      2.287572   450A      2.293976   451A      2.307694  
     452A      2.309106   453A      2.321481   454A      2.331352  
     455A      2.344721   456A      2.351153   457A      2.357538  
     458A      2.368518   459A      2.374135   460A      2.383909  
     461A      2.401355   462A      2.418874   463A      2.422015  
     464A      2.434370   465A      2.436533   466A      2.450744  
     467A      2.456434   468A      2.470225   469A      2.472761  
     470A      2.487344   471A      2.488751   472A      2.499522  
     473A      2.520690   474A      2.537206   475A      2.541503  
     476A      2.553754   477A      2.567888   478A      2.577514  
     479A      2.600153   480A      2.604427   481A      2.616984  
     482A      2.628249   483A      2.634330   484A      2.647382  
     485A      2.664454   486A      2.682641   487A      2.692673  
     488A      2.711814   489A      2.715084   490A      2.720517  
     491A      2.730651   492A      2.742018   493A      2.758520  
     494A      2.766647   495A      2.774279   496A      2.785242  
     497A      2.809168   498A      2.840356   499A      2.852667  
     500A      2.863618   501A      2.881980   502A      2.894044  
     503A      2.921565   504A      2.940409   505A      2.985187  
     506A      3.001879   507A      3.004889   508A      3.032421  
     509A      3.035427   510A      3.044911   511A      3.056223  
     512A      3.072898   513A      3.099087   514A      3.112682  
     515A      3.114871   516A      3.141135   517A      3.152485  
     518A      3.171614   519A      3.176043   520A      3.191976  
     521A      3.202632   522A      3.213712   523A      3.232424  
     524A      3.241915   525A      3.259779   526A      3.271005  
     527A      3.295312   528A      3.299522   529A      3.300952  
     530A      3.315631   531A      3.331789   532A      3.348371  
     533A      3.354418   534A      3.365587   535A      3.380678  
     536A      3.389776   537A      3.397773   538A      3.415303  
     539A      3.423442   540A      3.434180   541A      3.435366  
     542A      3.449759   543A      3.459164   544A      3.463292  
     545A      3.476878   546A      3.485278   547A      3.488275  
     548A      3.495498   549A      3.509210   550A      3.511561  
     551A      3.521569   552A      3.526897   553A      3.535478  
     554A      3.547515   555A      3.563067   556A      3.569156  
     557A      3.572171   558A      3.577276   559A      3.588666  
     560A      3.592050   561A      3.603043   562A      3.608318  
     563A      3.620563   564A      3.627108   565A      3.642545  
     566A      3.645497   567A      3.652451   568A      3.660166  
     569A      3.674449   570A      3.686125   571A      3.689281  
     572A      3.696725   573A      3.708921   574A      3.720102  
     575A      3.731786   576A      3.739527   577A      3.748626  
     578A      3.760002   579A      3.767625   580A      3.770675  
     581A      3.790298   582A      3.799471   583A      3.808303  
     584A      3.811676   585A      3.823071   586A      3.829152  
     587A      3.832772   588A      3.844851   589A      3.859324  
     590A      3.879205   591A      3.882877   592A      3.887242  
     593A      3.894610   594A      3.900036   595A      3.908656  
     596A      3.922597   597A      3.927350   598A      3.940142  
     599A      3.951032   600A      3.956901   601A      3.968901  
     602A      3.972114   603A      3.980469   604A      3.987963  
     605A      4.001175   606A      4.007886   607A      4.012410  
     608A      4.025400   609A      4.034738   610A      4.035403  
     611A      4.043960   612A      4.058099   613A      4.069898  
     614A      4.077787   615A      4.085739   616A      4.087184  
     617A      4.102656   618A      4.115373   619A      4.119956  
     620A      4.136656   621A      4.138642   622A      4.156411  
     623A      4.161994   624A      4.165043   625A      4.173802  
     626A      4.185258   627A      4.196312   628A      4.207568  
     629A      4.212951   630A      4.228490   631A      4.231772  
     632A      4.236126   633A      4.246324   634A      4.257340  
     635A      4.265051   636A      4.274751   637A      4.284587  
     638A      4.290965   639A      4.305318   640A      4.313066  
     641A      4.327633   642A      4.335089   643A      4.343232  
     644A      4.353002   645A      4.355706   646A      4.369688  
     647A      4.377122   648A      4.377868   649A      4.387522  
     650A      4.391735   651A      4.401254   652A      4.406658  
     653A      4.422798   654A      4.436106   655A      4.445108  
     656A      4.449695   657A      4.459873   658A      4.478602  
     659A      4.485849   660A      4.490632   661A      4.501246  
     662A      4.512989   663A      4.517339   664A      4.532202  
     665A      4.545540   666A      4.555725   667A      4.559376  
     668A      4.574754   669A      4.587751   670A      4.610869  
     671A      4.617699   672A      4.640890   673A      4.644151  
     674A      4.661695   675A      4.673557   676A      4.701964  
     677A      4.721709   678A      4.730675   679A      4.740301  
     680A      4.760183   681A      4.766792   682A      4.771513  
     683A      4.786601   684A      4.804460   685A      4.812218  
     686A      4.825630   687A      4.836815   688A      4.852626  
     689A      4.859038   690A      4.871095   691A      4.885961  
     692A      4.908912   693A      4.918708   694A      4.936827  
     695A      4.945957   696A      4.957507   697A      4.971070  
     698A      4.983812   699A      4.996946   700A      5.032066  
     701A      5.034125   702A      5.044965   703A      5.061459  
     704A      5.074199   705A      5.088450   706A      5.095768  
     707A      5.097981   708A      5.105306   709A      5.120559  
     710A      5.127257   711A      5.141662   712A      5.148473  
     713A      5.161396   714A      5.185402   715A      5.188730  
     716A      5.202070   717A      5.209776   718A      5.221802  
     719A      5.230922   720A      5.243910   721A      5.250567  
     722A      5.260297   723A      5.274954   724A      5.308110  
     725A      5.319852   726A      5.355417   727A      5.379085  
     728A      5.404536   729A      5.413829   730A      5.423557  
     731A      5.430620   732A      5.447508   733A      5.464883  
     734A      5.478336   735A      5.485496   736A      5.520455  
     737A      5.528374   738A      5.554761   739A      5.578209  
     740A      5.590310   741A      5.631378   742A      5.639208  
     743A      5.649824   744A      5.684860   745A      5.723965  
     746A      5.734969   747A      5.750469   748A      5.766920  
     749A      5.783096   750A      5.813093   751A      5.825691  
     752A      5.848744   753A      5.855166   754A      5.904939  
     755A      5.921440   756A      5.961224   757A      5.975458  
     758A      6.025788   759A      6.054444   760A      6.062279  
     761A      6.083803   762A      6.114038   763A      6.153264  
     764A      6.167046   765A      6.205847   766A      6.258077  
     767A      6.273474   768A      6.305492   769A      6.335682  
     770A      6.397427   771A      6.470317   772A      6.483254  
     773A      6.566911   774A      6.589181   775A      6.623319  
     776A      6.645192   777A      6.658061   778A      6.663527  
     779A      6.744867   780A      6.749884   781A      6.778171  
     782A      6.816218   783A      6.832737   784A      6.913391  
     785A      6.962682   786A      6.973055   787A      7.021547  
     788A      7.068255   789A      7.080062   790A      7.115135  
     791A      7.172966   792A      7.250988   793A      7.390044  
     794A      7.462596   795A      7.506500   796A      7.538563  
     797A      7.675835   798A      7.795912   799A      7.812238  
     800A      7.893495   801A      7.980872   802A      8.067996  
     803A      9.064554   804A      9.106671   805A      9.298603  
     806A      9.315814   807A      9.449249   808A      9.539509  
     809A      9.605050   810A      9.625943   811A      9.677937  
     812A      9.718128   813A     10.047412   814A     10.097786  
     815A     15.925937   816A     16.370435   817A     16.501159  
     818A     16.776308   819A     16.895428   820A     17.081035  
     821A     18.835202   822A     18.887336   823A     19.617763  
     824A     19.783106   825A     19.889964   826A     20.407826  
     827A     20.604148   828A     21.633830  

    Final Occupation by Irrep:
              A 
    DOCC [    49 ]

  Energy converged.

  @DF-RHF Final Energy:  -650.10979976667181

   => Energetics <=

    Nuclear Repulsion Energy =            817.4880118246583152
    One-Electron Energy =               -2509.8647735075137462
    Two-Electron Energy =                1042.2669619161836181
    DFT Exchange-Correlation Energy =       0.0000000000000000
    Empirical Dispersion Energy =           0.0000000000000000
    PCM Polarization Energy =               0.0000000000000000
    EFP Energy =                            0.0000000000000000
    Total Energy =                       -650.1097997666718129



Properties will be evaluated at   0.000000,   0.000000,   0.000000 Bohr

Properties computed using the SCF density matrix

  Nuclear Dipole Moment: (a.u.)
     X:     4.0715      Y:    -2.6671      Z:    -8.6861

  Electronic Dipole Moment: (a.u.)
     X:     0.8420      Y:    -0.0667      Z:     4.9974

  Dipole Moment: (a.u.)
     X:     4.9134      Y:    -2.7338      Z:    -3.6886     Total:     6.7247

  Dipole Moment: (Debye)
     X:    12.4887      Y:    -6.9485      Z:    -9.3756     Total:    17.0924


*** tstop() called on gpu-2-6.local at Mon Nov 13 01:25:41 2017
Module time:
	user time   =     953.91 seconds =      15.90 minutes
	system time =      40.77 seconds =       0.68 minutes
	total time  =        420 seconds =       7.00 minutes
Total time:
	user time   =  187463.52 seconds =    3124.39 minutes
	system time =    3452.51 seconds =      57.54 minutes
	total time  =      86039 seconds =    1433.98 minutes

  //>>>>>>>>>>>>>>>>>>>>>>>>>>>>>>>>>>>//
  //               DFMP2               //
  //<<<<<<<<<<<<<<<<<<<<<<<<<<<<<<<<<<<//

   => Loading Basis Set <=

    Name: (AUG-CC-PVTZ AUX)
    Role: RIFIT
    Keyword: DF_BASIS_MP2
    atoms 1-11  entry C          line   147 file /cbio/jclab/home/chayas/anaconda/envs/py35/share/psi4/basis/aug-cc-pvtz-ri.gbs 
    atoms 12    entry N          line   205 file /cbio/jclab/home/chayas/anaconda/envs/py35/share/psi4/basis/aug-cc-pvtz-ri.gbs 
    atoms 13    entry O          line   263 file /cbio/jclab/home/chayas/anaconda/envs/py35/share/psi4/basis/aug-cc-pvtz-ri.gbs 
    atoms 14    entry F          line   321 file /cbio/jclab/home/chayas/anaconda/envs/py35/share/psi4/basis/aug-cc-pvtz-ri.gbs 
    atoms 15-22 entry H          line    29 file /cbio/jclab/home/chayas/anaconda/envs/py35/share/psi4/basis/aug-cc-pvtz-ri.gbs 

	 --------------------------------------------------------
	                          DF-MP2                         
	      2nd-Order Density-Fitted Moller-Plesset Theory     
	              RMP2 Wavefunction,   8 Threads             
	                                                         
	        Rob Parrish, Justin Turney, Andy Simmonett,      
	           Ed Hohenstein, and C. David Sherrill          
	 --------------------------------------------------------

   => Auxiliary Basis Set <=

  Basis Set: (AUG-CC-PVTZ AUX)
    Blend: AUG-CC-PVTZ-RI
    Number of shells: 504
    Number of basis function: 1852
    Number of Cartesian functions: 2344
    Spherical Harmonics?: true
    Max angular momentum: 4

	 --------------------------------------------------------
	                 NBF =   828, NAUX =  1852
	 --------------------------------------------------------
	   CLASS    FOCC     OCC    AOCC    AVIR     VIR    FVIR
	   PAIRS       0      49      49     779     779       0
	 --------------------------------------------------------

