
    -----------------------------------------------------------------------
          Psi4: An Open-Source Ab Initio Electronic Structure Package
                               Psi4 1.1 release

                         Git: Rev {HEAD} add49b9 


    R. M. Parrish, L. A. Burns, D. G. A. Smith, A. C. Simmonett,
    A. E. DePrince III, E. G. Hohenstein, U. Bozkaya, A. Yu. Sokolov,
    R. Di Remigio, R. M. Richard, J. F. Gonthier, A. M. James,
    H. R. McAlexander, A. Kumar, M. Saitow, X. Wang, B. P. Pritchard,
    P. Verma, H. F. Schaefer III, K. Patkowski, R. A. King, E. F. Valeev,
    F. A. Evangelista, J. M. Turney, T. D. Crawford, and C. D. Sherrill,
    J. Chem. Theory Comput. in press (2017).
    (doi: 10.1021/acs.jctc.7b00174)

    -----------------------------------------------------------------------


    Psi4 started on: Monday, 13 November 2017 10:57PM

    Process ID:   8765
    PSIDATADIR: /cbio/jclab/home/chayas/anaconda/envs/py35/share/psi4
    Memory:     500.0 MiB
    Threads:    8
    
  ==> Input File <==

--------------------------------------------------------------------------

memory 5 Gb

molecule phepyr {
  symmetry C1
  0 1 
  C      1.885   -1.036   -0.112
  C      0.807   -0.463   0.561
  C      2.921   -1.631   0.608
  C      0.764   -0.484   1.955
  C      2.878   -1.652   2.002
  C      2.566   -0.245   4.858
  C      0.899   -1.976   4.780
  C      2.485   -0.304   6.240
  C      0.892   -1.958   6.165
  C      1.800   -1.079   2.676
  C      1.755   -1.100   4.122
  N      1.666   -1.141   6.915
  H      1.917   -1.021   -1.198
  H      -0.001   -0.002   0.000
  H      3.760   -2.079   0.084
  H      -0.084   -0.033   2.466
  H      3.693   -2.120   2.550
  H      3.246   0.453   4.381
  H      0.252   -2.659   4.238
  H      3.096   0.344   6.861
  H      0.244   -2.622   6.726
  units Angstrom
}

dih_string = "4 10 11 6 255"
set optking { opt_coordinates = cartesian
              fixed_dihedral = $dih_string
              dynamic_level = 1
              geom_maxiter = 250
              print_trajectory_xyz_file = True }

optimize('MP2/aug-cc-PVTZ')
--------------------------------------------------------------------------

  Memory set to   4.657 GiB by Python driver.
gradient() will perform analytic gradient computation.

*** tstart() called on gpu-2-8.local
*** at Mon Nov 13 22:57:25 2017

    SCF Algorithm Type (re)set to DF.

*** tstart() called on gpu-2-8.local
*** at Mon Nov 13 22:57:25 2017

   => Loading Basis Set <=

    Name: AUG-CC-PVTZ
    Role: ORBITAL
    Keyword: BASIS
    atoms 1-11  entry C          line   221 file /cbio/jclab/home/chayas/anaconda/envs/py35/share/psi4/basis/aug-cc-pvtz.gbs 
    atoms 12    entry N          line   267 file /cbio/jclab/home/chayas/anaconda/envs/py35/share/psi4/basis/aug-cc-pvtz.gbs 
    atoms 13-21 entry H          line    34 file /cbio/jclab/home/chayas/anaconda/envs/py35/share/psi4/basis/aug-cc-pvtz.gbs 


         ---------------------------------------------------------
                                   SCF
            by Justin Turney, Rob Parrish, and Andy Simmonett
                              RHF Reference
                        8 Threads,   4768 MiB Core
         ---------------------------------------------------------

  ==> Geometry <==

    Molecular point group: c1
    Full point group: C1

    Geometry (in Angstrom), charge = 0, multiplicity = 1:

       Center              X                  Y                   Z               Mass       
    ------------   -----------------  -----------------  -----------------  -----------------
           C          0.109053203553     0.053346124235    -3.525887963402    12.000000000000
           C         -0.968946796447     0.626346124235    -2.852887963402    12.000000000000
           C          1.145053203553    -0.541653875765    -2.805887963402    12.000000000000
           C         -1.011946796447     0.605346124235    -1.458887963402    12.000000000000
           C          1.102053203553    -0.562653875765    -1.411887963402    12.000000000000
           C          0.790053203553     0.844346124235     1.444112036598    12.000000000000
           C         -0.876946796447    -0.886653875765     1.366112036598    12.000000000000
           C          0.709053203553     0.785346124235     2.826112036598    12.000000000000
           C         -0.883946796447    -0.868653875765     2.751112036598    12.000000000000
           C          0.024053203553     0.010346124235    -0.737887963402    12.000000000000
           C         -0.020946796447    -0.010653875765     0.708112036598    12.000000000000
           N         -0.109946796447    -0.051653875765     3.501112036598    14.003074004780
           H          0.141053203553     0.068346124235    -4.611887963402     1.007825032070
           H         -1.776946796447     1.087346124235    -3.413887963402     1.007825032070
           H          1.984053203553    -0.989653875765    -3.329887963402     1.007825032070
           H         -1.859946796447     1.056346124235    -0.947887963402     1.007825032070
           H          1.917053203553    -1.030653875765    -0.863887963402     1.007825032070
           H          1.470053203553     1.542346124235     0.967112036598     1.007825032070
           H         -1.523946796447    -1.569653875765     0.824112036598     1.007825032070
           H          1.320053203553     1.433346124235     3.447112036598     1.007825032070
           H         -1.531946796447    -1.532653875765     3.312112036598     1.007825032070

  Running in c1 symmetry.

  Rotational constants: A =      0.09743  B =      0.01785  C =      0.01703 [cm^-1]
  Rotational constants: A =   2920.79283  B =    534.98301  C =    510.63358 [MHz]
  Nuclear repulsion =  605.639921011897854

  Charge       = 0
  Multiplicity = 1
  Electrons    = 82
  Nalpha       = 41
  Nbeta        = 41

  ==> Algorithm <==

  SCF Algorithm Type is DF.
  DIIS enabled.
  MOM disabled.
  Fractional occupation disabled.
  Guess Type is SAD.
  Energy threshold   = 1.00e-10
  Density threshold  = 1.00e-10
  Integral threshold = 0.00e+00

  ==> Primary Basis <==

  Basis Set: AUG-CC-PVTZ
    Blend: AUG-CC-PVTZ
    Number of shells: 249
    Number of basis function: 759
    Number of Cartesian functions: 885
    Spherical Harmonics?: true
    Max angular momentum: 3

   => Loading Basis Set <=

    Name: (AUG-CC-PVTZ AUX)
    Role: JKFIT
    Keyword: DF_BASIS_SCF
    atoms 1-11  entry C          line   161 file /cbio/jclab/home/chayas/anaconda/envs/py35/share/psi4/basis/aug-cc-pvtz-jkfit.gbs 
    atoms 12    entry N          line   223 file /cbio/jclab/home/chayas/anaconda/envs/py35/share/psi4/basis/aug-cc-pvtz-jkfit.gbs 
    atoms 13-21 entry H          line    69 file /cbio/jclab/home/chayas/anaconda/envs/py35/share/psi4/basis/aug-cc-pvtz-jkfit.gbs 

  ==> Pre-Iterations <==

   -------------------------------------------------------
    Irrep   Nso     Nmo     Nalpha   Nbeta   Ndocc  Nsocc
   -------------------------------------------------------
     A        759     759       0       0       0       0
   -------------------------------------------------------
    Total     759     759      41      41      41       0
   -------------------------------------------------------

  ==> Integral Setup <==

  ==> DFJK: Density-Fitted J/K Matrices <==

    J tasked:                  Yes
    K tasked:                  Yes
    wK tasked:                  No
    OpenMP threads:              8
    Integrals threads:           8
    Memory (MB):              3576
    Algorithm:                Core
    Integral Cache:           NONE
    Schwarz Cutoff:          1E-12
    Fitting Condition:       1E-12

   => Auxiliary Basis Set <=

  Basis Set: (AUG-CC-PVTZ AUX)
    Blend: AUG-CC-PVTZ-JKFIT
    Number of shells: 486
    Number of basis function: 1662
    Number of Cartesian functions: 2067
    Spherical Harmonics?: true
    Max angular momentum: 4

  Minimum eigenvalue in the overlap matrix is 4.5973352152E-07.
  Using Symmetric Orthogonalization.

  SCF Guess: Superposition of Atomic Densities via on-the-fly atomic UHF.

  ==> Iterations <==

                           Total Energy        Delta E     RMS |[F,P]|

   @DF-RHF iter   0:  -481.89985734110672   -4.81900e+02   2.31836e-02 
   @DF-RHF iter   1:  -476.06300520578031    5.83685e+00   2.04863e-03 
   @DF-RHF iter   2:  -476.34204223139432   -2.79037e-01   6.94359e-04 DIIS
   @DF-RHF iter   3:  -476.38219164955899   -4.01494e-02   4.30224e-04 DIIS
   @DF-RHF iter   4:  -476.39369178021207   -1.15001e-02   1.09631e-04 DIIS
   @DF-RHF iter   5:  -476.39500664423787   -1.31486e-03   4.73105e-05 DIIS
   @DF-RHF iter   6:  -476.39526333627464   -2.56692e-04   1.66241e-05 DIIS
   @DF-RHF iter   7:  -476.39529306103788   -2.97248e-05   5.08234e-06 DIIS
   @DF-RHF iter   8:  -476.39529525089421   -2.18986e-06   1.44543e-06 DIIS
   @DF-RHF iter   9:  -476.39529555693912   -3.06045e-07   5.65122e-07 DIIS
   @DF-RHF iter  10:  -476.39529563031925   -7.33801e-08   2.78594e-07 DIIS
   @DF-RHF iter  11:  -476.39529565491716   -2.45979e-08   1.05182e-07 DIIS
   @DF-RHF iter  12:  -476.39529565836045   -3.44329e-09   3.72265e-08 DIIS
   @DF-RHF iter  13:  -476.39529565868929   -3.28839e-10   1.54110e-08 DIIS
   @DF-RHF iter  14:  -476.39529565873841   -4.91127e-11   4.01542e-09 DIIS
   @DF-RHF iter  15:  -476.39529565869157    4.68390e-11   2.44774e-09 DIIS
   @DF-RHF iter  16:  -476.39529565873227   -4.06999e-11   1.14164e-09 DIIS
   @DF-RHF iter  17:  -476.39529565871601    1.62572e-11   5.43846e-10 DIIS
   @DF-RHF iter  18:  -476.39529565869248    2.35332e-11   2.16913e-10 DIIS
   @DF-RHF iter  19:  -476.39529565873192   -3.94493e-11   1.09914e-10 DIIS
   @DF-RHF iter  20:  -476.39529565872482    7.10543e-12   4.73938e-11 DIIS

  ==> Post-Iterations <==

    Orbital Energies (a.u.)
    -----------------------

    Doubly Occupied:                                                      

       1A    -15.565813     2A    -11.275537     3A    -11.275381  
       4A    -11.263294     5A    -11.250609     6A    -11.245402  
       7A    -11.245263     8A    -11.243959     9A    -11.243898  
      10A    -11.242206    11A    -11.239075    12A    -11.238957  
      13A     -1.251012    14A     -1.172897    15A     -1.106906  
      16A     -1.035646    17A     -1.023993    18A     -1.015900  
      19A     -0.881006    20A     -0.857586    21A     -0.835276  
      22A     -0.805410    23A     -0.729200    24A     -0.684766  
      25A     -0.667927    26A     -0.655295    27A     -0.637086  
      28A     -0.631872    29A     -0.599837    30A     -0.595560  
      31A     -0.578740    32A     -0.538090    33A     -0.527176  
      34A     -0.506236    35A     -0.504895    36A     -0.502456  
      37A     -0.419467    38A     -0.379782    39A     -0.353527  
      40A     -0.343378    41A     -0.339023  

    Virtual:                                                              

      42A      0.025169    43A      0.032048    44A      0.032626  
      45A      0.035746    46A      0.043324    47A      0.048247  
      48A      0.050373    49A      0.052610    50A      0.060265  
      51A      0.084491    52A      0.086206    53A      0.092745  
      54A      0.092839    55A      0.094158    56A      0.097944  
      57A      0.101587    58A      0.103284    59A      0.108320  
      60A      0.112013    61A      0.114040    62A      0.115791  
      63A      0.118630    64A      0.123011    65A      0.126493  
      66A      0.127036    67A      0.128101    68A      0.131042  
      69A      0.138658    70A      0.140217    71A      0.141708  
      72A      0.144128    73A      0.144435    74A      0.148654  
      75A      0.156545    76A      0.157545    77A      0.159699  
      78A      0.171368    79A      0.174347    80A      0.176129  
      81A      0.190062    82A      0.192599    83A      0.196180  
      84A      0.203686    85A      0.211915    86A      0.227960  
      87A      0.228193    88A      0.234462    89A      0.238224  
      90A      0.244295    91A      0.244820    92A      0.247323  
      93A      0.253236    94A      0.256814    95A      0.261979  
      96A      0.263953    97A      0.264865    98A      0.270525  
      99A      0.272445   100A      0.275278   101A      0.278641  
     102A      0.290841   103A      0.293553   104A      0.297741  
     105A      0.304480   106A      0.306965   107A      0.308235  
     108A      0.313460   109A      0.313972   110A      0.317941  
     111A      0.320261   112A      0.326250   113A      0.327377  
     114A      0.329817   115A      0.342157   116A      0.345462  
     117A      0.351737   118A      0.355193   119A      0.359264  
     120A      0.361146   121A      0.361334   122A      0.374465  
     123A      0.381626   124A      0.392803   125A      0.397888  
     126A      0.399806   127A      0.403684   128A      0.413290  
     129A      0.416287   130A      0.418012   131A      0.420500  
     132A      0.427361   133A      0.437267   134A      0.439003  
     135A      0.442645   136A      0.446394   137A      0.447486  
     138A      0.450374   139A      0.456079   140A      0.462741  
     141A      0.463802   142A      0.468866   143A      0.475217  
     144A      0.475589   145A      0.479218   146A      0.481993  
     147A      0.485313   148A      0.489744   149A      0.490935  
     150A      0.493504   151A      0.495786   152A      0.499770  
     153A      0.505547   154A      0.509291   155A      0.512273  
     156A      0.518609   157A      0.522071   158A      0.522777  
     159A      0.525241   160A      0.529949   161A      0.539499  
     162A      0.539768   163A      0.541378   164A      0.542626  
     165A      0.546910   166A      0.553079   167A      0.561336  
     168A      0.563444   169A      0.569411   170A      0.571599  
     171A      0.580895   172A      0.586498   173A      0.591490  
     174A      0.601909   175A      0.606491   176A      0.612277  
     177A      0.614184   178A      0.624596   179A      0.633198  
     180A      0.634394   181A      0.637049   182A      0.638117  
     183A      0.660129   184A      0.660671   185A      0.662563  
     186A      0.671565   187A      0.671872   188A      0.676343  
     189A      0.687331   190A      0.691369   191A      0.695389  
     192A      0.700216   193A      0.706748   194A      0.715548  
     195A      0.722421   196A      0.725285   197A      0.731529  
     198A      0.737979   199A      0.746068   200A      0.747890  
     201A      0.756695   202A      0.758552   203A      0.766671  
     204A      0.775456   205A      0.780931   206A      0.782125  
     207A      0.789940   208A      0.790970   209A      0.797139  
     210A      0.809093   211A      0.810437   212A      0.812538  
     213A      0.826561   214A      0.843926   215A      0.852138  
     216A      0.861861   217A      0.862719   218A      0.866918  
     219A      0.871859   220A      0.879808   221A      0.883904  
     222A      0.886243   223A      0.887595   224A      0.890875  
     225A      0.898235   226A      0.904428   227A      0.905324  
     228A      0.910865   229A      0.916061   230A      0.916464  
     231A      0.918372   232A      0.921705   233A      0.929460  
     234A      0.933238   235A      0.938660   236A      0.950103  
     237A      0.951331   238A      0.952258   239A      0.956604  
     240A      0.969285   241A      0.970246   242A      0.978727  
     243A      0.981008   244A      0.985141   245A      0.990349  
     246A      0.991236   247A      0.996620   248A      1.003567  
     249A      1.007907   250A      1.011531   251A      1.022543  
     252A      1.023071   253A      1.026050   254A      1.032809  
     255A      1.043781   256A      1.045197   257A      1.054373  
     258A      1.057582   259A      1.059459   260A      1.061210  
     261A      1.068785   262A      1.084213   263A      1.084973  
     264A      1.087632   265A      1.089474   266A      1.090911  
     267A      1.098470   268A      1.104623   269A      1.109545  
     270A      1.113799   271A      1.116664   272A      1.122864  
     273A      1.127120   274A      1.134178   275A      1.137264  
     276A      1.143437   277A      1.154771   278A      1.159263  
     279A      1.165242   280A      1.174436   281A      1.176690  
     282A      1.177619   283A      1.181893   284A      1.183884  
     285A      1.189801   286A      1.194289   287A      1.198784  
     288A      1.202804   289A      1.205296   290A      1.211017  
     291A      1.216683   292A      1.223786   293A      1.230147  
     294A      1.238477   295A      1.242000   296A      1.243589  
     297A      1.257440   298A      1.257631   299A      1.259437  
     300A      1.270579   301A      1.277683   302A      1.282570  
     303A      1.286565   304A      1.287254   305A      1.300267  
     306A      1.310517   307A      1.312861   308A      1.319168  
     309A      1.321990   310A      1.334269   311A      1.335071  
     312A      1.343134   313A      1.346377   314A      1.377731  
     315A      1.381219   316A      1.382830   317A      1.386104  
     318A      1.393640   319A      1.402196   320A      1.420288  
     321A      1.421712   322A      1.431804   323A      1.432601  
     324A      1.434070   325A      1.443914   326A      1.450652  
     327A      1.455035   328A      1.466247   329A      1.480866  
     330A      1.489644   331A      1.500909   332A      1.505549  
     333A      1.516663   334A      1.526186   335A      1.538872  
     336A      1.549522   337A      1.562515   338A      1.562981  
     339A      1.567522   340A      1.570270   341A      1.572821  
     342A      1.577960   343A      1.585075   344A      1.602678  
     345A      1.611569   346A      1.618357   347A      1.623709  
     348A      1.628862   349A      1.636674   350A      1.658221  
     351A      1.669101   352A      1.674676   353A      1.686648  
     354A      1.697035   355A      1.705812   356A      1.706615  
     357A      1.713652   358A      1.721782   359A      1.725033  
     360A      1.727534   361A      1.735671   362A      1.742273  
     363A      1.751632   364A      1.752494   365A      1.760101  
     366A      1.772598   367A      1.774590   368A      1.787534  
     369A      1.792705   370A      1.804663   371A      1.818052  
     372A      1.828256   373A      1.836293   374A      1.839818  
     375A      1.841461   376A      1.849986   377A      1.857439  
     378A      1.881634   379A      1.886086   380A      1.887014  
     381A      1.905009   382A      1.910798   383A      1.917023  
     384A      1.924997   385A      1.931359   386A      1.938491  
     387A      1.953644   388A      1.960131   389A      1.970985  
     390A      1.976461   391A      1.987999   392A      1.992700  
     393A      1.998986   394A      2.002212   395A      2.014802  
     396A      2.025903   397A      2.027679   398A      2.041439  
     399A      2.042133   400A      2.049010   401A      2.051582  
     402A      2.062491   403A      2.078664   404A      2.080034  
     405A      2.088099   406A      2.091435   407A      2.106680  
     408A      2.106917   409A      2.118322   410A      2.128850  
     411A      2.139796   412A      2.148235   413A      2.149291  
     414A      2.150617   415A      2.168765   416A      2.171703  
     417A      2.172778   418A      2.187702   419A      2.191699  
     420A      2.207372   421A      2.211970   422A      2.217144  
     423A      2.230129   424A      2.230514   425A      2.234880  
     426A      2.257658   427A      2.260741   428A      2.279371  
     429A      2.296190   430A      2.297615   431A      2.312512  
     432A      2.320574   433A      2.329563   434A      2.343094  
     435A      2.354055   436A      2.362768   437A      2.364659  
     438A      2.380542   439A      2.381790   440A      2.387632  
     441A      2.393872   442A      2.416515   443A      2.431664  
     444A      2.437498   445A      2.467544   446A      2.471974  
     447A      2.479433   448A      2.486454   449A      2.513952  
     450A      2.518615   451A      2.532735   452A      2.559934  
     453A      2.566732   454A      2.576246   455A      2.585856  
     456A      2.586165   457A      2.596658   458A      2.605817  
     459A      2.613251   460A      2.621835   461A      2.636737  
     462A      2.668778   463A      2.680139   464A      2.714827  
     465A      2.725515   466A      2.741322   467A      2.763662  
     468A      2.784415   469A      2.813241   470A      2.829884  
     471A      2.831371   472A      2.862443   473A      2.870488  
     474A      2.885807   475A      2.890465   476A      2.959475  
     477A      2.969751   478A      3.002537   479A      3.052214  
     480A      3.063143   481A      3.080306   482A      3.129028  
     483A      3.152729   484A      3.160804   485A      3.174473  
     486A      3.201063   487A      3.204352   488A      3.222430  
     489A      3.228698   490A      3.258027   491A      3.264571  
     492A      3.271532   493A      3.309479   494A      3.326614  
     495A      3.341407   496A      3.342599   497A      3.355532  
     498A      3.375599   499A      3.389043   500A      3.397045  
     501A      3.402118   502A      3.420440   503A      3.431192  
     504A      3.434220   505A      3.440675   506A      3.445401  
     507A      3.448694   508A      3.456793   509A      3.464321  
     510A      3.471028   511A      3.481482   512A      3.496358  
     513A      3.520960   514A      3.526229   515A      3.527636  
     516A      3.542202   517A      3.542589   518A      3.544670  
     519A      3.554367   520A      3.565405   521A      3.568160  
     522A      3.579900   523A      3.584173   524A      3.598687  
     525A      3.603893   526A      3.606515   527A      3.616108  
     528A      3.619712   529A      3.622482   530A      3.651005  
     531A      3.651502   532A      3.665745   533A      3.680597  
     534A      3.686490   535A      3.689518   536A      3.709564  
     537A      3.711415   538A      3.717363   539A      3.731951  
     540A      3.741655   541A      3.748982   542A      3.770908  
     543A      3.795585   544A      3.805694   545A      3.810753  
     546A      3.817554   547A      3.822941   548A      3.838007  
     549A      3.843289   550A      3.856703   551A      3.866205  
     552A      3.870356   553A      3.872773   554A      3.876441  
     555A      3.893534   556A      3.899906   557A      3.910765  
     558A      3.915119   559A      3.925672   560A      3.933644  
     561A      3.948588   562A      3.951244   563A      3.962914  
     564A      3.968428   565A      3.969863   566A      3.997174  
     567A      3.997925   568A      4.006068   569A      4.011004  
     570A      4.011892   571A      4.031869   572A      4.041850  
     573A      4.049215   574A      4.053528   575A      4.056899  
     576A      4.074473   577A      4.093260   578A      4.093956  
     579A      4.099238   580A      4.101679   581A      4.116685  
     582A      4.125429   583A      4.135614   584A      4.152568  
     585A      4.164978   586A      4.167818   587A      4.177102  
     588A      4.177814   589A      4.200863   590A      4.207187  
     591A      4.210382   592A      4.218340   593A      4.223145  
     594A      4.236052   595A      4.246194   596A      4.254393  
     597A      4.255061   598A      4.283958   599A      4.285476  
     600A      4.286707   601A      4.303841   602A      4.304567  
     603A      4.323443   604A      4.329296   605A      4.349053  
     606A      4.359126   607A      4.384442   608A      4.393370  
     609A      4.399861   610A      4.407470   611A      4.408174  
     612A      4.420762   613A      4.424428   614A      4.430574  
     615A      4.446090   616A      4.446457   617A      4.449210  
     618A      4.462753   619A      4.463491   620A      4.470291  
     621A      4.485872   622A      4.494450   623A      4.506198  
     624A      4.520832   625A      4.527250   626A      4.551595  
     627A      4.558743   628A      4.576473   629A      4.584852  
     630A      4.621591   631A      4.631507   632A      4.644476  
     633A      4.665057   634A      4.670115   635A      4.695477  
     636A      4.697479   637A      4.713519   638A      4.732292  
     639A      4.738789   640A      4.747468   641A      4.770619  
     642A      4.773588   643A      4.799067   644A      4.820997  
     645A      4.831790   646A      4.859244   647A      4.877313  
     648A      4.906053   649A      4.909503   650A      4.921048  
     651A      4.942997   652A      4.949729   653A      4.952547  
     654A      4.965436   655A      4.979805   656A      4.997978  
     657A      5.006040   658A      5.021551   659A      5.027429  
     660A      5.035114   661A      5.044503   662A      5.062949  
     663A      5.071897   664A      5.081624   665A      5.088602  
     666A      5.101042   667A      5.116463   668A      5.126953  
     669A      5.134828   670A      5.153436   671A      5.154375  
     672A      5.162380   673A      5.163975   674A      5.170676  
     675A      5.171942   676A      5.180041   677A      5.201253  
     678A      5.205671   679A      5.234978   680A      5.252003  
     681A      5.278586   682A      5.288111   683A      5.316606  
     684A      5.336520   685A      5.356468   686A      5.362669  
     687A      5.364045   688A      5.375678   689A      5.381626  
     690A      5.384075   691A      5.425762   692A      5.439924  
     693A      5.456274   694A      5.466263   695A      5.480221  
     696A      5.483778   697A      5.516459   698A      5.540393  
     699A      5.552527   700A      5.560154   701A      5.595475  
     702A      5.650034   703A      5.664379   704A      5.721332  
     705A      5.747385   706A      5.777592   707A      5.781358  
     708A      5.790112   709A      5.800423   710A      5.819348  
     711A      5.840272   712A      5.858164   713A      5.884316  
     714A      5.886848   715A      5.909791   716A      5.966751  
     717A      6.029488   718A      6.079409   719A      6.141469  
     720A      6.171665   721A      6.190953   722A      6.222267  
     723A      6.235347   724A      6.255555   725A      6.257787  
     726A      6.322052   727A      6.335623   728A      6.346319  
     729A      6.393955   730A      6.475460   731A      6.504189  
     732A      6.560830   733A      6.607730   734A      6.611181  
     735A      6.692508   736A      6.704963   737A      6.740992  
     738A      6.808463   739A      6.876704   740A      6.885340  
     741A      6.931949   742A      7.024534   743A      7.049479  
     744A      7.068002   745A      7.177066   746A      7.335143  
     747A      7.410329   748A     15.615021   749A     16.143433  
     750A     16.539870   751A     16.728864   752A     18.456575  
     753A     18.782594   754A     19.066307   755A     19.291917  
     756A     20.019198   757A     20.021943   758A     20.105353  
     759A     21.872827  

    Final Occupation by Irrep:
              A 
    DOCC [    41 ]

  Energy converged.

  @DF-RHF Final Energy:  -476.39529565872482

   => Energetics <=

    Nuclear Repulsion Energy =            605.6399210118978544
    One-Electron Energy =               -1845.0517587511426427
    Two-Electron Energy =                 763.0165420805199119
    DFT Exchange-Correlation Energy =       0.0000000000000000
    Empirical Dispersion Energy =           0.0000000000000000
    PCM Polarization Energy =               0.0000000000000000
    EFP Energy =                            0.0000000000000000
    Total Energy =                       -476.3952956587247627



Properties will be evaluated at   0.000000,   0.000000,   0.000000 Bohr

Properties computed using the SCF density matrix

  Nuclear Dipole Moment: (a.u.)
     X:     0.1311      Y:     0.0612      Z:    -4.3385

  Electronic Dipole Moment: (a.u.)
     X:    -0.0986      Y:    -0.0471      Z:     3.2889

  Dipole Moment: (a.u.)
     X:     0.0324      Y:     0.0141      Z:    -1.0496     Total:     1.0502

  Dipole Moment: (Debye)
     X:     0.0825      Y:     0.0357      Z:    -2.6677     Total:     2.6693


*** tstop() called on gpu-2-8.local at Mon Nov 13 23:02:57 2017
Module time:
	user time   =     978.23 seconds =      16.30 minutes
	system time =       8.14 seconds =       0.14 minutes
	total time  =        332 seconds =       5.53 minutes
Total time:
	user time   =     978.23 seconds =      16.30 minutes
	system time =       8.14 seconds =       0.14 minutes
	total time  =        332 seconds =       5.53 minutes

  //>>>>>>>>>>>>>>>>>>>>>>>>>>>>>>>>>>>//
  //               DFMP2               //
  //<<<<<<<<<<<<<<<<<<<<<<<<<<<<<<<<<<<//

   => Loading Basis Set <=

    Name: (AUG-CC-PVTZ AUX)
    Role: RIFIT
    Keyword: DF_BASIS_MP2
    atoms 1-11  entry C          line   147 file /cbio/jclab/home/chayas/anaconda/envs/py35/share/psi4/basis/aug-cc-pvtz-ri.gbs 
    atoms 12    entry N          line   205 file /cbio/jclab/home/chayas/anaconda/envs/py35/share/psi4/basis/aug-cc-pvtz-ri.gbs 
    atoms 13-21 entry H          line    29 file /cbio/jclab/home/chayas/anaconda/envs/py35/share/psi4/basis/aug-cc-pvtz-ri.gbs 

	 --------------------------------------------------------
	                          DF-MP2                         
	      2nd-Order Density-Fitted Moller-Plesset Theory     
	              RMP2 Wavefunction,   8 Threads             
	                                                         
	        Rob Parrish, Justin Turney, Andy Simmonett,      
	           Ed Hohenstein, and C. David Sherrill          
	 --------------------------------------------------------

   => Auxiliary Basis Set <=

  Basis Set: (AUG-CC-PVTZ AUX)
    Blend: AUG-CC-PVTZ-RI
    Number of shells: 462
    Number of basis function: 1686
    Number of Cartesian functions: 2127
    Spherical Harmonics?: true
    Max angular momentum: 4

	 --------------------------------------------------------
	                 NBF =   759, NAUX =  1686
	 --------------------------------------------------------
	   CLASS    FOCC     OCC    AOCC    AVIR     VIR    FVIR
	   PAIRS       0      41      41     718     718       0
	 --------------------------------------------------------


         ------------------------------------------------------------
                                     CPHF                           
                                  Rob Parrish                       
         ------------------------------------------------------------

  ==> Geometry <==

    Molecular point group: c1
    Full point group: C1

    Geometry (in Angstrom), charge = 0, multiplicity = 1:

       Center              X                  Y                   Z               Mass       
    ------------   -----------------  -----------------  -----------------  -----------------
           C          0.109053203553     0.053346124235    -3.525887963402    12.000000000000
           C         -0.968946796447     0.626346124235    -2.852887963402    12.000000000000
           C          1.145053203553    -0.541653875765    -2.805887963402    12.000000000000
           C         -1.011946796447     0.605346124235    -1.458887963402    12.000000000000
           C          1.102053203553    -0.562653875765    -1.411887963402    12.000000000000
           C          0.790053203553     0.844346124235     1.444112036598    12.000000000000
           C         -0.876946796447    -0.886653875765     1.366112036598    12.000000000000
           C          0.709053203553     0.785346124235     2.826112036598    12.000000000000
           C         -0.883946796447    -0.868653875765     2.751112036598    12.000000000000
           C          0.024053203553     0.010346124235    -0.737887963402    12.000000000000
           C         -0.020946796447    -0.010653875765     0.708112036598    12.000000000000
           N         -0.109946796447    -0.051653875765     3.501112036598    14.003074004780
           H          0.141053203553     0.068346124235    -4.611887963402     1.007825032070
           H         -1.776946796447     1.087346124235    -3.413887963402     1.007825032070
           H          1.984053203553    -0.989653875765    -3.329887963402     1.007825032070
           H         -1.859946796447     1.056346124235    -0.947887963402     1.007825032070
           H          1.917053203553    -1.030653875765    -0.863887963402     1.007825032070
           H          1.470053203553     1.542346124235     0.967112036598     1.007825032070
           H         -1.523946796447    -1.569653875765     0.824112036598     1.007825032070
           H          1.320053203553     1.433346124235     3.447112036598     1.007825032070
           H         -1.531946796447    -1.532653875765     3.312112036598     1.007825032070

  Nuclear repulsion =  605.639921011897854
  Reference energy  = -476.395295658724820

  ==> Basis Set <==

  Basis Set: AUG-CC-PVTZ
    Blend: AUG-CC-PVTZ
    Number of shells: 249
    Number of basis function: 759
    Number of Cartesian functions: 885
    Spherical Harmonics?: true
    Max angular momentum: 3

  ==> CGRSolver (by Rob Parrish) <==

   Number of roots    =         1
   Preconditioning    =    JACOBI
   Convergence cutoff =     1E-06
   Maximum iterations =       100

  ==> CPHFRHamiltonian (by Rob Parrish) <== 

  ==> DFJK: Density-Fitted J/K Matrices <==

    J tasked:                  Yes
    K tasked:                  Yes
    wK tasked:                  No
    OpenMP threads:              8
    Integrals threads:           8
    Memory (MB):              3576
    Algorithm:                Core
    Integral Cache:           NONE
    Schwarz Cutoff:          1E-12
    Fitting Condition:       1E-12

   => Auxiliary Basis Set <=

  Basis Set: (AUG-CC-PVTZ AUX)
    Blend: AUG-CC-PVTZ-JKFIT
    Number of shells: 486
    Number of basis function: 1662
    Number of Cartesian functions: 2067
    Spherical Harmonics?: true
    Max angular momentum: 4

  ==> CPHF Iterations <==

  => Iterations <=

             Iter  Converged  Remaining    Residual
  CGR           1          0          1   8.164E-02
  CGR           2          0          1   3.015E-02
  CGR           3          0          1   2.054E-02
  CGR           4          0          1   8.866E-03
  CGR           5          0          1   2.441E-03
  CGR           6          0          1   8.208E-04
  CGR           7          0          1   3.210E-04
  CGR           8          0          1   8.759E-05
  CGR           9          0          1   3.750E-05
  CGR          10          0          1   1.116E-05
  CGR          11          0          1   4.552E-06
  CGR          12          0          1   2.283E-06
  CGR          13          1          0   7.381E-07

    CGRSolver converged.

  ==> DFCorrGrad: Density-Fitted Correlated Gradients <==

    OpenMP threads:              8
    Integrals threads:           8
    Memory (MB):              3576
    Schwarz Cutoff:          0E+00
    Fitting Condition:       1E-12

   => Auxiliary Basis Set <=

  Basis Set: (AUG-CC-PVTZ AUX)
    Blend: AUG-CC-PVTZ-JKFIT
    Number of shells: 486
    Number of basis function: 1662
    Number of Cartesian functions: 2067
    Spherical Harmonics?: true
    Max angular momentum: 4

	-----------------------------------------------------------
	 ==================> DF-MP2 Energies <==================== 
	-----------------------------------------------------------
	 Reference Energy          =    -476.3952956587248195 [Eh]
	 Singles Energy            =      -0.0000000000000001 [Eh]
	 Same-Spin Energy          =      -0.5342654666456145 [Eh]
	 Opposite-Spin Energy      =      -1.6423565128377300 [Eh]
	 Correlation Energy        =      -2.1766219794833446 [Eh]
	 Total Energy              =    -478.5719176382081628 [Eh]
	-----------------------------------------------------------
	 ================> DF-SCS-MP2 Energies <================== 
	-----------------------------------------------------------
	 SCS Same-Spin Scale       =       0.3333333333333333 [-]
	 SCS Opposite-Spin Scale   =       1.2000000000000000 [-]
	 SCS Same-Spin Energy      =      -0.1780884888818715 [Eh]
	 SCS Opposite-Spin Energy  =      -1.9708278154052759 [Eh]
	 SCS Correlation Energy    =      -2.1489163042871473 [Eh]
	 SCS Total Energy          =    -478.5442119630119464 [Eh]
	-----------------------------------------------------------


  -Total Gradient:
     Atom            X                  Y                   Z
    ------   -----------------  -----------------  -----------------
       1       -0.000426086287     0.000413620077    -0.000061062433
       2       -0.001168847894     0.000931282347    -0.000632393450
       3        0.002091267620    -0.001215546205    -0.000406615112
       4        0.001684523814     0.000546213468     0.007864134462
       5       -0.002722318267    -0.000392037457     0.007901015944
       6        0.001415828308     0.003356426002    -0.007113346809
       7       -0.001186342674    -0.003215967613    -0.006361498577
       8        0.005679643279     0.005742989138    -0.011879834808
       9       -0.005575869323    -0.006256829205    -0.012209409642
      10        0.000095135334    -0.000675593744     0.013147347170
      11        0.000383862734     0.000443088526    -0.002153864722
      12       -0.000334193952     0.000033024762     0.017321630849
      13        0.000088590247     0.000028787533    -0.005131324416
      14       -0.003646364012     0.001799246921    -0.002534359404
      15        0.003521710437    -0.001797532748    -0.002225855673
      16       -0.005696661047     0.002907122790     0.000080425510
      17        0.005628106846    -0.002907403952     0.000329751654
      18        0.003586364591     0.003434583963     0.000337914546
      19       -0.003828200209    -0.003724254541    -0.000440639782
      20        0.001558485763     0.001594318899     0.002436057137
      21       -0.001148635306    -0.001045538961     0.001731927550


*** tstop() called on gpu-2-8.local at Mon Nov 13 23:24:59 2017
Module time:
	user time   =    4057.53 seconds =      67.63 minutes
	system time =      30.10 seconds =       0.50 minutes
	total time  =       1654 seconds =      27.57 minutes
Total time:
	user time   =    4057.53 seconds =      67.63 minutes
	system time =      30.10 seconds =       0.50 minutes
	total time  =       1654 seconds =      27.57 minutes

			-----------------------------------------
			 OPTKING 2.0: for geometry optimizations 
			  - R.A. King,  Bethel University        
			-----------------------------------------
	At level 1: Red. Int., RFO, no backsteps, dynamic trust

	Internal coordinates to be generated automatically.
	Detected frag 1 with atoms:  1 2 3 4 5 6 7 8 9 10 11 12 13 14 15 16 17 18 19 20
	 21
	---Fragment 1 Bond Connectivity---
	 1 : 2 3 13
	 2 : 1 4 14
	 3 : 1 5 15
	 4 : 2 10 16
	 5 : 3 10 17
	 6 : 8 11 18
	 7 : 9 11 19
	 8 : 6 12 20
	 9 : 7 12 21
	 10 : 4 5 11
	 11 : 6 7 10
	 12 : 8 9
	 13 : 1
	 14 : 2
	 15 : 3
	 16 : 4
	 17 : 5
	 18 : 6
	 19 : 7
	 20 : 8
	 21 : 9

	Assuming in current code that numbering for constraints corresponds to unified fragment.
	Fixed dihedral atom list: 
	     4    10    11     6
	---Fragment 1 Geometry and Gradient---
	 C           0.2060806886        0.1008095651       -6.6629626261
	 C          -1.8310440826        1.1836226392       -5.3911769386
	 C           2.1638369623       -1.0235774840       -5.3023598104
	 C          -1.9123023063        1.1439383904       -2.7568987094
	 C           2.0825787386       -1.0632617328       -2.6680815811
	 C           1.4929841851        1.5955829362        2.7289762544
	 C          -1.6571892784       -1.6755329999        2.5815776160
	 C           1.3399163684        1.4840890943        5.3405777700
	 C          -1.6704173613       -1.6415179295        5.1988483101
	 C           0.0454539673        0.0195513413       -1.3944061676
	 C          -0.0395837086       -0.0201329075        1.3381378206
	 N          -0.2077693345       -0.0976116789        6.6161429097
	 H           0.2665519249        0.1291554570       -8.7152052064
	 H          -3.3579427980        2.0547863865       -6.4513132992
	 H           3.7493171878       -1.8701747915       -6.2925763040
	 H          -3.5147900670        1.9962048763       -1.7912486555
	 H           3.6227055369       -1.9476535630       -1.6325116603
	 H           2.7779979555        2.9146117769        1.8275768890
	 H          -2.8798420864       -2.9662159486        1.5573460520
	 H           2.4945390356        2.7086316284        6.5140976985
	 H          -2.8949598954       -2.8962960817        6.2589846706
	            -0.0004260863        0.0004136201       -0.0000610624
	            -0.0011688479        0.0009312823       -0.0006323934
	             0.0020912676       -0.0012155462       -0.0004066151
	             0.0016845238        0.0005462135        0.0078641345
	            -0.0027223183       -0.0003920375        0.0079010159
	             0.0014158283        0.0033564260       -0.0071133468
	            -0.0011863427       -0.0032159676       -0.0063614986
	             0.0056796433        0.0057429891       -0.0118798348
	            -0.0055758693       -0.0062568292       -0.0122094096
	             0.0000951353       -0.0006755937        0.0131473472
	             0.0003838627        0.0004430885       -0.0021538647
	            -0.0003341940        0.0000330248        0.0173216308
	             0.0000885902        0.0000287875       -0.0051313244
	            -0.0036463640        0.0017992469       -0.0025343594
	             0.0035217104       -0.0017975327       -0.0022258557
	            -0.0056966610        0.0029071228        0.0000804255
	             0.0056281068       -0.0029074040        0.0003297517
	             0.0035863646        0.0034345840        0.0003379145
	            -0.0038282002       -0.0037242545       -0.0004406398
	             0.0015584858        0.0015943189        0.0024360571
	            -0.0011486353       -0.0010455390        0.0017319276

	Previous optimization step data not found.  Starting new optimization.

	---Fragment 1 Intrafragment Coordinates---
	 - Coordinate -           - BOHR/RAD -       - ANG/DEG -
	 R(1,2)           =         2.634350	       1.394038
	 R(1,3)           =         2.635962	       1.394891
	 R(1,13)          =         2.053329	       1.086575
	 R(2,4)           =         2.635830	       1.394821
	 R(2,14)          =         2.052860	       1.086327
	 R(3,5)           =         2.635830	       1.394821
	 R(3,15)          =         2.052073	       1.085910
	 R(4,10)          =         2.636938	       1.395407
	 R(4,16)          =         2.055920	       1.087946
	 R(5,10)          =         2.635263	       1.394521
	 R(5,17)          =         2.055856	       1.087912
	 R(6,8)           =         2.618458	       1.385628
	 R(6,11)          =         2.625592	       1.389403
	 R(6,18)          =         2.050273	       1.084958
	 R(7,9)           =         2.617525	       1.385135
	 R(7,11)          =         2.627383	       1.390351
	 R(7,19)          =         2.051778	       1.085754
	 R(8,12)          =         2.554246	       1.351649
	 R(8,20)          =         2.051781	       1.085756
	 R(9,12)          =         2.555721	       1.352429
	 R(9,21)          =         2.048868	       1.084214
	 R(10,11)         =         2.734155	       1.446852
	 B(1,2,4)         =         2.094553	     120.009056
	 B(1,2,14)        =         2.094726	     120.018942
	 B(1,3,5)         =         2.093692	     119.959722
	 B(1,3,15)        =         2.095250	     120.048965
	 B(2,1,3)         =         2.094940	     120.031219
	 B(2,1,13)        =         2.093950	     119.974480
	 B(2,4,10)        =         2.094306	     119.994870
	 B(2,4,16)        =         2.079681	     119.156970
	 B(3,1,13)        =         2.094293	     119.994160
	 B(3,5,10)        =         2.095181	     120.045019
	 B(3,5,17)        =         2.079222	     119.130634
	 B(4,2,14)        =         2.093904	     119.971849
	 B(4,10,5)        =         2.093699	     119.960108
	 B(4,10,11)       =         2.093804	     119.966144
	 B(5,3,15)        =         2.094242	     119.991253
	 B(5,10,11)       =         2.095682	     120.073736
	 B(6,8,12)        =         2.165026	     124.046840
	 B(6,8,20)        =         2.108477	     120.806825
	 B(6,11,7)        =         2.090233	     119.761531
	 B(6,11,10)       =         2.097083	     120.153981
	 B(7,9,12)        =         2.164533	     124.018588
	 B(7,9,21)        =         2.108817	     120.826286
	 B(7,11,10)       =         2.095870	     120.084480
	 B(8,6,11)        =         2.057837	     117.905354
	 B(8,6,18)        =         2.097318	     120.167459
	 B(8,12,9)        =         2.030762	     116.354084
	 B(9,7,11)        =         2.057980	     117.913595
	 B(9,7,19)        =         2.099375	     120.285352
	 B(10,4,16)       =         2.109198	     120.848149
	 B(10,5,17)       =         2.108782	     120.824331
	 B(11,6,18)       =         2.128031	     121.927174
	 B(11,7,19)       =         2.125828	     121.801001
	 B(12,8,20)       =         2.009680	     115.146204
	 B(12,9,21)       =         2.009835	     115.155090
	 D(1,2,4,10)      =        -0.000325	      -0.018609
	 D(1,2,4,16)      =        -3.141283	    -179.982244
	 D(1,3,5,10)      =         0.000325	       0.018608
	 D(1,3,5,17)      =         3.141117	     179.972749
	 D(2,1,3,5)       =        -0.000348	      -0.019945
	 D(2,1,3,15)      =         3.139689	     179.890913
	 D(2,4,10,5)      =         0.000301	       0.017261
	 D(2,4,10,11)     =         3.141198	     179.977407
	 D(3,1,2,4)       =         0.000348	       0.019955
	 D(3,1,2,14)      =        -3.138767	    -179.838124
	 D(3,5,10,4)      =        -0.000301	      -0.017270
	 D(3,5,10,11)     =        -3.141198	    -179.977373
	 D(4,2,1,13)      =         3.139559	     179.883471
	 D(4,10,5,17)     =        -3.141080	    -179.970623
	 D(4,10,11,6)     =        -1.832444	    -104.991282
	 D(4,10,11,7)     =         1.308616	      74.978166
	 D(5,3,1,13)      =        -3.139558	    -179.883434
	 D(5,10,4,16)     =         3.141248	     179.980271
	 D(5,10,11,6)     =         1.308453	      74.968818
	 D(5,10,11,7)     =        -1.833673	    -105.061734
	 D(6,8,12,9)      =         0.000513	       0.029368
	 D(6,11,7,9)      =        -0.000148	      -0.008455
	 D(6,11,7,19)     =        -3.140292	    -179.925462
	 D(7,9,12,8)      =        -0.000407	      -0.023294
	 D(7,11,6,8)      =         0.000242	       0.013889
	 D(7,11,6,18)     =        -3.140636	    -179.945175
	 D(8,6,11,10)     =         3.141304	     179.983436
	 D(8,12,9,21)     =         3.139993	     179.908333
	 D(9,7,11,10)     =        -3.141209	    -179.978023
	 D(9,12,8,20)     =         3.139818	     179.898318
	 D(10,4,2,14)     =         3.138792	     179.839537
	 D(10,5,3,15)     =        -3.139713	    -179.892302
	 D(10,11,6,18)    =         0.000425	       0.024372
	 D(10,11,7,19)    =         0.001832	       0.104970
	 D(11,6,8,12)     =        -0.000443	      -0.025377
	 D(11,6,8,20)     =        -3.139625	    -179.887258
	 D(11,7,9,12)     =         0.000238	       0.013634
	 D(11,7,9,21)     =        -3.140097	    -179.914295
	 D(11,10,4,16)    =        -0.001040	      -0.059583
	 D(11,10,5,17)    =         0.001209	       0.069274
	 D(12,8,6,18)     =         3.140448	     179.934437
	 D(12,9,7,19)     =         3.140405	     179.931952
	 D(13,1,2,14)     =         0.000443	       0.025392
	 D(13,1,3,15)     =         0.000479	       0.027424
	 D(14,2,4,16)     =        -0.002166	      -0.124098
	 D(15,3,5,17)     =         0.001079	       0.061840
	 D(18,6,8,20)     =         0.001266	       0.072556
	 D(19,7,9,21)     =         0.000070	       0.004023

	Current energy   :      -478.5719176382

	Using model Hessian from Lindh (1995).
	 - Coordinate -           - BOHR/RAD -       - ANG/DEG -
	 R(1,2)           =         2.634350	       1.394038
	 R(1,3)           =         2.635962	       1.394891
	 R(1,13)          =         2.053329	       1.086575
	 R(2,4)           =         2.635830	       1.394821
	 R(2,14)          =         2.052860	       1.086327
	 R(3,5)           =         2.635830	       1.394821
	 R(3,15)          =         2.052073	       1.085910
	 R(4,10)          =         2.636938	       1.395407
	 R(4,16)          =         2.055920	       1.087946
	 R(5,10)          =         2.635263	       1.394521
	 R(5,17)          =         2.055856	       1.087912
	 R(6,8)           =         2.618458	       1.385628
	 R(6,11)          =         2.625592	       1.389403
	 R(6,18)          =         2.050273	       1.084958
	 R(7,9)           =         2.617525	       1.385135
	 R(7,11)          =         2.627383	       1.390351
	 R(7,19)          =         2.051778	       1.085754
	 R(8,12)          =         2.554246	       1.351649
	 R(8,20)          =         2.051781	       1.085756
	 R(9,12)          =         2.555721	       1.352429
	 R(9,21)          =         2.048868	       1.084214
	 R(10,11)         =         2.734155	       1.446852
	 R(12,20)         =         3.897164	       2.062290
	 R(12,21)         =         3.896305	       2.061836
	 B(1,2,4)         =         2.094553	     120.009056
	 B(1,2,14)        =         2.094726	     120.018942
	 B(1,3,5)         =         2.093692	     119.959722
	 B(1,3,15)        =         2.095250	     120.048965
	 B(2,1,3)         =         2.094940	     120.031219
	 B(2,1,13)        =         2.093950	     119.974480
	 B(2,4,10)        =         2.094306	     119.994870
	 B(2,4,16)        =         2.079681	     119.156970
	 B(3,1,13)        =         2.094293	     119.994160
	 B(3,5,10)        =         2.095181	     120.045019
	 B(3,5,17)        =         2.079222	     119.130634
	 B(4,2,14)        =         2.093904	     119.971849
	 B(4,10,5)        =         2.093699	     119.960108
	 B(4,10,11)       =         2.093804	     119.966144
	 B(5,3,15)        =         2.094242	     119.991253
	 B(5,10,11)       =         2.095682	     120.073736
	 B(6,8,12)        =         2.165026	     124.046840
	 B(6,8,20)        =         2.108477	     120.806825
	 B(6,11,7)        =         2.090233	     119.761531
	 B(6,11,10)       =         2.097083	     120.153981
	 B(7,9,12)        =         2.164533	     124.018588
	 B(7,9,21)        =         2.108817	     120.826286
	 B(7,11,10)       =         2.095870	     120.084480
	 B(8,6,11)        =         2.057837	     117.905354
	 B(8,6,18)        =         2.097318	     120.167459
	 B(8,12,9)        =         2.030762	     116.354084
	 B(8,12,20)       =         0.496765	      28.462549
	 B(8,12,21)       =         2.526837	     144.777068
	 B(8,20,12)       =         0.635147	      36.391248
	 B(9,7,11)        =         2.057980	     117.913595
	 B(9,7,19)        =         2.099375	     120.285352
	 B(9,12,20)       =         2.527526	     144.816566
	 B(9,12,21)       =         0.496076	      28.423038
	 B(9,21,12)       =         0.635682	      36.421871
	 B(10,4,16)       =         2.109198	     120.848149
	 B(10,5,17)       =         2.108782	     120.824331
	 B(11,6,18)       =         2.128031	     121.927174
	 B(11,7,19)       =         2.125828	     121.801001
	 B(12,8,20)       =         2.009680	     115.146204
	 B(12,9,21)       =         2.009835	     115.155090
	 B(20,12,21)      =         3.023601	     173.239603
	 D(1,2,4,10)      =        -0.000325	      -0.018609
	 D(1,2,4,16)      =        -3.141283	    -179.982244
	 D(1,3,5,10)      =         0.000325	       0.018608
	 D(1,3,5,17)      =         3.141117	     179.972749
	 D(2,1,3,5)       =        -0.000348	      -0.019945
	 D(2,1,3,15)      =         3.139689	     179.890913
	 D(2,4,10,5)      =         0.000301	       0.017261
	 D(2,4,10,11)     =         3.141198	     179.977407
	 D(3,1,2,4)       =         0.000348	       0.019955
	 D(3,1,2,14)      =        -3.138767	    -179.838124
	 D(3,5,10,4)      =        -0.000301	      -0.017270
	 D(3,5,10,11)     =        -3.141198	    -179.977373
	 D(4,2,1,13)      =         3.139559	     179.883471
	 D(4,10,5,17)     =        -3.141080	    -179.970623
	 D(4,10,11,6)     =        -1.832444	    -104.991282
	 D(4,10,11,7)     =         1.308616	      74.978166
	 D(5,3,1,13)      =        -3.139558	    -179.883434
	 D(5,10,4,16)     =         3.141248	     179.980271
	 D(5,10,11,6)     =         1.308453	      74.968818
	 D(5,10,11,7)     =        -1.833673	    -105.061734
	 D(6,8,12,9)      =         0.000513	       0.029368
	 D(6,8,12,20)     =        -3.139305	    -179.868950
	 D(6,8,12,21)     =         0.001833	       0.105018
	 D(6,8,20,12)     =         3.139386	     179.873576
	 D(6,11,7,9)      =        -0.000148	      -0.008455
	 D(6,11,7,19)     =        -3.140292	    -179.925462
	 D(7,9,12,8)      =        -0.000407	      -0.023294
	 D(7,9,12,20)     =         0.001061	       0.060810
	 D(7,9,12,21)     =        -3.140399	    -179.931626
	 D(7,9,21,12)     =         3.140441	     179.934005
	 D(7,11,6,8)      =         0.000242	       0.013889
	 D(7,11,6,18)     =        -3.140636	    -179.945175
	 D(8,6,11,10)     =         3.141304	     179.983436
	 D(8,12,9,21)     =         3.139993	     179.908333
	 D(8,12,21,9)     =        -0.002486	      -0.142417
	 D(8,20,12,9)     =        -0.002760	      -0.158131
	 D(8,20,12,21)    =        -0.002226	      -0.127548
	 D(9,7,11,10)     =        -3.141209	    -179.978023
	 D(9,12,8,20)     =         3.139818	     179.898318
	 D(9,21,12,20)    =        -0.000646	      -0.037022
	 D(10,4,2,14)     =         3.138792	     179.839537
	 D(10,5,3,15)     =        -3.139713	    -179.892302
	 D(10,11,6,18)    =         0.000425	       0.024372
	 D(10,11,7,19)    =         0.001832	       0.104970
	 D(11,6,8,12)     =        -0.000443	      -0.025377
	 D(11,6,8,20)     =        -3.139625	    -179.887258
	 D(11,7,9,12)     =         0.000238	       0.013634
	 D(11,7,9,21)     =        -3.140097	    -179.914295
	 D(11,10,4,16)    =        -0.001040	      -0.059583
	 D(11,10,5,17)    =         0.001209	       0.069274
	 D(12,8,6,18)     =         3.140448	     179.934437
	 D(12,9,7,19)     =         3.140405	     179.931952
	 D(13,1,2,14)     =         0.000443	       0.025392
	 D(13,1,3,15)     =         0.000479	       0.027424
	 D(14,2,4,16)     =        -0.002166	      -0.124098
	 D(15,3,5,17)     =         0.001079	       0.061840
	 D(18,6,8,20)     =         0.001266	       0.072556
	 D(19,7,9,21)     =         0.000070	       0.004023
	 D(20,8,12,21)    =         3.141138	     179.973967
	 D(20,12,9,21)    =         3.141461	     179.992436

	Adding user-defined constraint: Fragment 1; Coordinate 71:
		Value =    -1.832444; Fixed value    =    -1.832596
		Force =    -0.000076; Force constant =     0.500000
	Removing off-diagonal coupling between coordinate 71 and others.
	Taking RFO optimization step.
	Going to follow RFO solution 1.
	Using RFO vector 1.

	Determining step-restricting scale parameter for RS-RFO.
	Maximum step size allowed    0.10000

	 Iter      |step|        alpha        rfo_root  
	------------------------------------------------
	    0     0.13978       1.00000           1
	    1     0.11454       2.79852           1
	    2     0.10368       4.43886           1
	    3     0.10038       5.18307           1
	    4     0.10000       5.27755           1
	------------------------------------------------
	Norm of target step-size    0.10000
	Projected energy change by RFO approximation:        -0.0033088454

	Back-transformation to cartesian coordinates...
	Could not converge backtransformation.
	Using first guess instead.

	--- Internal Coordinate Step in ANG or DEG, aJ/ANG or AJ/DEG ---
	 ---------------------------------------------------------------------------
	   Coordinate                Previous        Force       Change         New 
	   ----------                --------       ------       ------       ------
	    1 R(1,2)          =      1.394038    -0.048404    -0.004731     1.389307
	    2 R(1,3)          =      1.394891    -0.053979    -0.005332     1.389559
	    3 R(1,13)         =      1.086575    -0.042278    -0.005370     1.081205
	    4 R(2,4)          =      1.394821    -0.045345    -0.004371     1.390450
	    5 R(2,14)         =      1.086327    -0.039418    -0.005029     1.081297
	    6 R(3,5)          =      1.394821    -0.045295    -0.004374     1.390447
	    7 R(3,15)         =      1.085910    -0.037376    -0.004707     1.081204
	    8 R(4,10)         =      1.395407    -0.027125    -0.002495     1.392912
	    9 R(4,16)         =      1.087946    -0.046822    -0.005904     1.082042
	   10 R(5,10)         =      1.394521    -0.021960    -0.001799     1.392723
	   11 R(5,17)         =      1.087912    -0.046409    -0.005900     1.082012
	   12 R(6,8)          =      1.385628     0.009300     0.000893     1.386521
	   13 R(6,11)         =      1.389403    -0.012151    -0.000515     1.388888
	   14 R(6,18)         =      1.084958    -0.035499    -0.004470     1.080488
	   15 R(7,9)          =      1.385135     0.011061     0.001059     1.386194
	   16 R(7,11)         =      1.390351    -0.016649    -0.000599     1.389752
	   17 R(7,19)         =      1.085754    -0.039908    -0.005080     1.080674
	   18 R(8,12)         =      1.351649    -0.118851    -0.010550     1.341099
	   19 R(8,20)         =      1.085756    -0.026544    -0.003261     1.082495
	   20 R(9,12)         =      1.352429    -0.122032    -0.010879     1.341551
	   21 R(9,21)         =      1.084214    -0.018315    -0.002184     1.082030
	   22 R(10,11)        =      1.446852     0.151120     0.016940     1.463793
	   23 B(1,2,4)        =    120.009056     0.000030     0.043411   120.052467
	   24 B(1,2,14)       =    120.018942    -0.000010    -0.005897   120.013045
	   25 B(1,3,5)        =    119.959722     0.000039     0.061048   120.020770
	   26 B(1,3,15)       =    120.048965    -0.000016    -0.019943   120.029022
	   27 B(2,1,3)        =    120.031219    -0.000047    -0.180993   119.850226
	   28 B(2,1,13)       =    119.974480     0.000026     0.101333   120.075813
	   29 B(2,4,10)       =    119.994870     0.000156     0.417700   120.412570
	   30 B(2,4,16)       =    119.156970     0.000151     0.496259   119.653229
	   31 B(3,1,13)       =    119.994160     0.000021     0.079662   120.073822
	   32 B(3,5,10)       =    120.045019     0.000148     0.397775   120.442794
	   33 B(3,5,17)       =    119.130634     0.000153     0.495618   119.626252
	   34 B(4,2,14)       =    119.971849    -0.000020    -0.037605   119.934245
	   35 B(4,10,5)       =    119.960108    -0.000327    -0.740011   119.220097
	   36 B(4,10,11)      =    119.966144     0.000172     0.392667   120.358810
	   37 B(5,3,15)       =    119.991253    -0.000023    -0.041051   119.950202
	   38 B(5,10,11)      =    120.073736     0.000155     0.341311   120.415047
	   39 B(6,8,12)       =    124.046840    -0.000015    -0.125589   123.921252
	   40 B(6,8,20)       =    120.806825    -0.000049    -0.113626   120.693199
	   41 B(6,11,7)       =    119.761531    -0.000877    -1.850758   117.910773
	   42 B(6,11,10)      =    120.153981     0.000434     0.894006   121.047987
	   43 B(7,9,12)       =    124.018588    -0.000011    -0.131440   123.887148
	   44 B(7,9,21)       =    120.826286    -0.000047    -0.095700   120.730586
	   45 B(7,11,10)      =    120.084480     0.000443     0.951242   121.035723
	   46 B(8,6,11)       =    117.905354     0.000378     1.042254   118.947608
	   47 B(8,6,18)       =    120.167459     0.000005     0.057361   120.224820
	   48 B(8,12,9)       =    116.354084     0.000143     0.015065   116.369149
	   49 B(9,7,11)       =    117.913595     0.000382     1.049580   118.963175
	   50 B(9,7,19)       =    120.285352    -0.000013     0.003422   120.288774
	   51 B(10,4,16)      =    120.848149    -0.000307    -0.914530   119.933619
	   52 B(10,5,17)      =    120.824331    -0.000302    -0.893865   119.930466
	   53 B(11,6,18)      =    121.927174    -0.000383    -1.100033   120.827141
	   54 B(11,7,19)      =    121.801001    -0.000370    -1.053500   120.747500
	   55 B(12,8,20)      =    115.146204     0.000064     0.238522   115.384725
	   56 B(12,9,21)      =    115.155090     0.000059     0.227020   115.382111
	   57 D(1,2,4,10)     =     -0.018609     0.000001    -0.022338    -0.040947
	   58 D(1,2,4,16)     =   -179.982244    -0.000002    -0.336303  -180.318547
	   59 D(1,3,5,10)     =      0.018608     0.000002     0.219188     0.237796
	   60 D(1,3,5,17)     =    179.972749    -0.000001     0.010996   179.983746
	   61 D(2,1,3,5)      =     -0.019945    -0.000000     0.044771     0.024826
	   62 D(2,1,3,15)     =    179.890913    -0.000000     0.104934   179.995847
	   63 D(2,4,10,5)     =      0.017261     0.000001     0.282101     0.299363
	   64 D(2,4,10,11)    =    179.977407    -0.000002    -0.568733   179.408674
	   65 D(3,1,2,4)      =      0.019955    -0.000001    -0.142627    -0.122673
	   66 D(3,1,2,14)     =   -179.838124    -0.000003    -0.463893  -180.302017
	   67 D(3,5,10,4)     =     -0.017270    -0.000002    -0.380489    -0.397759
	   68 D(3,5,10,11)    =   -179.977373     0.000001     0.470815  -179.506557
	   69 D(4,2,1,13)     =    179.883471     0.000000     0.129095   180.012565
	   70 D(4,10,5,17)    =   -179.970623     0.000001    -0.172313  -180.142936
	   71 D(4,10,11,6)    =   -104.991282    -0.000012    -0.194229  -105.185511
	   72 D(4,10,11,7)    =     74.978166    -0.000015    -1.036050    73.942116
	   73 D(5,3,1,13)     =   -179.883434    -0.000002    -0.226975  -180.110409
	   74 D(5,10,4,16)    =    179.980271     0.000003     0.597470   180.577741
	   75 D(5,10,11,6)    =     74.968818    -0.000015    -1.055729    73.913089
	   76 D(5,10,11,7)    =   -105.061734    -0.000018    -1.897550  -106.959284
	   77 D(6,8,12,9)     =      0.029368    -0.000001    -0.059664    -0.030296
	   78 D(6,11,7,9)     =     -0.008455    -0.000001    -0.318784    -0.327239
	   79 D(6,11,7,19)    =   -179.925462     0.000001    -0.132405  -180.057867
	   80 D(7,9,12,8)     =     -0.023294     0.000000     0.069479     0.046185
	   81 D(7,11,6,8)     =      0.013889     0.000001     0.327736     0.341626
	   82 D(7,11,6,18)    =   -179.945175     0.000003     0.524998  -179.420177
	   83 D(8,6,11,10)    =    179.983436    -0.000002    -0.487693   179.495743
	   84 D(8,12,9,21)    =    179.908333    -0.000001    -0.005126   179.903207
	   85 D(9,7,11,10)    =   -179.978023     0.000001     0.496558  -179.481465
	   86 D(9,12,8,20)    =    179.898318    -0.000002    -0.257696   179.640622
	   87 D(10,4,2,14)    =    179.839537     0.000003     0.298718   180.138256
	   88 D(10,5,3,15)    =   -179.892302     0.000001     0.159054  -179.733248
	   89 D(10,11,6,18)   =      0.024372     0.000000    -0.290431    -0.266059
	   90 D(10,11,7,19)   =      0.104970     0.000003     0.682937     0.787907
	   91 D(11,6,8,12)    =     -0.025377    -0.000000    -0.142681    -0.168058
	   92 D(11,6,8,20)    =   -179.887258     0.000001     0.064944  -179.822314
	   93 D(11,7,9,12)    =      0.013634     0.000001     0.123129     0.136763
	   94 D(11,7,9,21)    =   -179.914295     0.000002     0.201337  -179.712958
	   95 D(11,10,4,16)   =     -0.059583     0.000001    -0.253365    -0.312948
	   96 D(11,10,5,17)   =      0.069274     0.000003     0.678991     0.748266
	   97 D(12,8,6,18)    =    179.934437    -0.000002    -0.339221   179.595217
	   98 D(12,9,7,19)    =    179.931952    -0.000001    -0.063292   179.868660
	   99 D(13,1,2,14)    =      0.025392    -0.000002    -0.192171    -0.166779
	  100 D(13,1,3,15)    =      0.027424    -0.000002    -0.166812    -0.139388
	  101 D(14,2,4,16)    =     -0.124098     0.000000    -0.015246    -0.139344
	  102 D(15,3,5,17)    =      0.061840    -0.000001    -0.049138     0.012702
	  103 D(18,6,8,20)    =      0.072556    -0.000001    -0.131596    -0.059040
	  104 D(19,7,9,21)    =      0.004023    -0.000000     0.014916     0.018938
	 ---------------------------------------------------------------------------
	Successfully symmetrized geometry.
	 Forces used to impose fixed constraints are not included.
	  Forces zeroed: 71 

  ==> Convergence Check <==

  Measures of convergence in internal coordinates in au.
  Criteria marked as inactive (o), active & met (*), and active & unmet ( ).
  --------------------------------------------------------------------------------------------- ~
   Step     Total Energy     Delta E     MAX Force     RMS Force      MAX Disp      RMS Disp    ~
  --------------------------------------------------------------------------------------------- ~
    Convergence Criteria    1.00e-06 *    3.00e-04 *             o    1.20e-03 *             o  ~
  --------------------------------------------------------------------------------------------- ~
      1    -478.57191764   -4.79e+02      1.83e-02      3.80e-03 o    3.31e-02      9.80e-03 o  ~
  ---------------------------------------------------------------------------------------------

	Writing optimization data to binary file.
	Structure for next step:
	Cartesian Geometry (in Angstrom)
	    C     0.1109371771   0.0585167523  -3.5423824402
	    C    -0.9673864998   0.6169631947  -2.8674531573
	    C     1.1469078693  -0.5279542941  -2.8256609831
	    C    -1.0106138686   0.5865611656  -1.4780075679
	    C     1.1030258599  -0.5556658708  -1.4361828133
	    C     0.7886185995   0.8232390150   1.4604616292
	    C    -0.8774835970  -0.8758213813   1.3914449837
	    C     0.7073686637   0.7752873007   2.8437693272
	    C    -0.8882147586  -0.8514300794   2.7773823542
	    C     0.0226176617  -0.0026552622  -0.7531209816
	    C    -0.0178472034  -0.0225712328   0.7099765989
	    N    -0.1133333719  -0.0440694691   3.5173050474
	    H     0.1450353725   0.0821272911  -4.6227919642
	    H    -1.7726163077   1.0783445719  -3.4223733567
	    H     1.9874552034  -0.9634764147  -3.3479652799
	    H    -1.8510426223   1.0280189894  -0.9587681404
	    H     1.9130436804  -1.0142044210  -0.8844910558
	    H     1.4674864728   1.5123197994   0.9790473868
	    H    -1.5258695771  -1.5523763637   0.8531835740
	    H     1.3207660128   1.4238050929   3.4561114489
	    H    -1.5427374922  -1.5066897750   3.3368681586
			--------------------------
			 OPTKING Finished Execution 
			--------------------------

    Structure for next step:
    Molecular point group: c1
    Full point group: C1

    Geometry (in Angstrom), charge = 0, multiplicity = 1:

    C            0.111125659356     0.060031646832    -3.542179597216
    C           -0.967198017517     0.618478089265    -2.867250314222
    C            1.147096351507    -0.526439399560    -2.825458140110
    C           -1.010425386381     0.588076060179    -1.477804724824
    C            1.103214342145    -0.554150976239    -1.435979970226
    C            0.788807081781     0.824753909514     1.460664472245
    C           -0.877295114797    -0.874306486711     1.391647826763
    C            0.707557145929     0.776802195209     2.843972170194
    C           -0.888026276383    -0.849915184874     2.777585197280
    C            0.022806143977    -0.001140367675    -0.752918138552
    C           -0.017658721109    -0.021056338213     0.710179441924
    N           -0.113144889662    -0.042554574561     3.517507890458
    H            0.145223854749     0.083642185693    -4.622589121154
    H           -1.772427825447     1.079859466407    -3.422170513642
    H            1.987643685645    -0.961961520185    -3.347762436876
    H           -1.850854140062     1.029533883968    -0.958565297341
    H            1.913232162661    -1.012689526446    -0.884288212773
    H            1.467674955074     1.513834693987     0.979250229803
    H           -1.525681094833    -1.550861469163     0.853386416994
    H            1.320954495039     1.425319987493     3.456314291910
    H           -1.542549010006    -1.505174880488     3.337071001614

gradient() will perform analytic gradient computation.

*** tstart() called on gpu-2-8.local
*** at Mon Nov 13 23:24:59 2017

    SCF Algorithm Type (re)set to DF.

*** tstart() called on gpu-2-8.local
*** at Mon Nov 13 23:24:59 2017

   => Loading Basis Set <=

    Name: AUG-CC-PVTZ
    Role: ORBITAL
    Keyword: BASIS
    atoms 1-11  entry C          line   221 file /cbio/jclab/home/chayas/anaconda/envs/py35/share/psi4/basis/aug-cc-pvtz.gbs 
    atoms 12    entry N          line   267 file /cbio/jclab/home/chayas/anaconda/envs/py35/share/psi4/basis/aug-cc-pvtz.gbs 
    atoms 13-21 entry H          line    34 file /cbio/jclab/home/chayas/anaconda/envs/py35/share/psi4/basis/aug-cc-pvtz.gbs 


         ---------------------------------------------------------
                                   SCF
            by Justin Turney, Rob Parrish, and Andy Simmonett
                              RHF Reference
                        8 Threads,   4768 MiB Core
         ---------------------------------------------------------

  ==> Geometry <==

    Molecular point group: c1
    Full point group: C1

    Geometry (in Angstrom), charge = 0, multiplicity = 1:

       Center              X                  Y                   Z               Mass       
    ------------   -----------------  -----------------  -----------------  -----------------
           C          0.111125659356     0.060031646832    -3.542179597216    12.000000000000
           C         -0.967198017517     0.618478089265    -2.867250314222    12.000000000000
           C          1.147096351507    -0.526439399560    -2.825458140110    12.000000000000
           C         -1.010425386381     0.588076060179    -1.477804724824    12.000000000000
           C          1.103214342145    -0.554150976239    -1.435979970226    12.000000000000
           C          0.788807081781     0.824753909514     1.460664472245    12.000000000000
           C         -0.877295114797    -0.874306486711     1.391647826763    12.000000000000
           C          0.707557145929     0.776802195209     2.843972170194    12.000000000000
           C         -0.888026276383    -0.849915184874     2.777585197280    12.000000000000
           C          0.022806143977    -0.001140367675    -0.752918138552    12.000000000000
           C         -0.017658721109    -0.021056338213     0.710179441924    12.000000000000
           N         -0.113144889662    -0.042554574561     3.517507890458    14.003074004780
           H          0.145223854749     0.083642185693    -4.622589121154     1.007825032070
           H         -1.772427825447     1.079859466407    -3.422170513642     1.007825032070
           H          1.987643685645    -0.961961520185    -3.347762436876     1.007825032070
           H         -1.850854140062     1.029533883968    -0.958565297341     1.007825032070
           H          1.913232162661    -1.012689526446    -0.884288212773     1.007825032070
           H          1.467674955074     1.513834693987     0.979250229803     1.007825032070
           H         -1.525681094833    -1.550861469163     0.853386416994     1.007825032070
           H          1.320954495039     1.425319987493     3.456314291910     1.007825032070
           H         -1.542549010006    -1.505174880488     3.337071001614     1.007825032070

  Running in c1 symmetry.

  Rotational constants: A =      0.09874  B =      0.01766  C =      0.01683 [cm^-1]
  Rotational constants: A =   2960.20344  B =    529.43043  C =    504.42871 [MHz]
  Nuclear repulsion =  605.347800384007314

  Charge       = 0
  Multiplicity = 1
  Electrons    = 82
  Nalpha       = 41
  Nbeta        = 41

  ==> Algorithm <==

  SCF Algorithm Type is DF.
  DIIS enabled.
  MOM disabled.
  Fractional occupation disabled.
  Guess Type is READ.
  Energy threshold   = 1.00e-10
  Density threshold  = 1.00e-10
  Integral threshold = 0.00e+00

  ==> Primary Basis <==

  Basis Set: AUG-CC-PVTZ
    Blend: AUG-CC-PVTZ
    Number of shells: 249
    Number of basis function: 759
    Number of Cartesian functions: 885
    Spherical Harmonics?: true
    Max angular momentum: 3

   => Loading Basis Set <=

    Name: (AUG-CC-PVTZ AUX)
    Role: JKFIT
    Keyword: DF_BASIS_SCF
    atoms 1-11  entry C          line   161 file /cbio/jclab/home/chayas/anaconda/envs/py35/share/psi4/basis/aug-cc-pvtz-jkfit.gbs 
    atoms 12    entry N          line   223 file /cbio/jclab/home/chayas/anaconda/envs/py35/share/psi4/basis/aug-cc-pvtz-jkfit.gbs 
    atoms 13-21 entry H          line    69 file /cbio/jclab/home/chayas/anaconda/envs/py35/share/psi4/basis/aug-cc-pvtz-jkfit.gbs 

  Reading orbitals from file 180, no projection.

  ==> Pre-Iterations <==

   -------------------------------------------------------
    Irrep   Nso     Nmo     Nalpha   Nbeta   Ndocc  Nsocc
   -------------------------------------------------------
     A        759     759       0       0       0       0
   -------------------------------------------------------
    Total     759     759      41      41      41       0
   -------------------------------------------------------

  ==> Integral Setup <==

  ==> DFJK: Density-Fitted J/K Matrices <==

    J tasked:                  Yes
    K tasked:                  Yes
    wK tasked:                  No
    OpenMP threads:              8
    Integrals threads:           8
    Memory (MB):              3576
    Algorithm:                Core
    Integral Cache:           NONE
    Schwarz Cutoff:          1E-12
    Fitting Condition:       1E-12

   => Auxiliary Basis Set <=

  Basis Set: (AUG-CC-PVTZ AUX)
    Blend: AUG-CC-PVTZ-JKFIT
    Number of shells: 486
    Number of basis function: 1662
    Number of Cartesian functions: 2067
    Spherical Harmonics?: true
    Max angular momentum: 4

  Minimum eigenvalue in the overlap matrix is 4.5713555693E-07.
  Using Symmetric Orthogonalization.

  SCF Guess: Orbitals guess was supplied from a previous computation.

  ==> Iterations <==

                           Total Energy        Delta E     RMS |[F,P]|

   @DF-RHF iter   0:  -476.51946794134210   -4.76519e+02   4.74280e-04 
   @DF-RHF iter   1:  -476.39810799594221    1.21360e-01   1.42305e-04 
   @DF-RHF iter   2:  -476.39884764474544   -7.39649e-04   1.01454e-04 DIIS
   @DF-RHF iter   3:  -476.39939622733107   -5.48583e-04   1.34846e-05 DIIS
   @DF-RHF iter   4:  -476.39940847678696   -1.22495e-05   5.76800e-06 DIIS
   @DF-RHF iter   5:  -476.39941147103707   -2.99425e-06   1.90193e-06 DIIS
   @DF-RHF iter   6:  -476.39941197230871   -5.01272e-07   7.33208e-07 DIIS
   @DF-RHF iter   7:  -476.39941214263268   -1.70324e-07   3.76034e-07 DIIS
   @DF-RHF iter   8:  -476.39941218431056   -4.16779e-08   1.56267e-07 DIIS
   @DF-RHF iter   9:  -476.39941219061484   -6.30428e-09   5.61234e-08 DIIS
   @DF-RHF iter  10:  -476.39941219128059   -6.65750e-10   1.94819e-08 DIIS
   @DF-RHF iter  11:  -476.39941219137035   -8.97558e-11   5.24667e-09 DIIS
   @DF-RHF iter  12:  -476.39941219134448    2.58638e-11   2.39190e-09 DIIS
   @DF-RHF iter  13:  -476.39941219137404   -2.95586e-11   1.27133e-09 DIIS
   @DF-RHF iter  14:  -476.39941219138518   -1.11413e-11   5.14688e-10 DIIS
   @DF-RHF iter  15:  -476.39941219136711    1.80762e-11   2.00011e-10 DIIS
   @DF-RHF iter  16:  -476.39941219135829    8.81073e-12   8.74075e-11 DIIS

  ==> Post-Iterations <==

    Orbital Energies (a.u.)
    -----------------------

    Doubly Occupied:                                                      

       1A    -15.564383     2A    -11.273689     3A    -11.273625  
       4A    -11.264327     5A    -11.251733     6A    -11.243697  
       7A    -11.243591     8A    -11.242500     9A    -11.242323  
      10A    -11.240716    11A    -11.238145    12A    -11.238104  
      13A     -1.256679    14A     -1.173819    15A     -1.107642  
      16A     -1.034948    17A     -1.025419    18A     -1.018422  
      19A     -0.879983    20A     -0.859669    21A     -0.836868  
      22A     -0.807245    23A     -0.730720    24A     -0.687710  
      25A     -0.669329    26A     -0.654923    27A     -0.637951  
      28A     -0.633715    29A     -0.597943    30A     -0.596271  
      31A     -0.581969    32A     -0.540732    33A     -0.526830  
      34A     -0.507195    35A     -0.506844    36A     -0.502842  
      37A     -0.419327    38A     -0.382568    39A     -0.352489  
      40A     -0.343737    41A     -0.340461  

    Virtual:                                                              

      42A      0.025176    43A      0.032053    44A      0.032628  
      45A      0.035923    46A      0.043283    47A      0.048220  
      48A      0.050576    49A      0.052719    50A      0.060308  
      51A      0.084513    52A      0.086722    53A      0.092699  
      54A      0.092884    55A      0.094189    56A      0.098158  
      57A      0.101365    58A      0.103980    59A      0.108308  
      60A      0.111809    61A      0.114154    62A      0.115647  
      63A      0.118616    64A      0.122789    65A      0.126356  
      66A      0.127459    67A      0.128273    68A      0.131192  
      69A      0.138387    70A      0.140768    71A      0.141813  
      72A      0.144200    73A      0.144333    74A      0.148942  
      75A      0.156422    76A      0.157128    77A      0.159407  
      78A      0.171229    79A      0.174250    80A      0.175855  
      81A      0.190133    82A      0.192272    83A      0.196507  
      84A      0.203549    85A      0.212054    86A      0.227533  
      87A      0.228580    88A      0.234488    89A      0.238362  
      90A      0.244167    91A      0.244870    92A      0.246987  
      93A      0.253222    94A      0.256281    95A      0.261808  
      96A      0.264324    97A      0.264631    98A      0.270549  
      99A      0.272419   100A      0.276475   101A      0.278410  
     102A      0.291227   103A      0.293549   104A      0.297475  
     105A      0.304650   106A      0.307478   107A      0.308822  
     108A      0.314286   109A      0.314619   110A      0.318714  
     111A      0.320995   112A      0.327230   113A      0.328424  
     114A      0.330211   115A      0.342421   116A      0.344775  
     117A      0.352889   118A      0.354694   119A      0.358665  
     120A      0.360542   121A      0.361058   122A      0.375473  
     123A      0.382177   124A      0.392524   125A      0.399262  
     126A      0.400486   127A      0.403418   128A      0.413189  
     129A      0.416189   130A      0.419007   131A      0.420734  
     132A      0.427216   133A      0.435908   134A      0.439133  
     135A      0.442174   136A      0.447283   137A      0.449683  
     138A      0.451032   139A      0.456068   140A      0.462523  
     141A      0.463850   142A      0.469712   143A      0.476165  
     144A      0.477357   145A      0.479362   146A      0.483873  
     147A      0.485004   148A      0.488883   149A      0.491302  
     150A      0.492515   151A      0.495567   152A      0.500254  
     153A      0.505845   154A      0.509862   155A      0.512790  
     156A      0.518344   157A      0.521897   158A      0.523990  
     159A      0.526024   160A      0.530543   161A      0.539987  
     162A      0.540063   163A      0.541668   164A      0.543220  
     165A      0.548813   166A      0.552926   167A      0.560320  
     168A      0.561711   169A      0.568799   170A      0.570820  
[...]
	 R(5,17)          =         2.040807	       1.079949
	 R(6,8)           =         2.620446	       1.386680
	 R(6,11)          =         2.626710	       1.389995
	 R(6,18)          =         2.040304	       1.079682
	 R(7,9)           =         2.620350	       1.386630
	 R(7,11)          =         2.626442	       1.389853
	 R(7,19)          =         2.040425	       1.079746
	 R(8,12)          =         2.522423	       1.334809
	 R(8,20)          =         2.042909	       1.081061
	 R(9,12)          =         2.522453	       1.334825
	 R(9,21)          =         2.042880	       1.081045
	 R(10,11)         =         2.775425	       1.468692
	 B(1,2,4)         =         2.095572	     120.067456
	 B(1,2,14)        =         2.095862	     120.084059
	 B(1,3,5)         =         2.095297	     120.051685
	 B(1,3,15)        =         2.095881	     120.085141
	 B(2,1,3)         =         2.092065	     119.866470
	 B(2,1,13)        =         2.095444	     120.060098
	 B(2,4,10)        =         2.101171	     120.388244
	 B(2,4,16)        =         2.100293	     120.337920
	 B(3,1,13)        =         2.095676	     120.073389
	 B(3,5,10)        =         2.101451	     120.404284
	 B(3,5,17)        =         2.099978	     120.319883
	 B(4,2,14)        =         2.091741	     119.847932
	 B(4,10,5)        =         2.080711	     119.215977
	 B(4,10,11)       =         2.098234	     120.219955
	 B(5,3,15)        =         2.092007	     119.863159
	 B(5,10,11)       =         2.103509	     120.522212
	 B(6,8,12)        =         2.157413	     123.610669
	 B(6,8,20)        =         2.096895	     120.143207
	 B(6,11,7)        =         2.046630	     117.263269
	 B(6,11,10)       =         2.115818	     121.227446
	 B(7,9,12)        =         2.157339	     123.606401
	 B(7,9,21)        =         2.097076	     120.153596
	 B(7,11,10)       =         2.120019	     121.468143
	 B(8,6,11)        =         2.082476	     119.317079
	 B(8,6,18)        =         2.101958	     120.433334
	 B(8,12,9)        =         2.039763	     116.869786
	 B(9,7,11)        =         2.082656	     119.327427
	 B(9,7,19)        =         2.101768	     120.422411
	 B(10,4,16)       =         2.081721	     119.273835
	 B(10,5,17)       =         2.081736	     119.274661
	 B(11,6,18)       =         2.098750	     120.249543
	 B(11,7,19)       =         2.098740	     120.248928
	 B(12,8,20)       =         2.028842	     116.244110
	 B(12,9,21)       =         2.028763	     116.239549
	 D(1,2,4,10)      =        -0.006146	      -0.352145
	 D(1,2,4,16)      =         3.135166	     179.631753
	 D(1,3,5,10)      =         0.006507	       0.372846
	 D(1,3,5,17)      =         3.141177	     179.976199
	 D(2,1,3,5)       =         0.002543	       0.145706
	 D(2,1,3,15)      =        -3.139842	    -179.899703
	 D(2,4,10,5)      =         0.015022	       0.860707
	 D(2,4,10,11)     =         3.115765	     178.520169
	 D(3,1,2,4)       =        -0.002722	      -0.155982
	 D(3,1,2,14)      =         3.134145	     179.573281
	 D(3,5,10,4)      =        -0.015204	      -0.871138
	 D(3,5,10,11)     =        -3.115820	    -178.523350
	 D(4,2,1,13)      =         3.140182	     179.919187
	 D(4,10,5,17)     =         3.133239	     179.521387
	 D(4,10,11,6)     =        -1.836672	    -105.233564
	 D(4,10,11,7)     =         1.263085	      72.369425
	 D(5,3,1,13)      =        -3.140362	    -179.929473
	 D(5,10,4,16)     =        -3.126292	    -179.123362
	 D(5,10,11,6)     =         1.263532	      72.395033
	 D(5,10,11,7)     =        -1.919897	    -110.001978
	 D(6,8,12,9)      =        -0.000237	      -0.013585
	 D(6,11,7,9)      =        -0.013091	      -0.750080
	 D(6,11,7,19)     =         3.135523	     179.652208
	 D(7,9,12,8)      =         0.002410	       0.138111
	 D(7,11,6,8)      =         0.015080	       0.863995
	 D(7,11,6,18)     =        -3.125194	    -179.060436
	 D(8,6,11,10)     =         3.116531	     178.564062
	 D(8,12,9,21)     =         3.139723	     179.892890
	 D(9,7,11,10)     =        -3.114440	    -178.444251
	 D(9,12,8,20)     =         3.132334	     179.469495
	 D(10,4,2,14)     =         3.140161	     179.917951
	 D(10,5,3,15)     =        -3.134295	    -179.581847
	 D(10,11,6,18)    =        -0.023743	      -1.360369
	 D(10,11,7,19)    =         0.034174	       1.958038
	 D(11,6,8,12)     =        -0.008788	      -0.503506
	 D(11,6,8,20)     =        -3.141023	    -179.967371
	 D(11,7,9,12)     =         0.004498	       0.257733
	 D(11,7,9,21)     =        -3.132655	    -179.487894
	 D(11,10,4,16)    =        -0.025550	      -1.463899
	 D(11,10,5,17)    =         0.032623	       1.869175
	 D(12,8,6,18)     =         3.131483	     179.420782
	 D(12,9,7,19)     =         3.139057	     179.854732
	 D(13,1,2,14)     =        -0.006136	      -0.351551
	 D(13,1,3,15)     =         0.000438	       0.025118
	 D(14,2,4,16)     =        -0.001713	      -0.098151
	 D(15,3,5,17)     =         0.000375	       0.021506
	 D(18,6,8,20)     =        -0.000752	      -0.043082
	 D(19,7,9,21)     =         0.001904	       0.109104

	Current energy   :      -478.5741792473

	Energy change for the previous step:
		Projected    :        -0.0000075159
		Actual       :        -0.0000000138

	Performing BFGS update.
	Previous computed or guess Hessian on step 1.
	Denominators (dg)(dq) or (dq)(dq) are very small.
	 Skipping Hessian update for step 6.
	Steps to be used in Hessian update: 5 4
	Adding user-defined constraint: Fragment 1; Coordinate 71:
		Value =    -1.836672; Fixed value    =    -1.832596
		Force =     0.002650; Force constant =     0.650000
	Removing off-diagonal coupling between coordinate 71 and others.
	Taking RFO optimization step.
	Going to follow RFO solution 1.
	Using RFO vector 1.
	Norm of target step-size    0.01537
	Projected energy change by RFO approximation:        -0.0000183036

	Back-transformation to cartesian coordinates...
	Could not converge backtransformation.
	Using first guess instead.

	--- Internal Coordinate Step in ANG or DEG, aJ/ANG or AJ/DEG ---
	 ---------------------------------------------------------------------------
	   Coordinate                Previous        Force       Change         New 
	   ----------                --------       ------       ------       ------
	    1 R(1,2)          =      1.388295     0.000002    -0.000008     1.388287
	    2 R(1,3)          =      1.388324    -0.000319    -0.000060     1.388264
	    3 R(1,13)         =      1.079034     0.000068    -0.000014     1.079021
	    4 R(2,4)          =      1.387587     0.000455     0.000076     1.387663
	    5 R(2,14)         =      1.079350    -0.000031    -0.000015     1.079335
	    6 R(3,5)          =      1.387607     0.000528     0.000087     1.387695
	    7 R(3,15)         =      1.079311     0.000268     0.000032     1.079343
	    8 R(4,10)         =      1.392751     0.000169    -0.000098     1.392653
	    9 R(4,16)         =      1.079912    -0.000011     0.000031     1.079944
	   10 R(5,10)         =      1.392669     0.000050    -0.000007     1.392661
	   11 R(5,17)         =      1.079949    -0.000191    -0.000033     1.079916
	   12 R(6,8)          =      1.386680     0.000488    -0.000041     1.386639
	   13 R(6,11)         =      1.389995    -0.000142    -0.000120     1.389875
	   14 R(6,18)         =      1.079682    -0.000272    -0.000043     1.079639
	   15 R(7,9)          =      1.386630     0.000842    -0.000045     1.386584
	   16 R(7,11)         =      1.389853     0.000290     0.000089     1.389942
	   17 R(7,19)         =      1.079746    -0.000489    -0.000100     1.079647
	   18 R(8,12)         =      1.334809     0.000971     0.000267     1.335075
	   19 R(8,20)         =      1.081061     0.000083     0.000022     1.081083
	   20 R(9,12)         =      1.334825     0.000432     0.000260     1.335085
	   21 R(9,21)         =      1.081045     0.000167     0.000068     1.081114
	   22 R(10,11)        =      1.468692     0.000215     0.000148     1.468840
	   23 B(1,2,4)        =    120.067456    -0.000001    -0.000897   120.066560
	   24 B(1,2,14)       =    120.084059    -0.000002    -0.001364   120.082696
	   25 B(1,3,5)        =    120.051685    -0.000002    -0.004012   120.047673
	   26 B(1,3,15)       =    120.085141    -0.000002    -0.000559   120.084581
	   27 B(2,1,3)        =    119.866470     0.000001    -0.005886   119.860584
	   28 B(2,1,13)       =    120.060098    -0.000000     0.005415   120.065513
	   29 B(2,4,10)       =    120.388244     0.000003     0.017002   120.405246
	   30 B(2,4,16)       =    120.337920    -0.000003    -0.047302   120.290617
	   31 B(3,1,13)       =    120.073389    -0.000001     0.000093   120.073482
	   32 B(3,5,10)       =    120.404284     0.000004     0.017873   120.422157
	   33 B(3,5,17)       =    120.319883    -0.000004    -0.051808   120.268075
	   34 B(4,2,14)       =    119.847932     0.000003     0.001721   119.849653
	   35 B(4,10,5)       =    119.215977    -0.000005    -0.024225   119.191751
	   36 B(4,10,11)      =    120.219955     0.000004     0.034549   120.254504
	   37 B(5,3,15)       =    119.863159     0.000003     0.004574   119.867733
	   38 B(5,10,11)      =    120.522212     0.000001    -0.010686   120.511526
	   39 B(6,8,12)       =    123.610669     0.000005     0.020619   123.631288
	   40 B(6,8,20)       =    120.143207     0.000003     0.047716   120.190922
	   41 B(6,11,7)       =    117.263269     0.000000    -0.006735   117.256534
	   42 B(6,11,10)      =    121.227446     0.000000     0.016608   121.244054
	   43 B(7,9,12)       =    123.606401     0.000003     0.012746   123.619147
	   44 B(7,9,21)       =    120.153596     0.000003     0.056382   120.209978
	   45 B(7,11,10)      =    121.468143    -0.000000    -0.009301   121.458843
	   46 B(8,6,11)       =    119.317079    -0.000000     0.004570   119.321649
	   47 B(8,6,18)       =    120.433334    -0.000000    -0.020029   120.413305
	   48 B(8,12,9)       =    116.869786    -0.000008    -0.037442   116.832344
	   49 B(9,7,11)       =    119.327427     0.000000     0.006364   119.333791
	   50 B(9,7,19)       =    120.422411    -0.000002    -0.019480   120.402930
	   51 B(10,4,16)      =    119.273835     0.000000     0.029454   119.303289
	   52 B(10,5,17)      =    119.274661     0.000001     0.032595   119.307255
	   53 B(11,6,18)      =    120.249543     0.000001     0.015182   120.264725
	   54 B(11,7,19)      =    120.248928     0.000001     0.012333   120.261261
	   55 B(12,8,20)      =    116.244110    -0.000008    -0.067005   116.177105
	   56 B(12,9,21)      =    116.239549    -0.000006    -0.068681   116.170869
	   57 D(1,2,4,10)     =     -0.352145     0.000001     0.155826    -0.196319
	   58 D(1,2,4,16)     =    179.631753    -0.000000    -0.165267   179.466487
	   59 D(1,3,5,10)     =      0.372846     0.000001     0.143001     0.515848
	   60 D(1,3,5,17)     =    179.976199    -0.000000    -0.040979   179.935221
	   61 D(2,1,3,5)      =      0.145706    -0.000000    -0.072607     0.073098
	   62 D(2,1,3,15)     =   -179.899703     0.000000     0.013146  -179.886557
	   63 D(2,4,10,5)     =      0.860707    -0.000001    -0.085886     0.774821
	   64 D(2,4,10,11)    =    178.520169     0.000000    -0.096251   178.423918
	   65 D(3,1,2,4)      =     -0.155982    -0.000000    -0.076149    -0.232131
	   66 D(3,1,2,14)     =    179.573281    -0.000001    -0.186035   179.387245
	   67 D(3,5,10,4)     =     -0.871138     0.000000    -0.063457    -0.934595
	   68 D(3,5,10,11)    =   -178.523350    -0.000001    -0.054148  -178.577497
	   69 D(4,2,1,13)     =    179.919187     0.000000     0.084574   180.003761
	   70 D(4,10,5,17)    =    179.521387     0.000001     0.119098   179.640485
	   71 D(4,10,11,6)    =   -105.233564    -0.000002     0.068894  -105.164670
	   72 D(4,10,11,7)    =     72.369425    -0.000001     0.085464    72.454889
	   73 D(5,3,1,13)     =   -179.929473    -0.000001    -0.233339  -180.162813
	   74 D(5,10,4,16)    =   -179.123362     0.000001     0.232066  -178.891296
	   75 D(5,10,11,6)    =     72.395033    -0.000001     0.058090    72.453123
	   76 D(5,10,11,7)    =   -110.001978    -0.000000     0.074661  -109.927317
	   77 D(6,8,12,9)     =     -0.013585    -0.000001    -0.083532    -0.097117
	   78 D(6,11,7,9)     =     -0.750080    -0.000000    -0.075357    -0.825438
	   79 D(6,11,7,19)    =    179.652208     0.000000     0.036888   179.689096
	   80 D(7,9,12,8)     =      0.138111    -0.000001    -0.077050     0.061061
	   81 D(7,11,6,8)     =      0.863995    -0.000001    -0.071656     0.792340
	   82 D(7,11,6,18)    =   -179.060436    -0.000000     0.057812  -179.002623
	   83 D(8,6,11,10)    =    178.564062    -0.000000    -0.055846   178.508216
	   84 D(8,12,9,21)    =    179.892890     0.000001     0.197537   180.090427
	   85 D(9,7,11,10)    =   -178.444251    -0.000001    -0.091838  -178.536088
	   86 D(9,12,8,20)    =    179.469495     0.000001     0.132026   179.601521
	   87 D(10,4,2,14)    =    179.917951     0.000001     0.265463   180.183413
	   88 D(10,5,3,15)    =   -179.581847     0.000000     0.057438  -179.524409
	   89 D(10,11,6,18)   =     -1.360369     0.000001     0.073622    -1.286747
	   90 D(10,11,7,19)   =      1.958038    -0.000001     0.020408     1.978445
	   91 D(11,6,8,12)    =     -0.503506     0.000001     0.159203    -0.344304
	   92 D(11,6,8,20)    =   -179.967371    -0.000001    -0.064038  -180.031408
	   93 D(11,7,9,12)    =      0.257733     0.000001     0.157776     0.415509
	   94 D(11,7,9,21)    =   -179.487894    -0.000001    -0.127095  -179.614989
	   95 D(11,10,4,16)   =     -1.463899     0.000001     0.221701    -1.242199
	   96 D(11,10,5,17)   =      1.869175    -0.000000     0.128408     1.997583
	   97 D(12,8,6,18)    =    179.420782     0.000001     0.029565   179.450348
	   98 D(12,9,7,19)    =    179.854732     0.000001     0.045498   179.900230
	   99 D(13,1,2,14)    =     -0.351551    -0.000000    -0.025312    -0.376863
	  100 D(13,1,3,15)    =      0.025118    -0.000001    -0.147586    -0.122468
	  101 D(14,2,4,16)    =     -0.098151    -0.000000    -0.055630    -0.153781
	  102 D(15,3,5,17)    =      0.021506    -0.000001    -0.126543    -0.105036
	  103 D(18,6,8,20)    =     -0.043082    -0.000001    -0.193675    -0.236757
	  104 D(19,7,9,21)    =      0.109104    -0.000002    -0.239372    -0.130268
	 ---------------------------------------------------------------------------
	Successfully symmetrized geometry.
	 Forces used to impose fixed constraints are not included.
	  Forces zeroed: 71 

  ==> Convergence Check <==

  Measures of convergence in internal coordinates in au.
  Criteria marked as inactive (o), active & met (*), and active & unmet ( ).
  ---------------------------------------------------------------------------------------------
   Step     Total Energy     Delta E     MAX Force     RMS Force      MAX Disp      RMS Disp   
  ---------------------------------------------------------------------------------------------
    Convergence Criteria    1.00e-06 *    3.00e-04 *             o    1.20e-03 *             o
  ---------------------------------------------------------------------------------------------
      7    -478.57417925   -1.38e-08 *    1.18e-04 *    4.48e-05 o    4.63e-03      1.51e-03 o  ~
  ---------------------------------------------------------------------------------------------


  **** Optimization is complete! (in 7 steps) ****

  ==> Optimization Summary <==

  Measures of convergence in internal coordinates in au.
  --------------------------------------------------------------------------------------------------------------- ~
   Step         Total Energy             Delta E       MAX Force       RMS Force        MAX Disp        RMS Disp  ~
  --------------------------------------------------------------------------------------------------------------- ~
      1    -478.571917638208   -478.571917638208      0.01834265      0.00380324      0.03311850      0.00980276  ~
      2    -478.573909786898     -0.001992148689      0.00501534      0.00112514      0.05369920      0.00951599  ~
      3    -478.574165377629     -0.000255590731      0.00076268      0.00023166      0.01759359      0.00589122  ~
      4    -478.574162097540      0.000003280089      0.00038763      0.00014906      0.01270423      0.00392679  ~
      5    -478.574176182577     -0.000014085037      0.00037223      0.00007926      0.00469524      0.00148911  ~
      6    -478.574179233450     -0.000003050873      0.00016392      0.00004907      0.00439607      0.00143522  ~
      7    -478.574179247263     -0.000000013812      0.00012127      0.00004634      0.00463320      0.00150738  ~
  --------------------------------------------------------------------------------------------------------------- ~

	Writing optimization data to binary file.
	Final energy is   -478.5741792472626
	Final (previous) structure:
	Cartesian Geometry (in Angstrom)
	    C     0.1145215297   0.0752189636  -3.5431776464
	    C    -0.9708787210   0.6108944978  -2.8632354893
	    C     1.1576851297  -0.5038911791  -2.8333289571
	    C    -1.0145612211   0.5646961156  -1.4771058501
	    C     1.1137965096  -0.5497402698  -1.4471739722
	    C     0.7979497357   0.8031281624   1.4596855752
	    C    -0.8869749424  -0.8677047148   1.4045149178
	    C     0.7116869860   0.7740819336   2.8433751468
	    C    -0.9047263858  -0.8254284156   2.7903862351
	    C     0.0232534894  -0.0240833917  -0.7587503049
	    C    -0.0111951410  -0.0421418605   0.7094261940
	    N    -0.1221778250  -0.0228628910   3.5151364278
	    H     0.1477567608   0.1100433451  -4.6211377474
	    H    -1.7805732476   1.0681125848  -3.4112704913
	    H     2.0039847429  -0.9199628084  -3.3582801499
	    H    -1.8539316724   0.9853323283  -0.9435023966
	    H     1.9226817866  -0.9995291420  -0.8906816942
	    H     1.4851297117   1.4756587645   0.9685644454
	    H    -1.5416337122  -1.5393476240   0.8695666366
	    H     1.3343446842   1.4260955679   3.4399223660
	    H    -1.5746970190  -1.4676957480   3.3447248447
	Saving final (previous) structure.
			--------------------------
			 OPTKING Finished Execution 
			--------------------------

    Final optimized geometry and variables:
    Molecular point group: c1
    Full point group: C1

    Geometry (in Angstrom), charge = 0, multiplicity = 1:

    C            0.114521529690     0.075218963645    -3.543177646419
    C           -0.970878721027     0.610894497775    -2.863235489289
    C            1.157685129738    -0.503891179141    -2.833328957100
    C           -1.014561221092     0.564696115628    -1.477105850134
    C            1.113796509551    -0.549740269817    -1.447173972239
    C            0.797949735712     0.803128162373     1.459685575246
    C           -0.886974942434    -0.867704714765     1.404514917793
    C            0.711686985983     0.774081933621     2.843375146801
    C           -0.904726385805    -0.825428415645     2.790386235119
    C            0.023253489430    -0.024083391737    -0.758750304874
    C           -0.011195140964    -0.042141860470     0.709426193986
    N           -0.122177825024    -0.022862891003     3.515136427752
    H            0.147756760842     0.110043345058    -4.621137747392
    H           -1.780573247642     1.068112584847    -3.411270491306
    H            2.003984742909    -0.919962808429    -3.358280149922
    H           -1.853931672369     0.985332328255    -0.943502396636
    H            1.922681786599    -0.999529142024    -0.890681694241
    H            1.485129711737     1.475658764537     0.968564445380
    H           -1.541633712172    -1.539347623954     0.869566636603
    H            1.334344684201     1.426095567919     3.439922366014
    H           -1.574697018956    -1.467695747967     3.344724844707

	Cleaning optimization helper files.

*** Psi4 exiting successfully. Buy a developer a beer!
