
    -----------------------------------------------------------------------
          Psi4: An Open-Source Ab Initio Electronic Structure Package
                               Psi4 1.1 release

                         Git: Rev {HEAD} add49b9 


    R. M. Parrish, L. A. Burns, D. G. A. Smith, A. C. Simmonett,
    A. E. DePrince III, E. G. Hohenstein, U. Bozkaya, A. Yu. Sokolov,
    R. Di Remigio, R. M. Richard, J. F. Gonthier, A. M. James,
    H. R. McAlexander, A. Kumar, M. Saitow, X. Wang, B. P. Pritchard,
    P. Verma, H. F. Schaefer III, K. Patkowski, R. A. King, E. F. Valeev,
    F. A. Evangelista, J. M. Turney, T. D. Crawford, and C. D. Sherrill,
    J. Chem. Theory Comput. in press (2017).
    (doi: 10.1021/acs.jctc.7b00174)

    -----------------------------------------------------------------------


    Psi4 started on: Saturday, 11 November 2017 06:16PM

    Process ID:  26494
    PSIDATADIR: /cbio/jclab/home/chayas/anaconda/envs/py35/share/psi4
    Memory:     500.0 MiB
    Threads:    8
    
  ==> Input File <==

--------------------------------------------------------------------------

memory 5 Gb

molecule phepyrFOH_cation {
  symmetry C1
  1 1 
  C      1.885   -1.036   -0.112
  C      0.807   -0.463   0.561
  C      3.853   -2.770   -1.361
  C      5.298   -2.251   0.495
  C      1.800   -1.079   2.676
  C      4.942   -3.334   -2.012
  C      6.350   -2.828   -0.203
  C      2.921   -1.631   0.608
  C      4.038   -2.225   -0.095
  C      0.764   -0.484   1.955
  C      2.878   -1.652   2.002
  N      6.144   -3.346   -1.421
  O      -0.289   0.076   2.612
  F      3.866   -2.220   2.709
  H      1.904   -1.012   -1.199
  H      0.002   -0.002   -0.006
  H      2.881   -2.763   -1.846
  H      5.471   -1.833   1.482
  H      1.772   -1.099   3.762
  H      4.891   -3.779   -2.996
  H      7.361   -2.892   0.176
  H      6.931   -3.766   -1.916
  H      -0.175   -0.018   3.571
  units Angstrom
}

dih_string = "1 8 9 3 330"
set optking fixed_dihedral = $dih_string

optimize('MP2/aug-cc-PVTZ')
--------------------------------------------------------------------------

  Memory set to   4.657 GiB by Python driver.
gradient() will perform analytic gradient computation.

*** tstart() called on gpu-2-5.local
*** at Sat Nov 11 18:16:22 2017

    SCF Algorithm Type (re)set to DF.

*** tstart() called on gpu-2-5.local
*** at Sat Nov 11 18:16:22 2017

   => Loading Basis Set <=

    Name: AUG-CC-PVTZ
    Role: ORBITAL
    Keyword: BASIS
    atoms 1-11  entry C          line   221 file /cbio/jclab/home/chayas/anaconda/envs/py35/share/psi4/basis/aug-cc-pvtz.gbs 
    atoms 12    entry N          line   267 file /cbio/jclab/home/chayas/anaconda/envs/py35/share/psi4/basis/aug-cc-pvtz.gbs 
    atoms 13    entry O          line   313 file /cbio/jclab/home/chayas/anaconda/envs/py35/share/psi4/basis/aug-cc-pvtz.gbs 
    atoms 14    entry F          line   359 file /cbio/jclab/home/chayas/anaconda/envs/py35/share/psi4/basis/aug-cc-pvtz.gbs 
    atoms 15-23 entry H          line    34 file /cbio/jclab/home/chayas/anaconda/envs/py35/share/psi4/basis/aug-cc-pvtz.gbs 


         ---------------------------------------------------------
                                   SCF
            by Justin Turney, Rob Parrish, and Andy Simmonett
                              RHF Reference
                        8 Threads,   4768 MiB Core
         ---------------------------------------------------------

  ==> Geometry <==

    Molecular point group: c1
    Full point group: C1

    Geometry (in Angstrom), charge = 1, multiplicity = 1:

       Center              X                  Y                   Z               Mass       
    ------------   -----------------  -----------------  -----------------  -----------------
           C         -1.337935311892     0.764153447459    -0.788346714428    12.000000000000
           C         -2.415935311892     1.337153447459    -0.115346714428    12.000000000000
           C          0.630064688108    -0.969846552541    -2.037346714428    12.000000000000
           C          2.075064688108    -0.450846552541    -0.181346714428    12.000000000000
           C         -1.422935311892     0.721153447459     1.999653285572    12.000000000000
           C          1.719064688108    -1.533846552541    -2.688346714428    12.000000000000
           C          3.127064688108    -1.027846552541    -0.879346714428    12.000000000000
           C         -0.301935311892     0.169153447459    -0.068346714428    12.000000000000
           C          0.815064688108    -0.424846552541    -0.771346714428    12.000000000000
           C         -2.458935311892     1.316153447459     1.278653285572    12.000000000000
           C         -0.344935311892     0.148153447459     1.325653285572    12.000000000000
           N          2.921064688108    -1.545846552541    -2.097346714428    14.003074004780
           O         -3.511935311892     1.876153447459     1.935653285572    15.994914619560
           F          0.643064688108    -0.419846552541     2.032653285572    18.998403224000
           H         -1.318935311892     0.788153447459    -1.875346714428     1.007825032070
           H         -3.220935311892     1.798153447459    -0.682346714428     1.007825032070
           H         -0.341935311892    -0.962846552541    -2.522346714428     1.007825032070
           H          2.248064688108    -0.032846552541     0.805653285572     1.007825032070
           H         -1.450935311892     0.701153447459     3.085653285572     1.007825032070
           H          1.668064688108    -1.978846552541    -3.672346714428     1.007825032070
           H          4.138064688108    -1.091846552541    -0.500346714428     1.007825032070
           H          3.708064688108    -1.965846552541    -2.592346714428     1.007825032070
           H         -3.397935311892     1.782153447459     2.894653285572     1.007825032070

  Running in c1 symmetry.

  Rotational constants: A =      0.06292  B =      0.01329  C =      0.01120 [cm^-1]
  Rotational constants: A =   1886.17800  B =    398.43861  C =    335.71232 [MHz]
  Nuclear repulsion =  831.971885608313301

  Charge       = 1
  Multiplicity = 1
  Electrons    = 98
  Nalpha       = 49
  Nbeta        = 49

  ==> Algorithm <==

  SCF Algorithm Type is DF.
  DIIS enabled.
  MOM disabled.
  Fractional occupation disabled.
  Guess Type is SAD.
  Energy threshold   = 1.00e-10
  Density threshold  = 1.00e-10
  Integral threshold = 0.00e+00

  ==> Primary Basis <==

  Basis Set: AUG-CC-PVTZ
    Blend: AUG-CC-PVTZ
    Number of shells: 277
    Number of basis function: 851
    Number of Cartesian functions: 995
    Spherical Harmonics?: true
    Max angular momentum: 3

   => Loading Basis Set <=

    Name: (AUG-CC-PVTZ AUX)
    Role: JKFIT
    Keyword: DF_BASIS_SCF
    atoms 1-11  entry C          line   161 file /cbio/jclab/home/chayas/anaconda/envs/py35/share/psi4/basis/aug-cc-pvtz-jkfit.gbs 
    atoms 12    entry N          line   223 file /cbio/jclab/home/chayas/anaconda/envs/py35/share/psi4/basis/aug-cc-pvtz-jkfit.gbs 
    atoms 13    entry O          line   285 file /cbio/jclab/home/chayas/anaconda/envs/py35/share/psi4/basis/aug-cc-pvtz-jkfit.gbs 
    atoms 14    entry F          line   347 file /cbio/jclab/home/chayas/anaconda/envs/py35/share/psi4/basis/aug-cc-pvtz-jkfit.gbs 
    atoms 15-23 entry H          line    69 file /cbio/jclab/home/chayas/anaconda/envs/py35/share/psi4/basis/aug-cc-pvtz-jkfit.gbs 

  ==> Pre-Iterations <==

   -------------------------------------------------------
    Irrep   Nso     Nmo     Nalpha   Nbeta   Ndocc  Nsocc
   -------------------------------------------------------
     A        851     851       0       0       0       0
   -------------------------------------------------------
    Total     851     851      49      49      49       0
   -------------------------------------------------------

  ==> Integral Setup <==

  ==> DFJK: Density-Fitted J/K Matrices <==

    J tasked:                  Yes
    K tasked:                  Yes
    wK tasked:                  No
    OpenMP threads:              8
    Integrals threads:           8
    Memory (MB):              3576
    Algorithm:                Disk
    Integral Cache:           NONE
    Schwarz Cutoff:          1E-12
    Fitting Condition:       1E-12

   => Auxiliary Basis Set <=

  Basis Set: (AUG-CC-PVTZ AUX)
    Blend: AUG-CC-PVTZ-JKFIT
    Number of shells: 546
    Number of basis function: 1870
    Number of Cartesian functions: 2329
    Spherical Harmonics?: true
    Max angular momentum: 4

  Minimum eigenvalue in the overlap matrix is 6.2195534641E-07.
  Using Symmetric Orthogonalization.

  SCF Guess: Superposition of Atomic Densities via on-the-fly atomic UHF.

  ==> Iterations <==

                           Total Energy        Delta E     RMS |[F,P]|

   @DF-RHF iter   0:  -655.97991342366652   -6.55980e+02   1.80898e-02 
   @DF-RHF iter   1:  -650.23763851565934    5.74227e+00   1.94024e-03 
   @DF-RHF iter   2:  -650.50486406190214   -2.67226e-01   5.83913e-04 DIIS
   @DF-RHF iter   3:  -650.54707785278947   -4.22138e-02   2.53421e-04 DIIS
   @DF-RHF iter   4:  -650.55821981141457   -1.11420e-02   1.10959e-04 DIIS
   @DF-RHF iter   5:  -650.55960844367223   -1.38863e-03   4.39644e-05 DIIS
   @DF-RHF iter   6:  -650.55983698788555   -2.28544e-04   1.34631e-05 DIIS
   @DF-RHF iter   7:  -650.55986115982967   -2.41719e-05   5.93194e-06 DIIS
   @DF-RHF iter   8:  -650.55986433919463   -3.17936e-06   1.46934e-06 DIIS
   @DF-RHF iter   9:  -650.55986469374022   -3.54546e-07   5.29019e-07 DIIS
   @DF-RHF iter  10:  -650.55986476434987   -7.06096e-08   3.08549e-07 DIIS
   @DF-RHF iter  11:  -650.55986478232830   -1.79784e-08   1.04348e-07 DIIS
   @DF-RHF iter  12:  -650.55986478628949   -3.96119e-09   2.94685e-08 DIIS
   @DF-RHF iter  13:  -650.55986478688590   -5.96401e-10   1.20915e-08 DIIS
   @DF-RHF iter  14:  -650.55986478696752   -8.16271e-11   5.23741e-09 DIIS
   @DF-RHF iter  15:  -650.55986478696582    1.70530e-12   2.54622e-09 DIIS
   @DF-RHF iter  16:  -650.55986478703039   -6.45741e-11   7.66651e-10 DIIS
   @DF-RHF iter  17:  -650.55986478698208    4.83169e-11   3.56195e-10 DIIS
   @DF-RHF iter  18:  -650.55986478700061   -1.85310e-11   2.12073e-10 DIIS
   @DF-RHF iter  19:  -650.55986478696627    3.43334e-11   7.00253e-11 DIIS

  ==> Post-Iterations <==

    Orbital Energies (a.u.)
    -----------------------

    Doubly Occupied:                                                      

       1A    -26.453790     2A    -20.712918     3A    -15.833780  
       4A    -11.484110     5A    -11.481494     6A    -11.477599  
       7A    -11.448286     8A    -11.447730     9A    -11.416262  
      10A    -11.410965    11A    -11.390796    12A    -11.382158  
      13A    -11.367307    14A    -11.359613    15A     -1.774420  
      16A     -1.527123    17A     -1.510916    18A     -1.325584  
      19A     -1.272900    20A     -1.236222    21A     -1.166373  
      22A     -1.158890    23A     -1.070434    24A     -1.059286  
      25A     -0.996460    26A     -0.971360    27A     -0.959254  
      28A     -0.899523    29A     -0.874388    30A     -0.862842  
      31A     -0.854144    32A     -0.840882    33A     -0.822071  
      34A     -0.807304    35A     -0.786743    36A     -0.775007  
      37A     -0.767446    38A     -0.754623    39A     -0.725720  
      40A     -0.713462    41A     -0.709737    42A     -0.688566  
      43A     -0.656652    44A     -0.650099    45A     -0.638479  
      46A     -0.574866    47A     -0.535432    48A     -0.476369  
      49A     -0.447260  

    Virtual:                                                              

      50A     -0.106323    51A     -0.083877    52A     -0.062338  
      53A     -0.061655    54A     -0.056807    55A     -0.047795  
      56A     -0.043502    57A     -0.039686    58A     -0.032997  
      59A     -0.026784    60A     -0.024084    61A     -0.020099  
      62A     -0.015650    63A     -0.011326    64A     -0.007207  
      65A     -0.000457    66A      0.005170    67A      0.006523  
      68A      0.010028    69A      0.015074    70A      0.018975  
      71A      0.022325    72A      0.024013    73A      0.028168  
      74A      0.028946    75A      0.033487    76A      0.037907  
      77A      0.038780    78A      0.041205    79A      0.045585  
      80A      0.050533    81A      0.056592    82A      0.057952  
      83A      0.064440    84A      0.068052    85A      0.070336  
      86A      0.072574    87A      0.075581    88A      0.082453  
      89A      0.083250    90A      0.085438    91A      0.094798  
      92A      0.096434    93A      0.106528    94A      0.109829  
      95A      0.111811    96A      0.116811    97A      0.122402  
      98A      0.122496    99A      0.127009   100A      0.132992  
     101A      0.135832   102A      0.137116   103A      0.140128  
     104A      0.143197   105A      0.151422   106A      0.155475  
     107A      0.159514   108A      0.161006   109A      0.164967  
     110A      0.168009   111A      0.170109   112A      0.174913  
     113A      0.180723   114A      0.183661   115A      0.186696  
     116A      0.190081   117A      0.194380   118A      0.200184  
     119A      0.203767   120A      0.204762   121A      0.209079  
     122A      0.216752   123A      0.218835   124A      0.220228  
     125A      0.221751   126A      0.223420   127A      0.233065  
     128A      0.234696   129A      0.236987   130A      0.239697  
     131A      0.245330   132A      0.249263   133A      0.250866  
     134A      0.260729   135A      0.267140   136A      0.269722  
     137A      0.272861   138A      0.276942   139A      0.281086  
     140A      0.282252   141A      0.287386   142A      0.295253  
     143A      0.296253   144A      0.302960   145A      0.305812  
     146A      0.310406   147A      0.311790   148A      0.319331  
     149A      0.323095   150A      0.323956   151A      0.329823  
     152A      0.332258   153A      0.337670   154A      0.338528  
     155A      0.340874   156A      0.343082   157A      0.343976  
     158A      0.350004   159A      0.354652   160A      0.357517  
     161A      0.364615   162A      0.366995   163A      0.370928  
     164A      0.373567   165A      0.375972   166A      0.377070  
     167A      0.383900   168A      0.389087   169A      0.391207  
     170A      0.392770   171A      0.395830   172A      0.400553  
     173A      0.405124   174A      0.407453   175A      0.409657  
     176A      0.412896   177A      0.417739   178A      0.419649  
     179A      0.423579   180A      0.429926   181A      0.431489  
     182A      0.435823   183A      0.442343   184A      0.444374  
     185A      0.450346   186A      0.454080   187A      0.456232  
     188A      0.466625   189A      0.471506   190A      0.475843  
     191A      0.486970   192A      0.487344   193A      0.495123  
     194A      0.496730   195A      0.507040   196A      0.511107  
     197A      0.517755   198A      0.527026   199A      0.532247  
     200A      0.538228   201A      0.539733   202A      0.550551  
     203A      0.555060   204A      0.563950   205A      0.568069  
     206A      0.571008   207A      0.575948   208A      0.578546  
     209A      0.585115   210A      0.589639   211A      0.597602  
     212A      0.603687   213A      0.608574   214A      0.612628  
     215A      0.616652   216A      0.620745   217A      0.623813  
     218A      0.630342   219A      0.638339   220A      0.641992  
     221A      0.646951   222A      0.653378   223A      0.654910  
     224A      0.660370   225A      0.667567   226A      0.679733  
     227A      0.686861   228A      0.698569   229A      0.699927  
     230A      0.703398   231A      0.704785   232A      0.715579  
     233A      0.718329   234A      0.722855   235A      0.726297  
     236A      0.727138   237A      0.736079   238A      0.736976  
     239A      0.746211   240A      0.753845   241A      0.755325  
     242A      0.758082   243A      0.763911   244A      0.768693  
     245A      0.776607   246A      0.777545   247A      0.783640  
     248A      0.786963   249A      0.791681   250A      0.798178  
     251A      0.800301   252A      0.803440   253A      0.805613  
     254A      0.810578   255A      0.815247   256A      0.822432  
     257A      0.828402   258A      0.831246   259A      0.837190  
     260A      0.839896   261A      0.845314   262A      0.851538  
     263A      0.858454   264A      0.864899   265A      0.865649  
     266A      0.868141   267A      0.874085   268A      0.876815  
     269A      0.881695   270A      0.887905   271A      0.890862  
     272A      0.893094   273A      0.900873   274A      0.909954  
     275A      0.911803   276A      0.916559   277A      0.922533  
     278A      0.926612   279A      0.928354   280A      0.931964  
     281A      0.937689   282A      0.939862   283A      0.944019  
     284A      0.950171   285A      0.957889   286A      0.962222  
     287A      0.963957   288A      0.964701   289A      0.971156  
     290A      0.974018   291A      0.977972   292A      0.985654  
     293A      0.992297   294A      0.993931   295A      0.995913  
     296A      1.000232   297A      1.005856   298A      1.012479  
     299A      1.017805   300A      1.018821   301A      1.027822  
     302A      1.031189   303A      1.038352   304A      1.041315  
     305A      1.042585   306A      1.053101   307A      1.055922  
     308A      1.063062   309A      1.066782   310A      1.068257  
     311A      1.076245   312A      1.080395   313A      1.086556  
     314A      1.091190   315A      1.094694   316A      1.097663  
     317A      1.100682   318A      1.105573   319A      1.116892  
     320A      1.119984   321A      1.122709   322A      1.131130  
     323A      1.137473   324A      1.143312   325A      1.144506  
     326A      1.150708   327A      1.153634   328A      1.159960  
     329A      1.166733   330A      1.170094   331A      1.176750  
     332A      1.184751   333A      1.189837   334A      1.211503  
     335A      1.215065   336A      1.225045   337A      1.229348  
     338A      1.234930   339A      1.237289   340A      1.244627  
     341A      1.249019   342A      1.256707   343A      1.267591  
     344A      1.269997   345A      1.273886   346A      1.282618  
     347A      1.290529   348A      1.297121   349A      1.302235  
     350A      1.305905   351A      1.313835   352A      1.319511  
     353A      1.326563   354A      1.334046   355A      1.335874  
     356A      1.348465   357A      1.358390   358A      1.359325  
     359A      1.366211   360A      1.382608   361A      1.384386  
     362A      1.392743   363A      1.398831   364A      1.401839  
     365A      1.407106   366A      1.417674   367A      1.427354  
     368A      1.432109   369A      1.433625   370A      1.447142  
     371A      1.449400   372A      1.453594   373A      1.469955  
     374A      1.473033   375A      1.485005   376A      1.488424  
     377A      1.501758   378A      1.507470   379A      1.516912  
     380A      1.526244   381A      1.528820   382A      1.532592  
     383A      1.541845   384A      1.543531   385A      1.553753  
     386A      1.559135   387A      1.562274   388A      1.568235  
     389A      1.582068   390A      1.587127   391A      1.602001  
     392A      1.606594   393A      1.618549   394A      1.627852  
     395A      1.639109   396A      1.651650   397A      1.655574  
     398A      1.663439   399A      1.667364   400A      1.674391  
     401A      1.677197   402A      1.682433   403A      1.690517  
     404A      1.692635   405A      1.709354   406A      1.718797  
     407A      1.720802   408A      1.729099   409A      1.733669  
     410A      1.737126   411A      1.750102   412A      1.757691  
     413A      1.767401   414A      1.778503   415A      1.786640  
     416A      1.797268   417A      1.802611   418A      1.808760  
     419A      1.814467   420A      1.820913   421A      1.833533  
     422A      1.842274   423A      1.854081   424A      1.857479  
     425A      1.858884   426A      1.862399   427A      1.873182  
     428A      1.879550   429A      1.887025   430A      1.898417  
     431A      1.908795   432A      1.909080   433A      1.914100  
     434A      1.919074   435A      1.929544   436A      1.937176  
     437A      1.943528   438A      1.948543   439A      1.954152  
     440A      1.962490   441A      1.966358   442A      1.969052  
     443A      1.986868   444A      1.988406   445A      2.001603  
     446A      2.015197   447A      2.023478   448A      2.027016  
     449A      2.031626   450A      2.046228   451A      2.049502  
     452A      2.054300   453A      2.068784   454A      2.075646  
     455A      2.090311   456A      2.092953   457A      2.097595  
     458A      2.107539   459A      2.112840   460A      2.133465  
     461A      2.157086   462A      2.164426   463A      2.170437  
     464A      2.176275   465A      2.193213   466A      2.198248  
     467A      2.201505   468A      2.211904   469A      2.218193  
     470A      2.229416   471A      2.242439   472A      2.246867  
     473A      2.262528   474A      2.267541   475A      2.269686  
     476A      2.290482   477A      2.304334   478A      2.312485  
     479A      2.321106   480A      2.333031   481A      2.342144  
     482A      2.353151   483A      2.362930   484A      2.373850  
     485A      2.391039   486A      2.396099   487A      2.406380  
     488A      2.415848   489A      2.423408   490A      2.428432  
     491A      2.435170   492A      2.447206   493A      2.459069  
     494A      2.479197   495A      2.489203   496A      2.503763  
     497A      2.510255   498A      2.516869   499A      2.539173  
     500A      2.550576   501A      2.567759   502A      2.575949  
     503A      2.589523   504A      2.601305   505A      2.613306  
     506A      2.628407   507A      2.645660   508A      2.675156  
     509A      2.688937   510A      2.707221   511A      2.727421  
     512A      2.740548   513A      2.756386   514A      2.766015  
     515A      2.779879   516A      2.802431   517A      2.810436  
     518A      2.831941   519A      2.841533   520A      2.868659  
     521A      2.897855   522A      2.900919   523A      2.927869  
     524A      2.937508   525A      2.955647   526A      2.970713  
     527A      2.979757   528A      2.983232   529A      3.016157  
     530A      3.027698   531A      3.038393   532A      3.042404  
     533A      3.052071   534A      3.062524   535A      3.067075  
     536A      3.086648   537A      3.116206   538A      3.124005  
     539A      3.144118   540A      3.157805   541A      3.162435  
     542A      3.169000   543A      3.177732   544A      3.194196  
     545A      3.196879   546A      3.209539   547A      3.214930  
     548A      3.235068   549A      3.247460   550A      3.248730  
     551A      3.255513   552A      3.264992   553A      3.276410  
     554A      3.281915   555A      3.300413   556A      3.308593  
     557A      3.321367   558A      3.335510   559A      3.338123  
     560A      3.346292   561A      3.351818   562A      3.362600  
     563A      3.372034   564A      3.374665   565A      3.385511  
     566A      3.395699   567A      3.400222   568A      3.409223  
     569A      3.419356   570A      3.421178   571A      3.434142  
     572A      3.441040   573A      3.448813   574A      3.462962  
     575A      3.475985   576A      3.482268   577A      3.492543  
     578A      3.500409   579A      3.511937   580A      3.514363  
     581A      3.529344   582A      3.533840   583A      3.540311  
     584A      3.551665   585A      3.558503   586A      3.577342  
     587A      3.581896   588A      3.590144   589A      3.605736  
     590A      3.611836   591A      3.617740   592A      3.637343  
     593A      3.647761   594A      3.651650   595A      3.655635  
     596A      3.663057   597A      3.668021   598A      3.677380  
     599A      3.694571   600A      3.703320   601A      3.710653  
     602A      3.721929   603A      3.722906   604A      3.735246  
     605A      3.737022   606A      3.750973   607A      3.759191  
     608A      3.763861   609A      3.768814   610A      3.780610  
     611A      3.784129   612A      3.795639   613A      3.797500  
     614A      3.805478   615A      3.823472   616A      3.826245  
     617A      3.827672   618A      3.845951   619A      3.854219  
     620A      3.859301   621A      3.866768   622A      3.875373  
     623A      3.887830   624A      3.896761   625A      3.900240  
     626A      3.910191   627A      3.919672   628A      3.927899  
     629A      3.948301   630A      3.958193   631A      3.969749  
     632A      3.971816   633A      3.983328   634A      3.987602  
     635A      3.991936   636A      4.010229   637A      4.021001  
     638A      4.024843   639A      4.038299   640A      4.054199  
     641A      4.060385   642A      4.066982   643A      4.071932  
     644A      4.079538   645A      4.085513   646A      4.098150  
     647A      4.106587   648A      4.107583   649A      4.118287  
     650A      4.128855   651A      4.141507   652A      4.150937  
     653A      4.156288   654A      4.164285   655A      4.185811  
     656A      4.192386   657A      4.197241   658A      4.205177  
     659A      4.208506   660A      4.212096   661A      4.228409  
     662A      4.232238   663A      4.235707   664A      4.246439  
     665A      4.253786   666A      4.259526   667A      4.272679  
     668A      4.279042   669A      4.286887   670A      4.292660  
     671A      4.301541   672A      4.311203   673A      4.328416  
     674A      4.335589   675A      4.344849   676A      4.358228  
     677A      4.365458   678A      4.370886   679A      4.374586  
     680A      4.397170   681A      4.401865   682A      4.404608  
     683A      4.409744   684A      4.420939   685A      4.439623  
     686A      4.449927   687A      4.463942   688A      4.473665  
     689A      4.489645   690A      4.493162   691A      4.503708  
     692A      4.520864   693A      4.545262   694A      4.560709  
     695A      4.567868   696A      4.575733   697A      4.591615  
     698A      4.598902   699A      4.618970   700A      4.631215  
     701A      4.646516   702A      4.656681   703A      4.660592  
     704A      4.663890   705A      4.676671   706A      4.697981  
     707A      4.711800   708A      4.733327   709A      4.746831  
     710A      4.752205   711A      4.760197   712A      4.769482  
     713A      4.782101   714A      4.794534   715A      4.809304  
     716A      4.832176   717A      4.836499   718A      4.844674  
     719A      4.857044   720A      4.865215   721A      4.889693  
     722A      4.907229   723A      4.911062   724A      4.928591  
     725A      4.944974   726A      4.951641   727A      4.961052  
     728A      4.970019   729A      4.972947   730A      4.993253  
     731A      5.008134   732A      5.017066   733A      5.018293  
     734A      5.024281   735A      5.047731   736A      5.062256  
     737A      5.071074   738A      5.083093   739A      5.096897  
     740A      5.121575   741A      5.143129   742A      5.147308  
     743A      5.161282   744A      5.174939   745A      5.204193  
     746A      5.210636   747A      5.216567   748A      5.221162  
     749A      5.242192   750A      5.273630   751A      5.281757  
     752A      5.292230   753A      5.308646   754A      5.329143  
     755A      5.355584   756A      5.385245   757A      5.391668  
     758A      5.394139   759A      5.418089   760A      5.439301  
     761A      5.464848   762A      5.487379   763A      5.496339  
     764A      5.522294   765A      5.549780   766A      5.567147  
     767A      5.586082   768A      5.613778   769A      5.627191  
     770A      5.629604   771A      5.667859   772A      5.689698  
     773A      5.692233   774A      5.706803   775A      5.721827  
     776A      5.760352   777A      5.781418   778A      5.835489  
     779A      5.843498   780A      5.877178   781A      5.938039  
     782A      5.948110   783A      5.987271   784A      6.002815  
     785A      6.032060   786A      6.050532   787A      6.108533  
     788A      6.141293   789A      6.193408   790A      6.196877  
     791A      6.252876   792A      6.287744   793A      6.307575  
     794A      6.369221   795A      6.375045   796A      6.417809  
     797A      6.426512   798A      6.484545   799A      6.542445  
     800A      6.578813   801A      6.598354   802A      6.617487  
     803A      6.672342   804A      6.750153   805A      6.769082  
     806A      6.785355   807A      6.812401   808A      6.839677  
     809A      6.892368   810A      6.908956   811A      6.943765  
     812A      6.981384   813A      7.083596   814A      7.152734  
     815A      7.289705   816A      7.315131   817A      7.359569  
     818A      7.468995   819A      7.545544   820A      7.576424  
     821A      7.584292   822A      7.642562   823A      7.896073  
     824A      8.275582   825A      8.530061   826A      8.983123  
     827A      9.006284   828A      9.154162   829A      9.170869  
     830A      9.304386   831A      9.407424   832A      9.442922  
     833A      9.502016   834A      9.547839   835A      9.608606  
     836A      9.926231   837A      9.990240   838A     15.868158  
     839A     16.172500   840A     16.451121   841A     16.660550  
     842A     16.782932   843A     16.998519   844A     18.797768  
     845A     19.395354   846A     19.516582   847A     19.720893  
     848A     20.091169   849A     20.139313   850A     20.596365  
     851A     21.678596  

    Final Occupation by Irrep:
              A 
    DOCC [    49 ]

  Energy converged.

  @DF-RHF Final Energy:  -650.55986478696627

   => Energetics <=

    Nuclear Repulsion Energy =            831.9718856083133005
    One-Electron Energy =               -2523.9482104012604395
    Two-Electron Energy =                1041.4164600059809800
    DFT Exchange-Correlation Energy =       0.0000000000000000
    Empirical Dispersion Energy =           0.0000000000000000
    PCM Polarization Energy =               0.0000000000000000
    EFP Energy =                            0.0000000000000000
    Total Energy =                       -650.5598647869662727



Properties will be evaluated at   0.000000,   0.000000,   0.000000 Bohr

Properties computed using the SCF density matrix

  Nuclear Dipole Moment: (a.u.)
     X:     1.2725      Y:    -0.4929      Z:    -6.6449

  Electronic Dipole Moment: (a.u.)
     X:     1.4430      Y:    -0.9332      Z:     4.5177

  Dipole Moment: (a.u.)
     X:     2.7155      Y:    -1.4261      Z:    -2.1272     Total:     3.7327

  Dipole Moment: (Debye)
     X:     6.9021      Y:    -3.6247      Z:    -5.4069     Total:     9.4875


*** tstop() called on gpu-2-5.local at Sat Nov 11 18:25:48 2017
Module time:
	user time   =    1566.59 seconds =      26.11 minutes
	system time =      56.83 seconds =       0.95 minutes
	total time  =        566 seconds =       9.43 minutes
Total time:
	user time   =    1566.60 seconds =      26.11 minutes
	system time =      56.83 seconds =       0.95 minutes
	total time  =        566 seconds =       9.43 minutes

  //>>>>>>>>>>>>>>>>>>>>>>>>>>>>>>>>>>>//
  //               DFMP2               //
  //<<<<<<<<<<<<<<<<<<<<<<<<<<<<<<<<<<<//

   => Loading Basis Set <=

    Name: (AUG-CC-PVTZ AUX)
    Role: RIFIT
    Keyword: DF_BASIS_MP2
    atoms 1-11  entry C          line   147 file /cbio/jclab/home/chayas/anaconda/envs/py35/share/psi4/basis/aug-cc-pvtz-ri.gbs 
    atoms 12    entry N          line   205 file /cbio/jclab/home/chayas/anaconda/envs/py35/share/psi4/basis/aug-cc-pvtz-ri.gbs 
    atoms 13    entry O          line   263 file /cbio/jclab/home/chayas/anaconda/envs/py35/share/psi4/basis/aug-cc-pvtz-ri.gbs 
    atoms 14    entry F          line   321 file /cbio/jclab/home/chayas/anaconda/envs/py35/share/psi4/basis/aug-cc-pvtz-ri.gbs 
    atoms 15-23 entry H          line    29 file /cbio/jclab/home/chayas/anaconda/envs/py35/share/psi4/basis/aug-cc-pvtz-ri.gbs 

	 --------------------------------------------------------
	                          DF-MP2                         
	      2nd-Order Density-Fitted Moller-Plesset Theory     
	              RMP2 Wavefunction,   8 Threads             
	                                                         
	        Rob Parrish, Justin Turney, Andy Simmonett,      
	           Ed Hohenstein, and C. David Sherrill          
	 --------------------------------------------------------

   => Auxiliary Basis Set <=

  Basis Set: (AUG-CC-PVTZ AUX)
    Blend: AUG-CC-PVTZ-RI
    Number of shells: 518
    Number of basis function: 1898
    Number of Cartesian functions: 2399
    Spherical Harmonics?: true
    Max angular momentum: 4

	 --------------------------------------------------------
	                 NBF =   851, NAUX =  1898
	 --------------------------------------------------------
	   CLASS    FOCC     OCC    AOCC    AVIR     VIR    FVIR
	   PAIRS       0      49      49     802     802       0
	 --------------------------------------------------------


         ------------------------------------------------------------
                                     CPHF                           
                                  Rob Parrish                       
         ------------------------------------------------------------

  ==> Geometry <==

    Molecular point group: c1
    Full point group: C1

    Geometry (in Angstrom), charge = 1, multiplicity = 1:

       Center              X                  Y                   Z               Mass       
    ------------   -----------------  -----------------  -----------------  -----------------
           C         -1.337935311892     0.764153447459    -0.788346714428    12.000000000000
           C         -2.415935311892     1.337153447459    -0.115346714428    12.000000000000
           C          0.630064688108    -0.969846552541    -2.037346714428    12.000000000000
           C          2.075064688108    -0.450846552541    -0.181346714428    12.000000000000
           C         -1.422935311892     0.721153447459     1.999653285572    12.000000000000
           C          1.719064688108    -1.533846552541    -2.688346714428    12.000000000000
           C          3.127064688108    -1.027846552541    -0.879346714428    12.000000000000
           C         -0.301935311892     0.169153447459    -0.068346714428    12.000000000000
           C          0.815064688108    -0.424846552541    -0.771346714428    12.000000000000
           C         -2.458935311892     1.316153447459     1.278653285572    12.000000000000
           C         -0.344935311892     0.148153447459     1.325653285572    12.000000000000
           N          2.921064688108    -1.545846552541    -2.097346714428    14.003074004780
           O         -3.511935311892     1.876153447459     1.935653285572    15.994914619560
           F          0.643064688108    -0.419846552541     2.032653285572    18.998403224000
           H         -1.318935311892     0.788153447459    -1.875346714428     1.007825032070
           H         -3.220935311892     1.798153447459    -0.682346714428     1.007825032070
           H         -0.341935311892    -0.962846552541    -2.522346714428     1.007825032070
           H          2.248064688108    -0.032846552541     0.805653285572     1.007825032070
           H         -1.450935311892     0.701153447459     3.085653285572     1.007825032070
           H          1.668064688108    -1.978846552541    -3.672346714428     1.007825032070
           H          4.138064688108    -1.091846552541    -0.500346714428     1.007825032070
           H          3.708064688108    -1.965846552541    -2.592346714428     1.007825032070
           H         -3.397935311892     1.782153447459     2.894653285572     1.007825032070

  Nuclear repulsion =  831.971885608313301
  Reference energy  = -650.559864786966273

  ==> Basis Set <==

  Basis Set: AUG-CC-PVTZ
    Blend: AUG-CC-PVTZ
    Number of shells: 277
    Number of basis function: 851
    Number of Cartesian functions: 995
    Spherical Harmonics?: true
    Max angular momentum: 3

  ==> CGRSolver (by Rob Parrish) <==

   Number of roots    =         1
   Preconditioning    =    JACOBI
   Convergence cutoff =     1E-06
   Maximum iterations =       100

  ==> CPHFRHamiltonian (by Rob Parrish) <== 

  ==> DFJK: Density-Fitted J/K Matrices <==

    J tasked:                  Yes
    K tasked:                  Yes
    wK tasked:                  No
    OpenMP threads:              8
    Integrals threads:           8
    Memory (MB):              3576
    Algorithm:                Disk
    Integral Cache:           NONE
    Schwarz Cutoff:          1E-12
    Fitting Condition:       1E-12

   => Auxiliary Basis Set <=

  Basis Set: (AUG-CC-PVTZ AUX)
    Blend: AUG-CC-PVTZ-JKFIT
    Number of shells: 546
    Number of basis function: 1870
    Number of Cartesian functions: 2329
    Spherical Harmonics?: true
    Max angular momentum: 4

  ==> CPHF Iterations <==

  => Iterations <=

             Iter  Converged  Remaining    Residual
  CGR           1          0          1   1.254E-01
  CGR           2          0          1   5.014E-02
  CGR           3          0          1   2.940E-02
  CGR           4          0          1   9.769E-03
  CGR           5          0          1   4.476E-03
  CGR           6          0          1   1.991E-03
  CGR           7          0          1   6.340E-04
  CGR           8          0          1   2.749E-04
  CGR           9          0          1   1.219E-04
  CGR          10          0          1   4.559E-05
  CGR          11          0          1   1.822E-05
  CGR          12          0          1   5.946E-06
  CGR          13          0          1   2.063E-06
  CGR          14          1          0   6.708E-07

    CGRSolver converged.

  ==> DFCorrGrad: Density-Fitted Correlated Gradients <==

    OpenMP threads:              8
    Integrals threads:           8
    Memory (MB):              3576
    Schwarz Cutoff:          0E+00
    Fitting Condition:       1E-12

   => Auxiliary Basis Set <=

  Basis Set: (AUG-CC-PVTZ AUX)
    Blend: AUG-CC-PVTZ-JKFIT
    Number of shells: 546
    Number of basis function: 1870
    Number of Cartesian functions: 2329
    Spherical Harmonics?: true
    Max angular momentum: 4

	-----------------------------------------------------------
	 ==================> DF-MP2 Energies <==================== 
	-----------------------------------------------------------
	 Reference Energy          =    -650.5598647869662727 [Eh]
	 Singles Energy            =      -0.0000000000000009 [Eh]
	 Same-Spin Energy          =      -0.6701685254724280 [Eh]
	 Opposite-Spin Energy      =      -2.0153429722938636 [Eh]
	 Correlation Energy        =      -2.6855114977662926 [Eh]
	 Total Energy              =    -653.2453762847325152 [Eh]
	-----------------------------------------------------------
	 ================> DF-SCS-MP2 Energies <================== 
	-----------------------------------------------------------
	 SCS Same-Spin Scale       =       0.3333333333333333 [-]
	 SCS Opposite-Spin Scale   =       1.2000000000000000 [-]
	 SCS Same-Spin Energy      =      -0.2233895084908093 [Eh]
	 SCS Opposite-Spin Energy  =      -2.4184115667526362 [Eh]
	 SCS Correlation Energy    =      -2.6418010752434467 [Eh]
	 SCS Total Energy          =    -653.2016658622096656 [Eh]
	-----------------------------------------------------------


  -Total Gradient:
     Atom            X                  Y                   Z
    ------   -----------------  -----------------  -----------------
       1        0.017514502576    -0.004852408822    -0.013047973704
       2        0.000223236570    -0.000568254680     0.010749937653
       3       -0.015829842952     0.007322680708     0.013135406497
       4       -0.020809133923     0.009111805667     0.008363170957
       5       -0.012628529943     0.007281935101     0.001354303351
       6        0.013688504946    -0.002585714057     0.004814929848
       7        0.000229509499    -0.005760672832    -0.012314774175
       8       -0.012818672933     0.006910388315     0.004206987486
       9        0.012833247671    -0.006428972786    -0.009963908377
      10        0.001310294615     0.000096564444    -0.013504485615
      11        0.024503535930    -0.017940842711    -0.002762027870
      12       -0.002029826068     0.001610234933     0.001164062114
      13       -0.008317685319     0.004129586902     0.009290293735
      14        0.006073648129     0.000882877036    -0.002129521821
      15       -0.000919410403    -0.001428316189    -0.006911001710
      16       -0.003783278173     0.001601413749    -0.005251865397
      17       -0.006461088800     0.002355183778    -0.002892578672
      18       -0.001459701261     0.002398075075     0.009814922082
      19       -0.001358855553     0.000994706635     0.004719033568
      20        0.001393067353    -0.001025838918    -0.002431955386
      21        0.003057807219    -0.001203527355    -0.000116689236
      22        0.005513938595    -0.002703136579    -0.003395797688
      23        0.000074732236    -0.000197767413     0.007109532359


*** tstop() called on gpu-2-5.local at Sat Nov 11 19:08:15 2017
Module time:
	user time   =    7754.88 seconds =     129.25 minutes
	system time =     124.73 seconds =       2.08 minutes
	total time  =       3113 seconds =      51.88 minutes
Total time:
	user time   =    7754.89 seconds =     129.25 minutes
	system time =     124.73 seconds =       2.08 minutes
	total time  =       3113 seconds =      51.88 minutes

			-----------------------------------------
			 OPTKING 2.0: for geometry optimizations 
			  - R.A. King,  Bethel University        
			-----------------------------------------

	Internal coordinates to be generated automatically.
	Detected frag 1 with atoms:  1 2 3 4 5 6 7 8 9 10 11 12 13 14 15 16 17 18 19 20
	 21 22 23
	---Fragment 1 Bond Connectivity---
	 1 : 2 8 15
	 2 : 1 10 16
	 3 : 6 9 17
	 4 : 7 9 18
	 5 : 10 11 19
	 6 : 3 12 20
	 7 : 4 12 21
	 8 : 1 9 11
	 9 : 3 4 8
	 10 : 2 5 13
	 11 : 5 8 14
	 12 : 6 7 22
	 13 : 10 23
	 14 : 11
	 15 : 1
	 16 : 2
	 17 : 3
	 18 : 4
	 19 : 5
	 20 : 6
	 21 : 7
	 22 : 12
	 23 : 13

	Assuming in current code that numbering for constraints corresponds to unified fragment.
	Fixed dihedral atom list: 
	     1     8     9     3
	---Fragment 1 Geometry and Gradient---
	 C          -2.5283313230        1.4440407392       -1.4897593880
	 C          -4.5654560942        2.5268538133       -0.2179737006
	 C           1.1906497065       -1.8327443752       -3.8500273280
	 C           3.9213039685       -0.8519765123       -0.3426956254
	 C          -2.6889580443        1.3627825155        3.7787970705
	 C           3.2485614652       -2.8985499142       -5.0802390405
	 C           5.9092958603       -1.9423484909       -1.6617244661
	 C          -0.5705750493        0.3196536901       -0.1291565724
	 C           1.5402490411       -0.8028436328       -1.4576340438
	 C          -4.6467143180        2.4871695646        2.4163045286
	 C          -0.6518332730        0.2799694413        2.5051216569
	 N           5.5200122770       -2.9212266278       -3.9634108960
	 O          -6.6365959359        3.5454161990        3.6578545980
	 F           1.2152161463       -0.7933950021        3.8411580328
	 H          -2.4924265265        1.4893941664       -3.5438916945
	 H          -6.0866856312        3.3980175606       -1.2894484179
	 H          -0.6461640946       -1.8195162923       -4.7665445025
	 H           4.2482265895       -0.0620709887        1.5224640678
	 H          -2.7418703760        1.3249879928        5.8310396508
	 H           3.1521854325       -3.7394780433       -6.9397295553
	 H           7.8198089807       -2.0632909634       -0.9455182618
	 H           7.0072267435       -3.7149116036       -4.8988253318
	 H          -6.4211671567        3.3677819425        5.4701019594
	             0.0175145026       -0.0048524088       -0.0130479737
	             0.0002232366       -0.0005682547        0.0107499377
	            -0.0158298430        0.0073226807        0.0131354065
	            -0.0208091339        0.0091118057        0.0083631710
	            -0.0126285299        0.0072819351        0.0013543034
	             0.0136885049       -0.0025857141        0.0048149298
	             0.0002295095       -0.0057606728       -0.0123147742
	            -0.0128186729        0.0069103883        0.0042069875
	             0.0128332477       -0.0064289728       -0.0099639084
	             0.0013102946        0.0000965644       -0.0135044856
	             0.0245035359       -0.0179408427       -0.0027620279
	            -0.0020298261        0.0016102349        0.0011640621
	            -0.0083176853        0.0041295869        0.0092902937
	             0.0060736481        0.0008828770       -0.0021295218
	            -0.0009194104       -0.0014283162       -0.0069110017
	            -0.0037832782        0.0016014137       -0.0052518654
	            -0.0064610888        0.0023551838       -0.0028925787
	            -0.0014597013        0.0023980751        0.0098149221
	            -0.0013588556        0.0009947066        0.0047190336
	             0.0013930674       -0.0010258389       -0.0024319554
	             0.0030578072       -0.0012035274       -0.0001166892
	             0.0055139386       -0.0027031366       -0.0033957977
	             0.0000747322       -0.0001977674        0.0071095324

	Previous optimization step data not found.  Starting new optimization.

	---Fragment 1 Intrafragment Coordinates---
	 - Coordinate -           - BOHR/RAD -       - ANG/DEG -
	 R(1,2)           =         2.634350	       1.394038
	 R(1,8)           =         2.635962	       1.394891
	 R(1,15)          =         2.054947	       1.087431
	 R(2,10)          =         2.635830	       1.394821
	 R(2,16)          =         2.054537	       1.087214
	 R(3,6)           =         2.623807	       1.388459
	 R(3,9)           =         2.628015	       1.390685
	 R(3,17)          =         2.052818	       1.086305
	 R(4,7)           =         2.623139	       1.388106
	 R(4,9)           =         2.629624	       1.391537
	 R(4,18)          =         2.051743	       1.085736
	 R(5,10)          =         2.636938	       1.395407
	 R(5,11)          =         2.635263	       1.394521
	 R(5,19)          =         2.053272	       1.086545
	 R(6,12)          =         2.531266	       1.339488
	 R(6,20)          =         2.043075	       1.081148
	 R(7,12)          =         2.531305	       1.339509
	 R(7,21)          =         2.043927	       1.081600
	 R(8,9)           =         2.735038	       1.447320
	 R(8,11)          =         2.635830	       1.394821
	 R(10,13)         =         2.573123	       1.361638
	 R(11,14)         =         2.534359	       1.341125
	 R(12,22)         =         1.927886	       1.020193
	 R(13,23)         =         1.833631	       0.970316
	 B(1,2,10)        =         2.094553	     120.009056
	 B(1,2,16)        =         2.088723	     119.675016
	 B(1,8,9)         =         2.091569	     119.838095
	 B(1,8,11)        =         2.093692	     119.959722
	 B(2,1,8)         =         2.094940	     120.031219
	 B(2,1,15)        =         2.079469	     119.144799
	 B(2,10,5)        =         2.094306	     119.994870
	 B(2,10,13)       =         2.094247	     119.991510
	 B(3,6,12)        =         2.095074	     120.038881
	 B(3,6,20)        =         2.161482	     123.843778
	 B(3,9,4)         =         2.093366	     119.941033
	 B(3,9,8)         =         2.094797	     120.023007
	 B(4,7,12)        =         2.096040	     120.094270
	 B(4,7,21)        =         2.161319	     123.834445
	 B(4,9,8)         =         2.095023	     120.035958
	 B(5,10,13)       =         2.094633	     120.013619
	 B(5,11,8)        =         2.095181	     120.045019
	 B(5,11,14)       =         2.081414	     119.256220
	 B(6,3,9)         =         2.073367	     118.795200
	 B(6,3,17)        =         2.088721	     119.674897
	 B(6,12,7)        =         2.136166	     122.393317
	 B(6,12,22)       =         2.073564	     118.806454
	 B(7,4,9)         =         2.072356	     118.737273
	 B(7,4,18)        =         2.090231	     119.761399
	 B(7,12,22)       =         2.073454	     118.800182
	 B(8,1,15)        =         2.108776	     120.823969
	 B(8,11,14)       =         2.106591	     120.698759
	 B(9,3,17)        =         2.121097	     121.529902
	 B(9,4,18)        =         2.120598	     121.501307
	 B(9,8,11)        =         2.097924	     120.202184
	 B(10,2,16)       =         2.099909	     120.315896
	 B(10,5,11)       =         2.093699	     119.960108
	 B(10,5,19)       =         2.100355	     120.341451
	 B(10,13,23)      =         1.924294	     110.253909
	 B(11,5,19)       =         2.089132	     119.698439
	 B(12,6,20)       =         2.026629	     116.117287
	 B(12,7,21)       =         2.025825	     116.071232
	 D(1,2,10,5)      =        -0.000325	      -0.018609
	 D(1,2,10,13)     =         3.141388	     179.988267
	 D(1,8,9,3)       =        -0.523464	     -29.992269
	 D(1,8,9,4)       =         2.617834	     149.990813
	 D(1,8,11,5)      =         0.000325	       0.018608
	 D(1,8,11,14)     =        -3.141528	    -179.996269
	 D(2,1,8,9)       =         3.141277	     179.981897
	 D(2,1,8,11)      =        -0.000348	      -0.019945
	 D(2,10,5,11)     =         0.000301	       0.017261
	 D(2,10,5,19)     =        -3.141029	    -179.967685
	 D(2,10,13,23)    =         3.141285	     179.982383
	 D(3,6,12,7)      =         0.000442	       0.025332
	 D(3,6,12,22)     =         3.140632	     179.944957
	 D(3,9,4,7)       =        -0.000909	      -0.052089
	 D(3,9,4,18)      =        -3.141563	    -179.998318
	 D(3,9,8,11)      =         2.618161	     150.009576
	 D(4,7,12,6)      =        -0.000408	      -0.023388
	 D(4,7,12,22)     =        -3.140598	    -179.943017
	 D(4,9,3,6)       =         0.000943	       0.054003
	 D(4,9,3,17)      =        -3.140792	    -179.954115
	 D(4,9,8,11)      =        -0.523727	     -30.007341
	 D(5,10,2,16)     =         3.140149	     179.917291
	 D(5,10,13,23)    =        -0.000187	      -0.010740
	 D(5,11,8,9)      =        -3.141300	    -179.983240
	 D(6,3,9,8)       =        -3.140945	    -179.962899
	 D(6,12,7,21)     =        -3.140601	    -179.943177
	 D(7,4,9,8)       =         3.140979	     179.964815
	 D(7,12,6,20)     =         3.140621	     179.944340
	 D(8,1,2,10)      =         0.000348	       0.019955
	 D(8,1,2,16)      =        -3.140133	    -179.916358
	 D(8,9,3,17)      =         0.000506	       0.028983
	 D(8,9,4,18)      =         0.000324	       0.018586
	 D(8,11,5,10)     =        -0.000301	      -0.017270
	 D(8,11,5,19)     =         3.141030	     179.967774
	 D(9,3,6,12)      =        -0.000702	      -0.040225
	 D(9,3,6,20)      =        -3.140767	    -179.952666
	 D(9,4,7,12)      =         0.000635	       0.036361
	 D(9,4,7,21)      =         3.140713	     179.949622
	 D(9,8,1,15)      =         0.000403	       0.023110
	 D(9,8,11,14)     =         0.000033	       0.001883
	 D(10,2,1,15)     =         3.141234	     179.979432
	 D(10,5,11,14)    =         3.141547	     179.997392
	 D(11,5,10,13)    =        -3.141411	    -179.989616
	 D(11,8,1,15)     =        -3.141221	    -179.978731
	 D(12,6,3,17)     =         3.141030	     179.967739
	 D(12,7,4,18)     =         3.141306	     179.983548
	 D(13,10,2,16)    =        -0.001324	      -0.075833
	 D(13,10,5,19)    =         0.000444	       0.025437
	 D(14,11,5,19)    =        -0.000307	      -0.017564
	 D(15,1,2,16)     =         0.000753	       0.043120
	 D(17,3,6,20)     =         0.000965	       0.055298
	 D(18,4,7,21)     =        -0.001801	      -0.103191
	 D(20,6,12,22)    =        -0.002374	      -0.136036
	 D(21,7,12,22)    =         0.002394	       0.137194
	 R(4,14)          =         4.983069	       2.636926

	Current energy   :      -653.2453762847

	Generating empirical Hessian (Schlegel '84) for each fragment.
	Adding user-defined constraint: Fragment 1; Coordinate 64:
		Value =    -0.523464; Fixed value    =    -0.523599
		Force =    -0.000067; Force constant =     0.500000
	Removing off-diagonal coupling between coordinate 64 and others.
	Taking RFO optimization step.
	Going to follow RFO solution 1.
	Using RFO vector 1.

	Determining step-restricting scale parameter for RS-RFO.
	Maximum step size allowed    0.10000

	 Iter      |step|        alpha        rfo_root  
	------------------------------------------------
	    0     0.28433       1.00000           1
	    1     0.19931       4.17307           1
	    2     0.14946      11.76457           1
	    3     0.11906      25.51815           1
	    4     0.10425      38.81180           1
	    5     0.10029      43.65724           1
	    6     0.10000      44.03314           1
	------------------------------------------------
	Norm of target step-size    0.10000
	Projected energy change by RFO approximation:        -0.0053898139

	Back-transformation to cartesian coordinates...
	Could not converge backtransformation.
	Using first guess instead.

	--- Internal Coordinate Step in ANG or DEG, aJ/ANG or AJ/DEG ---
	 ---------------------------------------------------------------------------
	   Coordinate                Previous        Force       Change         New 
	   ----------                --------       ------       ------       ------
	    1 R(1,2)          =      1.394038    -0.111140    -0.010175     1.383863
	    2 R(1,8)          =      1.394891     0.021663     0.002255     1.397146
	    3 R(1,15)         =      1.087431    -0.056524    -0.006158     1.081273
	    4 R(2,10)         =      1.394821    -0.048092    -0.004475     1.390347
	    5 R(2,16)         =      1.087214    -0.051239    -0.005566     1.081648
	    6 R(3,6)          =      1.388459    -0.120152    -0.010893     1.377566
	    7 R(3,9)          =      1.390685     0.066811     0.006246     1.396931
	    8 R(3,17)         =      1.086305    -0.058394    -0.006365     1.079940
	    9 R(4,7)          =      1.388106    -0.109312    -0.009845     1.378261
	   10 R(4,9)          =      1.391537     0.076816     0.007233     1.398771
	   11 R(4,18)         =      1.085736    -0.079200    -0.008576     1.077160
	   12 R(5,10)         =      1.395407    -0.029233    -0.002780     1.392628
	   13 R(5,11)         =      1.394521    -0.147499    -0.013467     1.381055
	   14 R(5,19)         =      1.086545    -0.038996    -0.004191     1.082354
	   15 R(6,12)         =      1.339488     0.019735     0.001463     1.340952
	   16 R(6,20)         =      1.081148    -0.021173    -0.002273     1.078875
	   17 R(7,12)         =      1.339509     0.023755     0.001823     1.341332
	   18 R(7,21)         =      1.081600    -0.023798    -0.002573     1.079026
	   19 R(8,9)          =      1.447320     0.048706     0.005268     1.452588
	   20 R(8,11)         =      1.394821    -0.034265    -0.002797     1.392024
	   21 R(10,13)        =      1.361638    -0.131034    -0.010792     1.350846
	   22 R(11,14)        =      1.341125    -0.026758    -0.002087     1.339039
	   23 R(12,22)        =      1.020193    -0.057787    -0.005480     1.014713
	   24 R(13,23)        =      0.970316    -0.058119    -0.004739     0.965576
	   25 B(1,2,10)       =    120.009056    -0.000148    -0.245642   119.763414
	   26 B(1,2,16)       =    119.675016     0.000257     0.473778   120.148795
	   27 B(1,8,9)        =    119.838095     0.000731     1.071865   120.909960
	   28 B(1,8,11)       =    119.959722    -0.000941    -1.467802   118.491920
	   29 B(2,1,8)        =    120.031219     0.000460     0.791784   120.823003
	   30 B(2,1,15)       =    119.144799    -0.000218    -0.377295   118.767504
	   31 B(2,10,5)       =    119.994870     0.000097     0.133493   120.128363
	   32 B(2,10,13)      =    119.991510    -0.000961    -1.496719   118.494791
	   33 B(3,6,12)       =    120.038881    -0.000230    -0.418852   119.620029
	   34 B(3,6,20)       =    123.843778     0.000001    -0.007943   123.835835
	   35 B(3,9,4)        =    119.941033    -0.000762    -1.180146   118.760887
	   36 B(3,9,8)        =    120.023007     0.000305     0.431665   120.454672
	   37 B(4,7,12)       =    120.094270    -0.000159    -0.281295   119.812975
	   38 B(4,7,21)       =    123.834445    -0.000039    -0.086358   123.748087
	   39 B(4,9,8)        =    120.035958     0.000457     0.748438   120.784396
	   40 B(5,10,13)      =    120.013619     0.000865     1.363227   121.376845
	   41 B(5,11,8)       =    120.045019     0.000805     1.251647   121.296666
	   42 B(5,11,14)      =    119.256220    -0.000160    -0.295950   118.960270
	   43 B(6,3,9)        =    118.795200     0.000534     0.885210   119.680410
	   44 B(6,3,17)       =    119.674897    -0.000371    -0.646837   119.028060
	   45 B(6,12,7)       =    122.393317     0.000224     0.327077   122.720394
	   46 B(6,12,22)      =    118.806454    -0.000120    -0.178969   118.627485
	   47 B(7,4,9)        =    118.737273     0.000393     0.667975   119.405248
	   48 B(7,4,18)       =    119.761399    -0.000400    -0.730783   119.030616
	   49 B(7,12,22)      =    118.800182    -0.000104    -0.148079   118.652102
	   50 B(8,1,15)       =    120.823969    -0.000241    -0.414986   120.408983
	   51 B(8,11,14)      =    120.698759    -0.000645    -0.956813   119.741946
	   52 B(9,3,17)       =    121.529902    -0.000163    -0.238776   121.291126
	   53 B(9,4,18)       =    121.501307     0.000008     0.062467   121.563773
	   54 B(9,8,11)       =    120.202184     0.000210     0.395883   120.598067
	   55 B(10,2,16)      =    120.315896    -0.000108    -0.228119   120.087777
	   56 B(10,5,11)      =    119.960108    -0.000271    -0.463705   119.496403
	   57 B(10,5,19)      =    120.341451     0.000261     0.470698   120.812149
	   58 B(10,13,23)     =    110.253909    -0.000126    -0.246077   110.007832
	   59 B(11,5,19)      =    119.698439     0.000010    -0.007004   119.691435
	   60 B(12,6,20)      =    116.117287     0.000229     0.426845   116.544132
	   61 B(12,7,21)      =    116.071232     0.000198     0.367554   116.438786
	   62 D(1,2,10,5)     =     -0.018609     0.000006     0.069910     0.051301
	   63 D(1,2,10,13)    =    179.988267     0.000005     0.068509   180.056776
	   64 D(1,8,9,3)      =    -29.992269    -0.000009    -0.075074   -30.067344
	   65 D(1,8,9,4)      =    149.990813    -0.000011    -0.136860   149.853953
	   66 D(1,8,11,5)     =      0.018608     0.000004     0.046025     0.064633
	   67 D(1,8,11,14)    =   -179.996269    -0.000024    -0.327725  -180.323994
	   68 D(2,1,8,9)      =    179.981897     0.000002     0.013782   179.995679
	   69 D(2,1,8,11)     =     -0.019945     0.000007     0.098916     0.078972
	   70 D(2,10,5,11)    =      0.017261     0.000005     0.072077     0.089338
	   71 D(2,10,5,19)    =   -179.967685     0.000007     0.098728  -179.868957
	   72 D(2,10,13,23)   =    179.982383    -0.000001    -0.011545   179.970838
	   73 D(3,6,12,7)     =      0.025332    -0.000003    -0.046128    -0.020796
	   74 D(3,6,12,22)    =    179.944957    -0.000001    -0.016692   179.928265
	   75 D(3,9,4,7)      =     -0.052089     0.000001    -0.007845    -0.059934
	   76 D(3,9,4,18)     =   -179.998318    -0.000020    -0.282836  -180.281154
	   77 D(3,9,8,11)     =    150.009576    -0.000014    -0.161967   149.847609
	   78 D(4,7,12,6)     =     -0.023388     0.000005     0.071180     0.047792
	   79 D(4,7,12,22)    =   -179.943017     0.000003     0.041760  -179.901257
	   80 D(4,9,3,6)      =      0.054003     0.000001     0.032443     0.086445
	   81 D(4,9,3,17)     =   -179.954115    -0.000016    -0.192998  -180.147113
	   82 D(4,9,8,11)     =    -30.007341    -0.000016    -0.223753   -30.231094
	   83 D(5,10,2,16)    =    179.917291     0.000007     0.091271   180.008563
	   84 D(5,10,13,23)   =     -0.010740    -0.000001    -0.012876    -0.023615
	   85 D(5,11,8,9)     =   -179.983240     0.000009     0.130897  -179.852343
	   86 D(6,3,9,8)      =   -179.962899    -0.000001    -0.027785  -179.990684
	   87 D(6,12,7,21)    =   -179.943177     0.000009     0.127097  -179.816080
	   88 D(7,4,9,8)      =    179.964815     0.000003     0.052644   180.017459
	   89 D(7,12,6,20)    =    179.944340     0.000005     0.057570   180.001909
	   90 D(8,1,2,10)     =      0.019955    -0.000012    -0.156346    -0.136392
	   91 D(8,1,2,16)     =   -179.916358    -0.000013    -0.177269  -180.093627
	   92 D(8,9,3,17)     =      0.028983    -0.000018    -0.253225    -0.224242
	   93 D(8,9,4,18)     =      0.018586    -0.000019    -0.222348    -0.203762
	   94 D(8,11,5,10)    =     -0.017270    -0.000010    -0.130997    -0.148267
	   95 D(8,11,5,19)    =    179.967774    -0.000012    -0.157273   179.810501
	   96 D(9,3,6,12)     =     -0.040225    -0.000000    -0.007270    -0.047495
	   97 D(9,3,6,20)     =   -179.952666    -0.000009    -0.119283  -180.071949
	   98 D(9,4,7,12)     =      0.036361    -0.000004    -0.042152    -0.005791
	   99 D(9,4,7,21)     =    179.949622    -0.000008    -0.102007   179.847615
	  100 D(9,8,1,15)     =      0.023110    -0.000021    -0.290276    -0.267166
	  101 D(9,8,11,14)    =      0.001883    -0.000019    -0.242853    -0.240971
	  102 D(10,2,1,15)    =    179.979432     0.000011     0.142780   180.122212
	  103 D(10,5,11,14)   =    179.997392     0.000018     0.239998   180.237390
	  104 D(11,5,10,13)   =   -179.989616     0.000006     0.073318  -179.916298
	  105 D(11,8,1,15)    =   -179.978731    -0.000017    -0.205142  -180.183873
	  106 D(12,6,3,17)    =    179.967739     0.000017     0.213024   180.180763
	  107 D(12,7,4,18)    =    179.983548     0.000017     0.226238   180.209786
	  108 D(13,10,2,16)   =     -0.075833     0.000007     0.089870     0.014037
	  109 D(13,10,5,19)   =      0.025437     0.000008     0.099969     0.125407
	  110 D(14,11,5,19)   =     -0.017564     0.000016     0.213722     0.196158
	  111 D(15,1,2,16)    =      0.043120     0.000010     0.121857     0.164977
	  112 D(17,3,6,20)    =      0.055298     0.000008     0.101011     0.156309
	  113 D(18,4,7,21)    =     -0.103191     0.000013     0.166383     0.063192
	  114 D(20,6,12,22)   =     -0.136036     0.000007     0.087006    -0.049030
	  115 D(21,7,12,22)   =      0.137194     0.000007     0.097677     0.234871
	  116 R(4,14)         =      2.636926     0.059199     0.014007     2.650933
	 ---------------------------------------------------------------------------
	Successfully symmetrized geometry.
	 Forces used to impose fixed constraints are not included.
	  Forces zeroed: 64 

  ==> Convergence Check <==

  Measures of convergence in internal coordinates in au.
  Criteria marked as inactive (o), active & met (*), and active & unmet ( ).
  --------------------------------------------------------------------------------------------- ~
   Step     Total Energy     Delta E     MAX Force     RMS Force      MAX Disp      RMS Disp    ~
  --------------------------------------------------------------------------------------------- ~
    Convergence Criteria    1.00e-06 *    3.00e-04 *             o    1.20e-03 *             o  ~
  --------------------------------------------------------------------------------------------- ~
      1    -653.24537628   -6.53e+02      1.79e-02      5.10e-03 o    2.65e-02      9.28e-03 o  ~
  ---------------------------------------------------------------------------------------------

	Writing optimization data to binary file.
	Structure for next step:
	Cartesian Geometry (in Angstrom)
	    C    -1.3526603293   0.7741734750  -0.7713567467
	    C    -2.4218012565   1.3426594178  -0.1014038270
	    C     0.6456742621  -0.9774248608  -2.0409502513
	    C     2.0899800229  -0.4552495813  -0.1890233213
	    C    -1.4237683343   0.7185876616   2.0035152157
	    C     1.7217548139  -1.5400027177  -2.6915233809
	    C     3.1355440589  -1.0288230194  -0.8799731038
	    C    -0.3051715388   0.1733618557  -0.0686413687
	    C     0.8179266522  -0.4240013144  -0.7699392149
	    C    -2.4590655524   1.3151223582   1.2881704361
	    C    -0.3614966418   0.1576618409   1.3221542636
	    N     2.9241034884  -1.5495697451  -2.0978761025
	    O    -3.5153013879   1.8765881198   1.9157899300
	    F     0.6257683248  -0.4173283415   2.0205226384
	    H    -1.3391427962   0.8064597511  -1.8520626320
	    H    -3.2261988627   1.8062806478  -0.6563478294
	    H    -0.3188799969  -0.9775518760  -2.5266508327
	    H     2.2746743928  -0.0378338178   0.7866434624
	    H    -1.4424985491   0.6890426769   3.0853033171
	    H     1.6646168364  -1.9863898416  -3.6720565048
	    H     4.1437770005  -1.0887513912  -0.5002724107
	    H     3.7060639244  -1.9688247845  -2.5902228520
	    H    -3.4164107049   1.7883427779   2.8722266835
			--------------------------
			 OPTKING Finished Execution 
			--------------------------

    Structure for next step:
    Molecular point group: c1
    Full point group: C1

    Geometry (in Angstrom), charge = 1, multiplicity = 1:

    C           -1.351150839602     0.773728757004    -0.770158469895
    C           -2.420291766843     1.342214699820    -0.100205550133
    C            0.647183751810    -0.977869578778    -2.039751974423
    C            2.091489512603    -0.455694299267    -0.187825044474
    C           -1.422258844569     0.718142943631     2.004713492511
    C            1.723264303634    -1.540447435711    -2.690325104061
    C            3.137053548635    -1.029267737400    -0.878774826952
    C           -0.303662049048     0.172917137690    -0.067443091818
    C            0.819436141906    -0.424446032413    -0.768740938110
    C           -2.457556062733     1.314677640199     1.289368712932
    C           -0.359987152143     0.157217122875     1.323352540487
    N            2.925612978140    -1.550014463136    -2.096677825699
    O           -3.513791898239     1.876143401799     1.916988206863
    F            0.627277814535    -0.417773059462     2.021720915243
    H           -1.337633306450     0.806015033089    -1.850864355198
    H           -3.224689373041     1.805835929815    -0.655149552523
    H           -0.317370507204    -0.977996593986    -2.525452555895
    H            2.276183882554    -0.038278535778     0.787841739238
    H           -1.440989059430     0.688597958950     3.086501593918
    H            1.666126326077    -1.986834559584    -3.670858227920
    H            4.145286490242    -1.089196109164    -0.499074133842
    H            3.707573414081    -1.969269502478    -2.589024575201
    H           -3.414901215236     1.787898059874     2.873424960383

gradient() will perform analytic gradient computation.

*** tstart() called on gpu-2-5.local
*** at Sat Nov 11 19:08:17 2017

    SCF Algorithm Type (re)set to DF.

*** tstart() called on gpu-2-5.local
*** at Sat Nov 11 19:08:17 2017

   => Loading Basis Set <=

    Name: AUG-CC-PVTZ
    Role: ORBITAL
    Keyword: BASIS
    atoms 1-11  entry C          line   221 file /cbio/jclab/home/chayas/anaconda/envs/py35/share/psi4/basis/aug-cc-pvtz.gbs 
    atoms 12    entry N          line   267 file /cbio/jclab/home/chayas/anaconda/envs/py35/share/psi4/basis/aug-cc-pvtz.gbs 
    atoms 13    entry O          line   313 file /cbio/jclab/home/chayas/anaconda/envs/py35/share/psi4/basis/aug-cc-pvtz.gbs 
    atoms 14    entry F          line   359 file /cbio/jclab/home/chayas/anaconda/envs/py35/share/psi4/basis/aug-cc-pvtz.gbs 
    atoms 15-23 entry H          line    34 file /cbio/jclab/home/chayas/anaconda/envs/py35/share/psi4/basis/aug-cc-pvtz.gbs 


         ---------------------------------------------------------
                                   SCF
            by Justin Turney, Rob Parrish, and Andy Simmonett
                              RHF Reference
                        8 Threads,   4768 MiB Core
         ---------------------------------------------------------

  ==> Geometry <==

    Molecular point group: c1
    Full point group: C1

    Geometry (in Angstrom), charge = 1, multiplicity = 1:

       Center              X                  Y                   Z               Mass       
    ------------   -----------------  -----------------  -----------------  -----------------
           C         -1.351150839602     0.773728757004    -0.770158469895    12.000000000000
           C         -2.420291766843     1.342214699820    -0.100205550133    12.000000000000
           C          0.647183751810    -0.977869578778    -2.039751974423    12.000000000000
           C          2.091489512603    -0.455694299267    -0.187825044474    12.000000000000
           C         -1.422258844569     0.718142943631     2.004713492511    12.000000000000
           C          1.723264303634    -1.540447435711    -2.690325104061    12.000000000000
           C          3.137053548635    -1.029267737400    -0.878774826952    12.000000000000
           C         -0.303662049048     0.172917137690    -0.067443091818    12.000000000000
           C          0.819436141906    -0.424446032413    -0.768740938110    12.000000000000
           C         -2.457556062733     1.314677640199     1.289368712932    12.000000000000
           C         -0.359987152143     0.157217122875     1.323352540487    12.000000000000
           N          2.925612978140    -1.550014463136    -2.096677825699    14.003074004780
           O         -3.513791898239     1.876143401799     1.916988206863    15.994914619560
           F          0.627277814535    -0.417773059462     2.021720915243    18.998403224000
           H         -1.337633306450     0.806015033089    -1.850864355198     1.007825032070
           H         -3.224689373041     1.805835929815    -0.655149552523     1.007825032070
           H         -0.317370507204    -0.977996593986    -2.525452555895     1.007825032070
           H          2.276183882554    -0.038278535778     0.787841739238     1.007825032070
           H         -1.440989059430     0.688597958950     3.086501593918     1.007825032070
           H          1.666126326077    -1.986834559584    -3.670858227920     1.007825032070
           H          4.145286490242    -1.089196109164    -0.499074133842     1.007825032070
           H          3.707573414081    -1.969269502478    -2.589024575201     1.007825032070
           H         -3.414901215236     1.787898059874     2.873424960383     1.007825032070

  Running in c1 symmetry.

  Rotational constants: A =      0.06342  B =      0.01324  C =      0.01118 [cm^-1]
  Rotational constants: A =   1901.37982  B =    396.94256  C =    335.21955 [MHz]
  Nuclear repulsion =  832.673205139669903

  Charge       = 1
  Multiplicity = 1
  Electrons    = 98
  Nalpha       = 49
  Nbeta        = 49

  ==> Algorithm <==

  SCF Algorithm Type is DF.
  DIIS enabled.
  MOM disabled.
  Fractional occupation disabled.
  Guess Type is READ.
  Energy threshold   = 1.00e-10
  Density threshold  = 1.00e-10
  Integral threshold = 0.00e+00

  ==> Primary Basis <==

  Basis Set: AUG-CC-PVTZ
    Blend: AUG-CC-PVTZ
    Number of shells: 277
    Number of basis function: 851
    Number of Cartesian functions: 995
    Spherical Harmonics?: true
    Max angular momentum: 3

   => Loading Basis Set <=

    Name: (AUG-CC-PVTZ AUX)
    Role: JKFIT
    Keyword: DF_BASIS_SCF
    atoms 1-11  entry C          line   161 file /cbio/jclab/home/chayas/anaconda/envs/py35/share/psi4/basis/aug-cc-pvtz-jkfit.gbs 
    atoms 12    entry N          line   223 file /cbio/jclab/home/chayas/anaconda/envs/py35/share/psi4/basis/aug-cc-pvtz-jkfit.gbs 
    atoms 13    entry O          line   285 file /cbio/jclab/home/chayas/anaconda/envs/py35/share/psi4/basis/aug-cc-pvtz-jkfit.gbs 
    atoms 14    entry F          line   347 file /cbio/jclab/home/chayas/anaconda/envs/py35/share/psi4/basis/aug-cc-pvtz-jkfit.gbs 
    atoms 15-23 entry H          line    69 file /cbio/jclab/home/chayas/anaconda/envs/py35/share/psi4/basis/aug-cc-pvtz-jkfit.gbs 

  Reading orbitals from file 180, no projection.

  ==> Pre-Iterations <==

   -------------------------------------------------------
    Irrep   Nso     Nmo     Nalpha   Nbeta   Ndocc  Nsocc
   -------------------------------------------------------
     A        851     851       0       0       0       0
   -------------------------------------------------------
    Total     851     851      49      49      49       0
   -------------------------------------------------------

  ==> Integral Setup <==

  ==> DFJK: Density-Fitted J/K Matrices <==

    J tasked:                  Yes
    K tasked:                  Yes
    wK tasked:                  No
    OpenMP threads:              8
    Integrals threads:           8
    Memory (MB):              3576
    Algorithm:                Disk
    Integral Cache:           NONE
    Schwarz Cutoff:          1E-12
    Fitting Condition:       1E-12

   => Auxiliary Basis Set <=

  Basis Set: (AUG-CC-PVTZ AUX)
    Blend: AUG-CC-PVTZ-JKFIT
    Number of shells: 546
    Number of basis function: 1870
    Number of Cartesian functions: 2329
    Spherical Harmonics?: true
    Max angular momentum: 4

  Minimum eigenvalue in the overlap matrix is 6.0811333489E-07.
  Using Symmetric Orthogonalization.

  SCF Guess: Orbitals guess was supplied from a previous computation.

  ==> Iterations <==

                           Total Energy        Delta E     RMS |[F,P]|

   @DF-RHF iter   0:  -650.64960677939132   -6.50650e+02   3.14657e-04 
   @DF-RHF iter   1:  -650.56607646266320    8.35303e-02   9.37363e-05 
   @DF-RHF iter   2:  -650.56638796997322   -3.11507e-04   6.42541e-05 DIIS
   @DF-RHF iter   3:  -650.56659872976729   -2.10760e-04   9.27722e-06 DIIS
   @DF-RHF iter   4:  -650.56660620384071   -7.47407e-06   3.65804e-06 DIIS
   @DF-RHF iter   5:  -650.56660837774075   -2.17390e-06   1.49604e-06 DIIS
   @DF-RHF iter   6:  -650.56660896894562   -5.91205e-07   9.33746e-07 DIIS
   @DF-RHF iter   7:  -650.56660920948298   -2.40537e-07   4.21766e-07 DIIS
   @DF-RHF iter   8:  -650.56660926635277   -5.68698e-08   8.00715e-08 DIIS
   @DF-RHF iter   9:  -650.56660926998563   -3.63286e-09   2.64034e-08 DIIS
   @DF-RHF iter  10:  -650.56660927025746   -2.71825e-10   1.20377e-08 DIIS
   @DF-RHF iter  11:  -650.56660927033533   -7.78755e-11   6.31398e-09 DIIS
   @DF-RHF iter  12:  -650.56660927033340    1.93268e-12   2.23734e-09 DIIS
   @DF-RHF iter  13:  -650.56660927031646    1.69393e-11   1.07680e-09 DIIS
   @DF-RHF iter  14:  -650.56660927034295   -2.64890e-11   4.15402e-10 DIIS
   @DF-RHF iter  15:  -650.56660927036000   -1.70530e-11   1.52288e-10 DIIS
   @DF-RHF iter  16:  -650.56660927034318    1.68257e-11   4.74516e-11 DIIS

  ==> Post-Iterations <==

    Orbital Energies (a.u.)
    -----------------------

    Doubly Occupied:                                                      

       1A    -26.451571     2A    -20.714817     3A    -15.831075  
       4A    -11.481908     5A    -11.479390     6A    -11.475358  
       7A    -11.451886     8A    -11.447082     9A    -11.413793  
      10A    -11.409003    11A    -11.388796    12A    -11.381633  
      13A    -11.364409    14A    -11.355540    15A     -1.773687  
      16A     -1.534845    17A     -1.509291    18A     -1.323962  
      19A     -1.275005    20A     -1.237991    21A     -1.168151  
      22A     -1.161435    23A     -1.067935    24A     -1.061181  
      25A     -0.998275    26A     -0.973135    27A     -0.959641  
      28A     -0.901051    29A     -0.874972    30A     -0.863082  
      31A     -0.855474    32A     -0.839791    33A     -0.822023  
      34A     -0.807768    35A     -0.788872    36A     -0.773946  
      37A     -0.768591    38A     -0.754265    39A     -0.727899  
      40A     -0.717122    41A     -0.710249    42A     -0.690341  
      43A     -0.660800    44A     -0.650192    45A     -0.637975  
      46A     -0.574540    47A     -0.537364    48A     -0.478601  
      49A     -0.446795  

    Virtual:                                                              

      50A     -0.107355    51A     -0.083172    52A     -0.061702  
      53A     -0.059627    54A     -0.055886    55A     -0.047637  
      56A     -0.043624    57A     -0.039508    58A     -0.032606  
      59A     -0.026624    60A     -0.023775    61A     -0.020003  
      62A     -0.015015    63A     -0.009921    64A     -0.006988  
      65A     -0.000394    66A      0.005526    67A      0.006850  
      68A      0.010323    69A      0.015225    70A      0.019120  
      71A      0.022212    72A      0.024291    73A      0.028462  
      74A      0.028994    75A      0.033541    76A      0.037932  
      77A      0.038836    78A      0.041274    79A      0.045698  
      80A      0.050597    81A      0.056805    82A      0.058156  
      83A      0.064488    84A      0.068236    85A      0.070402  
      86A      0.072529    87A      0.075180    88A      0.082310  
      89A      0.083392    90A      0.085665    91A      0.094909  
      92A      0.096677    93A      0.106878    94A      0.110072  
      95A      0.111733    96A      0.117147    97A      0.122719  
      98A      0.122840    99A      0.127392   100A      0.133420  
     101A      0.136091   102A      0.137439   103A      0.140265  
     104A      0.143532   105A      0.151455   106A      0.155780  
     107A      0.159572   108A      0.160774   109A      0.165312  
     110A      0.168041   111A      0.170103   112A      0.174254  
     113A      0.181346   114A      0.184346   115A      0.187069  
     116A      0.189865   117A      0.194728   118A      0.200408  
     119A      0.204262   120A      0.205390   121A      0.209548  
     122A      0.217283   123A      0.218846   124A      0.220699  
     125A      0.222411   126A      0.223619   127A      0.233374  
     128A      0.236070   129A      0.237778   130A      0.240760  
     131A      0.245711   132A      0.249352   133A      0.251454  
     134A      0.260942   135A      0.268481   136A      0.270365  
     137A      0.272669   138A      0.277219   139A      0.281789  
     140A      0.282269   141A      0.288451   142A      0.295705  
     143A      0.297060   144A      0.304032   145A      0.305504  
     146A      0.310186   147A      0.312308   148A      0.319984  
     149A      0.323293   150A      0.325274   151A      0.329769  
     152A      0.332351   153A      0.338398   154A      0.338859  
     155A      0.341179   156A      0.342692   157A      0.344535  
     158A      0.350813   159A      0.354390   160A      0.357984  
     161A      0.365153   162A      0.367590   163A      0.371368  
     164A      0.374335   165A      0.376633   166A      0.377561  
     167A      0.384362   168A      0.389347   169A      0.390944  
     170A      0.393131   171A      0.395696   172A      0.401251  
     173A      0.406247   174A      0.407947   175A      0.410121  
     176A      0.414200   177A      0.418204   178A      0.420446  
     179A      0.424656   180A      0.429982   181A      0.432273  
     182A      0.436716   183A      0.442341   184A      0.444151  
     185A      0.450436   186A      0.454118   187A      0.456549  
     188A      0.466890   189A      0.472298   190A      0.475614  
     191A      0.486352   192A      0.488267   193A      0.495644  
     194A      0.496733   195A      0.506105   196A      0.511480  
     197A      0.518447   198A      0.527233   199A      0.532301  
[...]
	 B(6,3,9)         =         2.111388	     120.973600
	 B(6,3,17)        =         2.064400	     118.281402
	 B(6,12,7)        =         2.137162	     122.450380
	 B(6,12,22)       =         2.073087	     118.779119
	 B(7,4,9)         =         2.105330	     120.626539
	 B(7,4,18)        =         2.065950	     118.370212
	 B(7,12,22)       =         2.072930	     118.770130
	 B(8,1,15)        =         2.083305	     119.364609
	 B(8,11,14)       =         2.081543	     119.263638
	 B(9,3,17)        =         2.106912	     120.717158
	 B(9,4,18)        =         2.111678	     120.990221
	 B(9,8,11)        =         2.142345	     122.747304
	 B(10,2,16)       =         2.076326	     118.964712
	 B(10,5,11)       =         2.076220	     118.958619
	 B(10,5,19)       =         2.129358	     122.003209
	 B(10,13,23)      =         1.934964	     110.865255
	 B(11,5,19)       =         2.077577	     119.036370
	 B(12,6,20)       =         2.042186	     117.008659
	 B(12,7,21)       =         2.040804	     116.929475
	 D(1,2,10,5)      =         0.008032	       0.460189
	 D(1,2,10,13)     =        -3.135215	    -179.634587
	 D(1,8,9,3)       =        -0.523171	     -29.975515
	 D(1,8,9,4)       =         2.605284	     149.271783
	 D(1,8,11,5)      =         0.008092	       0.463663
	 D(1,8,11,14)     =         3.107367	     178.038988
	 D(2,1,8,9)       =        -3.137224	    -179.749712
	 D(2,1,8,11)      =         0.007410	       0.424589
	 D(2,10,5,11)     =         0.006771	       0.387955
	 D(2,10,5,19)     =        -3.126212	    -179.118740
	 D(2,10,13,23)    =        -3.137475	    -179.764094
	 D(3,6,12,7)      =        -0.000607	      -0.034776
	 D(3,6,12,22)     =         3.137069	     179.740797
	 D(3,9,4,7)       =         0.005168	       0.296087
	 D(3,9,4,18)      =         3.123470	     178.961648
	 D(3,9,8,11)      =         2.615181	     149.838812
	 D(4,7,12,6)      =         0.001879	       0.107659
	 D(4,7,12,22)     =        -3.135797	    -179.667933
	 D(4,9,3,6)       =        -0.003919	      -0.224519
	 D(4,9,3,17)      =         3.103601	     177.823247
	 D(4,9,8,11)      =        -0.539549	     -30.913889
	 D(5,10,2,16)     =        -3.123886	    -178.985470
	 D(5,10,13,23)    =         0.002401	       0.137584
	 D(5,11,8,9)      =        -3.130396	    -179.358477
	 D(6,3,9,8)       =         3.125279	     179.065320
	 D(6,12,7,21)     =        -3.131340	    -179.412591
	 D(7,4,9,8)       =        -3.123712	    -178.975533
	 D(7,12,6,20)     =        -3.128759	    -179.264683
	 D(8,1,2,10)      =        -0.015368	      -0.880494
	 D(8,1,2,16)      =         3.116328	     178.552466
	 D(8,9,3,17)      =        -0.050386	      -2.886914
	 D(8,9,4,18)      =        -0.005410	      -0.309971
	 D(8,11,5,10)     =        -0.015139	      -0.867425
	 D(8,11,5,19)     =         3.118102	     178.654105
	 D(9,3,6,12)      =         0.001709	       0.097891
	 D(9,3,6,20)      =         3.128920	     179.273935
	 D(9,4,7,12)      =        -0.004242	      -0.243035
	 D(9,4,7,21)      =         3.128409	     179.244637
	 D(9,8,1,15)      =        -0.047215	      -2.705211
	 D(9,8,11,14)     =        -0.031122	      -1.783152
	 D(10,2,1,15)     =        -3.105714	    -177.944295
	 D(10,5,11,14)    =        -3.115082	    -178.481027
	 D(11,5,10,13)    =        -3.133057	    -179.510964
	 D(11,8,1,15)     =         3.097420	     177.469091
	 D(12,6,3,17)     =        -3.106621	    -177.996295
	 D(12,7,4,18)     =        -3.123143	    -178.942939
	 D(13,10,2,16)    =         0.016053	       0.919754
	 D(13,10,5,19)    =         0.017145	       0.982341
	 D(14,11,5,19)    =         0.018160	       1.040504
	 D(15,1,2,16)     =         0.025982	       1.488665
	 D(17,3,6,20)     =         0.020591	       1.179749
	 D(18,4,7,21)     =         0.009507	       0.544733
	 D(20,6,12,22)    =         0.008917	       0.510890
	 D(21,7,12,22)    =         0.014169	       0.811816
	 R(4,14)          =         5.222334	       2.763540

	Current energy   :      -653.2511985769

	Energy change for the previous step:
		Projected    :        -0.0000003347
		Actual       :        -0.0000011066

	Performing BFGS update.
	Previous computed or guess Hessian on step 1.
	Steps to be used in Hessian update: 6 5
	Adding user-defined constraint: Fragment 1; Coordinate 64:
		Value =    -0.523171; Fixed value    =    -0.523600
		Force =    -0.000279; Force constant =     0.650000
	Removing off-diagonal coupling between coordinate 64 and others.
	Taking RFO optimization step.
	Going to follow RFO solution 1.
	Using RFO vector 1.
	Norm of target step-size    0.00275
	Projected energy change by RFO approximation:        -0.0000006328

	Back-transformation to cartesian coordinates...
	Could not converge backtransformation.
	Using first guess instead.

	--- Internal Coordinate Step in ANG or DEG, aJ/ANG or AJ/DEG ---
	 ---------------------------------------------------------------------------
	   Coordinate                Previous        Force       Change         New 
	   ----------                --------       ------       ------       ------
	    1 R(1,2)          =      1.374462     0.000043     0.000013     1.374475
	    2 R(1,8)          =      1.402833    -0.000048    -0.000000     1.402832
	    3 R(1,15)         =      1.079274     0.000019     0.000004     1.079278
	    4 R(2,10)         =      1.394633    -0.000049    -0.000012     1.394622
	    5 R(2,16)         =      1.077897    -0.000088    -0.000011     1.077886
	    6 R(3,6)          =      1.371689     0.000020     0.000008     1.371697
	    7 R(3,9)          =      1.401734    -0.000157    -0.000022     1.401712
	    8 R(3,17)         =      1.077428    -0.000014    -0.000001     1.077427
	    9 R(4,7)          =      1.372529    -0.000080    -0.000008     1.372521
	   10 R(4,9)          =      1.402099     0.000230     0.000023     1.402122
	   11 R(4,18)         =      1.075559    -0.000075    -0.000005     1.075554
	   12 R(5,10)         =      1.389838    -0.000011    -0.000007     1.389831
	   13 R(5,11)         =      1.374345    -0.000112    -0.000002     1.374343
	   14 R(5,19)         =      1.079052    -0.000039    -0.000000     1.079052
	   15 R(6,12)         =      1.342927     0.000048     0.000002     1.342929
	   16 R(6,20)         =      1.077155    -0.000014     0.000000     1.077156
	   17 R(7,12)         =      1.342689     0.000155     0.000014     1.342702
	   18 R(7,21)         =      1.077167    -0.000010     0.000000     1.077167
	   19 R(8,9)          =      1.444356     0.000044     0.000028     1.444384
	   20 R(8,11)         =      1.393865     0.000179     0.000020     1.393885
	   21 R(10,13)        =      1.341183    -0.000185    -0.000013     1.341170
	   22 R(11,14)        =      1.344207    -0.000659    -0.000083     1.344123
	   23 R(12,22)        =      1.011871    -0.000041    -0.000003     1.011868
	   24 R(13,23)        =      0.963942    -0.000038    -0.000001     0.963941
	   25 B(1,2,10)       =    119.828580    -0.000001    -0.004433   119.824147
	   26 B(1,2,16)       =    121.204328    -0.000001    -0.008857   121.195471
	   27 B(1,8,9)        =    120.881011    -0.000001    -0.005685   120.875326
	   28 B(1,8,11)       =    116.371443    -0.000000     0.001512   116.372954
	   29 B(2,1,8)        =    121.882309     0.000001     0.003860   121.886169
	   30 B(2,1,15)       =    118.688772    -0.000001    -0.004461   118.684311
	   31 B(2,10,5)       =    119.836706     0.000000    -0.000363   119.836344
	   32 B(2,10,13)      =    116.900594    -0.000000     0.002116   116.902710
	   33 B(3,6,12)       =    119.363662    -0.000000    -0.000047   119.363616
	   34 B(3,6,20)       =    123.622853     0.000000     0.001186   123.624039
	   35 B(3,9,4)        =    116.914043     0.000000     0.002807   116.916850
	   36 B(3,9,8)        =    120.358919     0.000002     0.006750   120.365668
	   37 B(4,7,12)       =    119.671148    -0.000001    -0.002898   119.668250
	   38 B(4,7,21)       =    123.397514     0.000001     0.004639   123.402153
	   39 B(4,9,8)        =    122.723013    -0.000003    -0.009559   122.713455
	   40 B(5,10,13)      =    123.262628    -0.000000    -0.001763   123.260865
	   41 B(5,11,8)       =    123.113884    -0.000001    -0.007883   123.106001
	   42 B(5,11,14)      =    117.580183     0.000001     0.002434   117.582616
	   43 B(6,3,9)        =    120.973600     0.000000    -0.002344   120.971256
	   44 B(6,3,17)       =    118.281402    -0.000000    -0.000036   118.281366
	   45 B(6,12,7)       =    122.450380     0.000001     0.002636   122.453016
	   46 B(6,12,22)      =    118.779119    -0.000000    -0.001895   118.777223
	   47 B(7,4,9)        =    120.626539     0.000000    -0.000180   120.626358
	   48 B(7,4,18)       =    118.370212     0.000001     0.005570   118.375783
	   49 B(7,12,22)      =    118.770130    -0.000000    -0.000744   118.769387
	   50 B(8,1,15)       =    119.364609    -0.000000     0.001186   119.365795
	   51 B(8,11,14)      =    119.263638    -0.000000     0.002144   119.265782
	   52 B(9,3,17)       =    120.717158     0.000000     0.002169   120.719327
	   53 B(9,4,18)       =    120.990221    -0.000001    -0.005379   120.984842
	   54 B(9,8,11)       =    122.747304     0.000001     0.004216   122.751519
	   55 B(10,2,16)      =    118.964712     0.000003     0.013340   118.978052
	   56 B(10,5,11)      =    118.958619     0.000001     0.007011   118.965630
	   57 B(10,5,19)      =    122.003209    -0.000001    -0.006929   121.996280
	   58 B(10,13,23)     =    110.865255    -0.000001    -0.003590   110.861665
	   59 B(11,5,19)      =    119.036370     0.000000    -0.000133   119.036236
	   60 B(12,6,20)      =    117.008659     0.000000    -0.001029   117.007630
	   61 B(12,7,21)      =    116.929475    -0.000000    -0.001710   116.927765
	   62 D(1,2,10,5)     =      0.460189     0.000000     0.011002     0.471191
	   63 D(1,2,10,13)    =   -179.634587     0.000000     0.005259  -179.629328
	   64 D(1,8,9,3)      =    -29.975515    -0.000001    -0.006092   -29.981607
	   65 D(1,8,9,4)      =    149.271783    -0.000000    -0.006297   149.265486
	   66 D(1,8,11,5)     =      0.463663     0.000000     0.041204     0.504867
	   67 D(1,8,11,14)    =    178.038988    -0.000000    -0.051620   177.987368
	   68 D(2,1,8,9)      =   -179.749712    -0.000000    -0.010460  -179.760172
	   69 D(2,1,8,11)     =      0.424589    -0.000000    -0.026486     0.398103
	   70 D(2,10,5,11)    =      0.387955     0.000000     0.002704     0.390659
	   71 D(2,10,5,19)    =   -179.118740     0.000000     0.009770  -179.108970
	   72 D(2,10,13,23)   =   -179.764094    -0.000000    -0.010573  -179.774668
	   73 D(3,6,12,7)     =     -0.034776     0.000000     0.017236    -0.017540
	   74 D(3,6,12,22)    =    179.740797     0.000000     0.016285   179.757082
	   75 D(3,9,4,7)      =      0.296087     0.000000     0.009927     0.306013
	   76 D(3,9,4,18)     =    178.961648     0.000000     0.010567   178.972215
	   77 D(3,9,8,11)     =    149.838812    -0.000000     0.010974   149.849787
	   78 D(4,7,12,6)     =      0.107659    -0.000000    -0.006897     0.100762
	   79 D(4,7,12,22)    =   -179.667933    -0.000000    -0.005944  -179.673877
	   80 D(4,9,3,6)      =     -0.224519    -0.000000     0.000418    -0.224100
	   81 D(4,9,3,17)     =    177.823247    -0.000000    -0.006975   177.816272
	   82 D(4,9,8,11)     =    -30.913889    -0.000000     0.010769   -30.903120
	   83 D(5,10,2,16)    =   -178.985470     0.000000     0.005220  -178.980250
	   84 D(5,10,13,23)   =      0.137584    -0.000000    -0.016529     0.121055
	   85 D(5,11,8,9)     =   -179.358477     0.000000     0.024868  -179.333609
	   86 D(6,3,9,8)      =    179.065320     0.000000     0.000131   179.065451
	   87 D(6,12,7,21)    =   -179.412591    -0.000000    -0.010987  -179.423578
	   88 D(7,4,9,8)      =   -178.975533    -0.000000     0.010093  -178.965440
	   89 D(7,12,6,20)    =   -179.264683     0.000000     0.008355  -179.256328
	   90 D(8,1,2,10)     =     -0.880494    -0.000000     0.001537    -0.878956
	   91 D(8,1,2,16)     =    178.552466     0.000000     0.007576   178.560043
	   92 D(8,9,3,17)     =     -2.886914     0.000000    -0.007262    -2.894176
	   93 D(8,9,4,18)     =     -0.309971    -0.000000     0.010733    -0.299238
	   94 D(8,11,5,10)    =     -0.867425    -0.000000    -0.030028    -0.897453
	   95 D(8,11,5,19)    =    178.654105    -0.000000    -0.036917   178.617188
	   96 D(9,3,6,12)     =      0.097891    -0.000000    -0.013705     0.084186
	   97 D(9,3,6,20)     =    179.273935     0.000000    -0.004222   179.269714
	   98 D(9,4,7,12)     =     -0.243035    -0.000000    -0.007045    -0.250080
	   99 D(9,4,7,21)     =    179.244637    -0.000000    -0.002712   179.241924
	  100 D(9,8,1,15)     =     -2.705211     0.000000     0.002887    -2.702324
	  101 D(9,8,11,14)    =     -1.783152    -0.000001    -0.067957    -1.851109
	  102 D(10,2,1,15)    =   -177.944295    -0.000000    -0.011880  -177.956175
	  103 D(10,5,11,14)   =   -178.481027     0.000001     0.061333  -178.419694
	  104 D(11,5,10,13)   =   -179.510964     0.000000     0.008824  -179.502140
	  105 D(11,8,1,15)    =    177.469091    -0.000000    -0.013140   177.455951
	  106 D(12,6,3,17)    =   -177.996295    -0.000000    -0.006531  -178.002826
	  107 D(12,7,4,18)    =   -178.942939    -0.000000    -0.007527  -178.950466
	  108 D(13,10,2,16)   =      0.919754    -0.000000    -0.000522     0.919232
	  109 D(13,10,5,19)   =      0.982341     0.000000     0.015890     0.998232
	  110 D(14,11,5,19)   =      1.040504     0.000001     0.054443     1.094947
	  111 D(15,1,2,16)    =      1.488665    -0.000000    -0.005841     1.482824
	  112 D(17,3,6,20)    =      1.179749     0.000000     0.002952     1.182701
	  113 D(18,4,7,21)    =      0.544733    -0.000000    -0.003194     0.541538
	  114 D(20,6,12,22)   =      0.510890     0.000000     0.007404     0.518294
	  115 D(21,7,12,22)   =      0.811816    -0.000000    -0.010034     0.801783
	  116 R(4,14)         =      2.763540     0.000094     0.000272     2.763812
	 ---------------------------------------------------------------------------
	Successfully symmetrized geometry.
	 Forces used to impose fixed constraints are not included.
	  Forces zeroed: 64 

  ==> Convergence Check <==

  Measures of convergence in internal coordinates in au.
  Criteria marked as inactive (o), active & met (*), and active & unmet ( ).
  ---------------------------------------------------------------------------------------------
   Step     Total Energy     Delta E     MAX Force     RMS Force      MAX Disp      RMS Disp   
  ---------------------------------------------------------------------------------------------
    Convergence Criteria    1.00e-06 *    3.00e-04 *             o    1.20e-03 *             o
  ---------------------------------------------------------------------------------------------
      7    -653.25119858   -1.11e-06      7.99e-05 *    1.43e-05 o    1.19e-03 *    2.55e-04 o  ~
  ---------------------------------------------------------------------------------------------


  **** Optimization is complete! (in 7 steps) ****

  ==> Optimization Summary <==

  Measures of convergence in internal coordinates in au.
  --------------------------------------------------------------------------------------------------------------- ~
   Step         Total Energy             Delta E       MAX Force       RMS Force        MAX Disp        RMS Disp  ~
  --------------------------------------------------------------------------------------------------------------- ~
      1    -653.245376284733   -653.245376284733      0.01790308      0.00510476      0.02646911      0.00928457  ~
      2    -653.249202924789     -0.003826640056      0.00670575      0.00227364      0.05487638      0.00928169  ~
      3    -653.250649972348     -0.001447047559      0.00399864      0.00076279      0.07170002      0.00928453  ~
      4    -653.251079173016     -0.000429200668      0.00195178      0.00027248      0.05935241      0.00707081  ~
      5    -653.251185658188     -0.000106485171      0.00057424      0.00011233      0.02163231      0.00260069  ~
      6    -653.251197470374     -0.000011812186      0.00023144      0.00004478      0.00523514      0.00092722  ~
      7    -653.251198576937     -0.000001106564      0.00007995      0.00001463      0.00118607      0.00025534  ~
  --------------------------------------------------------------------------------------------------------------- ~

	Writing optimization data to binary file.
	Final energy is   -653.2511985769374
	Final (previous) structure:
	Cartesian Geometry (in Angstrom)
	    C    -1.3331831364   0.7644215284  -0.7483050762
	    C    -2.4023307854   1.3392338672  -0.1035888327
	    C     0.6594495271  -0.9840155883  -2.0191796476
	    C     2.1314989587  -0.4711148710  -0.2081005986
	    C    -1.4436543219   0.7220275272   2.0190001295
	    C     1.7141820396  -1.5333518413  -2.7027723530
	    C     3.1651726856  -1.0270539992  -0.9196388670
	    C    -0.2794497281   0.1629144907  -0.0441924983
	    C     0.8363958496  -0.4301173768  -0.7437405062
	    C    -2.4661308060   1.3169073170   1.2894054254
	    C    -0.3793696464   0.1713226446   1.3460606994
	    N     2.9326310189  -1.5407927798  -2.1381665772
	    O    -3.5386902859   1.8881067638   1.8569606109
	    F     0.5784653524  -0.4242741857   2.0772980716
	    H    -1.2856201044   0.8216621035  -1.8250101923
	    H    -3.1948168986   1.8188031828  -0.6548072452
	    H    -0.3165307618  -1.0167249578  -2.4744201045
	    H     2.3446025113  -0.0502480061   0.7584831124
	    H    -1.4640647296   0.6726759519   3.0967298671
	    H     1.6246004843  -1.9800763747  -3.6788235249
	    H     4.1783663542  -1.0715787403  -0.5566730768
	    H     3.7035763357  -1.9518337417  -2.6486288554
	    H    -3.4922151628   1.8267786223   2.8178263552
	Saving final (previous) structure.
			--------------------------
			 OPTKING Finished Execution 
			--------------------------

    Final optimized geometry and variables:
    Molecular point group: c1
    Full point group: C1

    Geometry (in Angstrom), charge = 1, multiplicity = 1:

    C           -1.333183136414     0.764421528361    -0.748305076188
    C           -2.402330785376     1.339233867151    -0.103588832664
    C            0.659449527135    -0.984015588309    -2.019179647613
    C            2.131498958735    -0.471114871032    -0.208100598599
    C           -1.443654321851     0.722027527192     2.019000129549
    C            1.714182039638    -1.533351841272    -2.702772352983
    C            3.165172685641    -1.027053999232    -0.919638866956
    C           -0.279449728115     0.162914490726    -0.044192498295
    C            0.836395849590    -0.430117376778    -0.743740506206
    C           -2.466130806018     1.316907317001     1.289405425373
    C           -0.379369646437     0.171322644584     1.346060699360
    N            2.932631018859    -1.540792779788    -2.138166577170
    O           -3.538690285906     1.888106763812     1.856960610934
    F            0.578465352418    -0.424274185741     2.077298071627
    H           -1.285620104394     0.821662103498    -1.825010192256
    H           -3.194816898603     1.818803182781    -0.654807245197
    H           -0.316530761771    -1.016724957775    -2.474420104483
    H            2.344602511270    -0.050248006144     0.758483112422
    H           -1.464064729596     0.672675951885     3.096729867091
    H            1.624600484345    -1.980076374714    -3.678823524874
    H            4.178366354203    -1.071578740282    -0.556673076846
    H            3.703576335653    -1.951833741724    -2.648628855382
    H           -3.492215162807     1.826778622297     2.817826355175

	Cleaning optimization helper files.

*** Psi4 exiting successfully. Buy a developer a beer!
