
    -----------------------------------------------------------------------
          Psi4: An Open-Source Ab Initio Electronic Structure Package
                               Psi4 1.1 release

                         Git: Rev {HEAD} add49b9 


    R. M. Parrish, L. A. Burns, D. G. A. Smith, A. C. Simmonett,
    A. E. DePrince III, E. G. Hohenstein, U. Bozkaya, A. Yu. Sokolov,
    R. Di Remigio, R. M. Richard, J. F. Gonthier, A. M. James,
    H. R. McAlexander, A. Kumar, M. Saitow, X. Wang, B. P. Pritchard,
    P. Verma, H. F. Schaefer III, K. Patkowski, R. A. King, E. F. Valeev,
    F. A. Evangelista, J. M. Turney, T. D. Crawford, and C. D. Sherrill,
    J. Chem. Theory Comput. in press (2017).
    (doi: 10.1021/acs.jctc.7b00174)

    -----------------------------------------------------------------------


    Psi4 started on: Saturday, 11 November 2017 09:40AM

    Process ID:  30416
    PSIDATADIR: /cbio/jclab/home/chayas/anaconda/envs/py35/share/psi4
    Memory:     500.0 MiB
    Threads:    8
    
  ==> Input File <==

--------------------------------------------------------------------------

molecule phepyr {
  symmetry C1
  0 1 
  C      1.885   -1.036   -0.112
  C      0.807   -0.463   0.561
  C      2.921   -1.631   0.608
  C      0.764   -0.484   1.955
  C      2.878   -1.652   2.002
  C      2.762   -0.490   4.861
  C      0.703   -1.731   4.778
  C      2.672   -0.538   6.243
  C      0.706   -1.723   6.163
  C      1.800   -1.079   2.676
  C      1.755   -1.100   4.122
  N      1.667   -1.141   6.915
  H      1.917   -1.021   -1.198
  H      -0.001   -0.002   0.000
  H      3.760   -2.079   0.084
  H      -0.084   -0.033   2.466
  H      3.693   -2.120   2.550
  H      3.598   0.013   4.385
  H      -0.100   -2.218   4.234
  H      3.432   -0.075   6.865
  H      -0.091   -2.202   6.722
  units Angstrom
}

dih_string = "4 10 11 6 240"
set optking fixed_dihedral = $dih_string

optimize('MP2/aug-cc-PVTZ')
--------------------------------------------------------------------------
gradient() will perform analytic gradient computation.

*** tstart() called on gpu-2-11.local
*** at Sat Nov 11 09:40:32 2017

    SCF Algorithm Type (re)set to DF.

*** tstart() called on gpu-2-11.local
*** at Sat Nov 11 09:40:32 2017

   => Loading Basis Set <=

    Name: AUG-CC-PVTZ
    Role: ORBITAL
    Keyword: BASIS
    atoms 1-11  entry C          line   221 file /cbio/jclab/home/chayas/anaconda/envs/py35/share/psi4/basis/aug-cc-pvtz.gbs 
    atoms 12    entry N          line   267 file /cbio/jclab/home/chayas/anaconda/envs/py35/share/psi4/basis/aug-cc-pvtz.gbs 
    atoms 13-21 entry H          line    34 file /cbio/jclab/home/chayas/anaconda/envs/py35/share/psi4/basis/aug-cc-pvtz.gbs 


         ---------------------------------------------------------
                                   SCF
            by Justin Turney, Rob Parrish, and Andy Simmonett
                              RHF Reference
                        8 Threads,    500 MiB Core
         ---------------------------------------------------------

  ==> Geometry <==

    Molecular point group: c1
    Full point group: C1

    Geometry (in Angstrom), charge = 0, multiplicity = 1:

       Center              X                  Y                   Z               Mass       
    ------------   -----------------  -----------------  -----------------  -----------------
           C          0.108879022283     0.053255743543    -3.526042728723    12.000000000000
           C         -0.969120977717     0.626255743543    -2.853042728723    12.000000000000
           C          1.144879022283    -0.541744256457    -2.806042728723    12.000000000000
           C         -1.012120977717     0.605255743543    -1.459042728723    12.000000000000
           C          1.101879022283    -0.562744256457    -1.412042728723    12.000000000000
           C          0.985879022283     0.599255743543     1.446957271277    12.000000000000
           C         -1.073120977717    -0.641744256457     1.363957271277    12.000000000000
           C          0.895879022283     0.551255743543     2.828957271277    12.000000000000
           C         -1.070120977717    -0.633744256457     2.748957271277    12.000000000000
           C          0.023879022283     0.010255743543    -0.738042728723    12.000000000000
           C         -0.021120977717    -0.010744256457     0.707957271277    12.000000000000
           N         -0.109120977717    -0.051744256457     3.500957271277    14.003074004780
           H          0.140879022283     0.068255743543    -4.612042728723     1.007825032070
           H         -1.777120977717     1.087255743543    -3.414042728723     1.007825032070
           H          1.983879022283    -0.989744256457    -3.330042728723     1.007825032070
           H         -1.860120977717     1.056255743543    -0.948042728723     1.007825032070
           H          1.916879022283    -1.030744256457    -0.864042728723     1.007825032070
           H          1.821879022283     1.102255743543     0.970957271277     1.007825032070
           H         -1.876120977717    -1.128744256457     0.819957271277     1.007825032070
           H          1.655879022283     1.014255743543     3.450957271277     1.007825032070
           H         -1.867120977717    -1.112744256457     3.307957271277     1.007825032070

  Running in c1 symmetry.

  Rotational constants: A =      0.09742  B =      0.01824  C =      0.01668 [cm^-1]
  Rotational constants: A =   2920.48809  B =    546.96479  C =    500.07329 [MHz]
  Nuclear repulsion =  605.958615360017006

  Charge       = 0
  Multiplicity = 1
  Electrons    = 82
  Nalpha       = 41
  Nbeta        = 41

  ==> Algorithm <==

  SCF Algorithm Type is DF.
  DIIS enabled.
  MOM disabled.
  Fractional occupation disabled.
  Guess Type is SAD.
  Energy threshold   = 1.00e-10
  Density threshold  = 1.00e-10
  Integral threshold = 0.00e+00

  ==> Primary Basis <==

  Basis Set: AUG-CC-PVTZ
    Blend: AUG-CC-PVTZ
    Number of shells: 249
    Number of basis function: 759
    Number of Cartesian functions: 885
    Spherical Harmonics?: true
    Max angular momentum: 3

   => Loading Basis Set <=

    Name: (AUG-CC-PVTZ AUX)
    Role: JKFIT
    Keyword: DF_BASIS_SCF
    atoms 1-11  entry C          line   161 file /cbio/jclab/home/chayas/anaconda/envs/py35/share/psi4/basis/aug-cc-pvtz-jkfit.gbs 
    atoms 12    entry N          line   223 file /cbio/jclab/home/chayas/anaconda/envs/py35/share/psi4/basis/aug-cc-pvtz-jkfit.gbs 
    atoms 13-21 entry H          line    69 file /cbio/jclab/home/chayas/anaconda/envs/py35/share/psi4/basis/aug-cc-pvtz-jkfit.gbs 

  ==> Pre-Iterations <==

   -------------------------------------------------------
    Irrep   Nso     Nmo     Nalpha   Nbeta   Ndocc  Nsocc
   -------------------------------------------------------
     A        759     759       0       0       0       0
   -------------------------------------------------------
    Total     759     759      41      41      41       0
   -------------------------------------------------------

  ==> Integral Setup <==

  ==> DFJK: Density-Fitted J/K Matrices <==

    J tasked:                  Yes
    K tasked:                  Yes
    wK tasked:                  No
    OpenMP threads:              8
    Integrals threads:           8
    Memory (MB):               375
    Algorithm:                Disk
    Integral Cache:           NONE
    Schwarz Cutoff:          1E-12
    Fitting Condition:       1E-12

   => Auxiliary Basis Set <=

  Basis Set: (AUG-CC-PVTZ AUX)
    Blend: AUG-CC-PVTZ-JKFIT
    Number of shells: 486
    Number of basis function: 1662
    Number of Cartesian functions: 2067
    Spherical Harmonics?: true
    Max angular momentum: 4

  Minimum eigenvalue in the overlap matrix is 4.7950077947E-07.
  Using Symmetric Orthogonalization.

  SCF Guess: Superposition of Atomic Densities via on-the-fly atomic UHF.

  ==> Iterations <==

                           Total Energy        Delta E     RMS |[F,P]|

   @DF-RHF iter   0:  -484.76134206869858   -4.84761e+02   1.94077e-02 
   @DF-RHF iter   1:  -476.12558269558150    8.63576e+00   1.44088e-03 
   @DF-RHF iter   2:  -476.34416272237945   -2.18580e-01   6.91028e-04 DIIS
   @DF-RHF iter   3:  -476.38064413265079   -3.64814e-02   3.64659e-04 DIIS
   @DF-RHF iter   4:  -476.39464662877583   -1.40025e-02   1.04382e-04 DIIS
   @DF-RHF iter   5:  -476.39631570347404   -1.66907e-03   3.98512e-05 DIIS
   @DF-RHF iter   6:  -476.39658146676396   -2.65763e-04   1.29516e-05 DIIS
   @DF-RHF iter   7:  -476.39661476862989   -3.33019e-05   5.44539e-06 DIIS
   @DF-RHF iter   8:  -476.39661992659785   -5.15797e-06   2.52597e-06 DIIS
   @DF-RHF iter   9:  -476.39662179075918   -1.86416e-06   1.24050e-06 DIIS
   @DF-RHF iter  10:  -476.39662243899772   -6.48239e-07   3.76722e-07 DIIS
   @DF-RHF iter  11:  -476.39662247560170   -3.66040e-08   1.28172e-07 DIIS
   @DF-RHF iter  12:  -476.39662247958137   -3.97966e-09   3.47559e-08 DIIS
   @DF-RHF iter  13:  -476.39662247985967   -2.78305e-10   1.39492e-08 DIIS
   @DF-RHF iter  14:  -476.39662247991726   -5.75824e-11   6.26063e-09 DIIS
   @DF-RHF iter  15:  -476.39662247993061   -1.33582e-11   2.98425e-09 DIIS
   @DF-RHF iter  16:  -476.39662247991077    1.98384e-11   1.49950e-09 DIIS
   @DF-RHF iter  17:  -476.39662247995386   -4.30873e-11   5.59828e-10 DIIS
   @DF-RHF iter  18:  -476.39662247991618    3.76872e-11   2.30247e-10 DIIS
   @DF-RHF iter  19:  -476.39662247994198   -2.58069e-11   1.01266e-10 DIIS
   @DF-RHF iter  20:  -476.39662247992544    1.65414e-11   3.81020e-11 DIIS

  ==> Post-Iterations <==

    Orbital Energies (a.u.)
    -----------------------

    Doubly Occupied:                                                      

       1A    -15.565255     2A    -11.275371     3A    -11.275237  
       4A    -11.263567     5A    -11.250932     6A    -11.245876  
       7A    -11.245739     8A    -11.244543     9A    -11.244448  
      10A    -11.242982    11A    -11.238846    12A    -11.238801  
      13A     -1.250976    14A     -1.173463    15A     -1.106970  
      16A     -1.036181    17A     -1.024120    18A     -1.015953  
      19A     -0.881187    20A     -0.860664    21A     -0.832599  
      22A     -0.805542    23A     -0.729966    24A     -0.683641  
      25A     -0.669237    26A     -0.657319    27A     -0.633511  
      28A     -0.631721    29A     -0.600667    30A     -0.595422  
      31A     -0.578655    32A     -0.540129    33A     -0.525926  
      34A     -0.508537    35A     -0.505697    36A     -0.501555  
      37A     -0.419426    38A     -0.388196    39A     -0.352220  
      40A     -0.344981    41A     -0.332568  

    Virtual:                                                              

      42A      0.025217    43A      0.030768    44A      0.032688  
      45A      0.037031    46A      0.043471    47A      0.046952  
      48A      0.051183    49A      0.053965    50A      0.060474  
      51A      0.080477    52A      0.085407    53A      0.089780  
      54A      0.093377    55A      0.094034    56A      0.098076  
      57A      0.100861    58A      0.107522    59A      0.107556  
      60A      0.110684    61A      0.114480    62A      0.114761  
      63A      0.119832    64A      0.122201    65A      0.126311  
      66A      0.129109    67A      0.130131    68A      0.132298  
      69A      0.135360    70A      0.143177    71A      0.144546  
      72A      0.144599    73A      0.149105    74A      0.151345  
      75A      0.154105    76A      0.157473    77A      0.159814  
      78A      0.172285    79A      0.176149    80A      0.176695  
      81A      0.188078    82A      0.189772    83A      0.200360  
      84A      0.205012    85A      0.214055    86A      0.225973  
      87A      0.227877    88A      0.234789    89A      0.240054  
      90A      0.242249    91A      0.242807    92A      0.247989  
      93A      0.252357    94A      0.254810    95A      0.260964  
      96A      0.265493    97A      0.265590    98A      0.270744  
      99A      0.272642   100A      0.278607   101A      0.281786  
     102A      0.286220   103A      0.293509   104A      0.294924  
     105A      0.299747   106A      0.304792   107A      0.305270  
     108A      0.313019   109A      0.316193   110A      0.318943  
     111A      0.324348   112A      0.325966   113A      0.329900  
     114A      0.332067   115A      0.332359   116A      0.344889  
     117A      0.350949   118A      0.358496   119A      0.360590  
     120A      0.363005   121A      0.363311   122A      0.374385  
     123A      0.383965   124A      0.388936   125A      0.395106  
     126A      0.398614   127A      0.409051   128A      0.413217  
     129A      0.415642   130A      0.417433   131A      0.423108  
     132A      0.427648   133A      0.439719   134A      0.441303  
     135A      0.442685   136A      0.444339   137A      0.446248  
     138A      0.447030   139A      0.459569   140A      0.462383  
     141A      0.469269   142A      0.472593   143A      0.475298  
     144A      0.477603   145A      0.480715   146A      0.481014  
     147A      0.486791   148A      0.487409   149A      0.488849  
     150A      0.490645   151A      0.499437   152A      0.501083  
     153A      0.508247   154A      0.511717   155A      0.513080  
     156A      0.516951   157A      0.520595   158A      0.522596  
     159A      0.524990   160A      0.531145   161A      0.531999  
     162A      0.537363   163A      0.540909   164A      0.547511  
     165A      0.548307   166A      0.552452   167A      0.554772  
     168A      0.557452   169A      0.570154   170A      0.571709  
     171A      0.578518   172A      0.587563   173A      0.591988  
     174A      0.601880   175A      0.605141   176A      0.609247  
     177A      0.617331   178A      0.626434   179A      0.629717  
     180A      0.636079   181A      0.638246   182A      0.642105  
     183A      0.656895   184A      0.666536   185A      0.673590  
     186A      0.675548   187A      0.680524   188A      0.685719  
     189A      0.688992   190A      0.696649   191A      0.700829  
     192A      0.704863   193A      0.705111   194A      0.715226  
     195A      0.715781   196A      0.722074   197A      0.730028  
     198A      0.737409   199A      0.741796   200A      0.745356  
     201A      0.746452   202A      0.751405   203A      0.767602  
     204A      0.774540   205A      0.781399   206A      0.784709  
     207A      0.795835   208A      0.800915   209A      0.807525  
     210A      0.816242   211A      0.822709   212A      0.826186  
     213A      0.831932   214A      0.849525   215A      0.849871  
     216A      0.859218   217A      0.865229   218A      0.867930  
     219A      0.868891   220A      0.873963   221A      0.875427  
     222A      0.885669   223A      0.888960   224A      0.891959  
     225A      0.893483   226A      0.900509   227A      0.904494  
     228A      0.911207   229A      0.914594   230A      0.915313  
     231A      0.924897   232A      0.925295   233A      0.929824  
     234A      0.934294   235A      0.937543   236A      0.947633  
     237A      0.951398   238A      0.953335   239A      0.956031  
     240A      0.967209   241A      0.972119   242A      0.976028  
     243A      0.983716   244A      0.990314   245A      0.992654  
     246A      0.995356   247A      0.995831   248A      1.006627  
     249A      1.009620   250A      1.014180   251A      1.016012  
     252A      1.026758   253A      1.028611   254A      1.040236  
     255A      1.042048   256A      1.046413   257A      1.046555  
     258A      1.056050   259A      1.060023   260A      1.068448  
     261A      1.077373   262A      1.078028   263A      1.083992  
     264A      1.088756   265A      1.091785   266A      1.093434  
     267A      1.100000   268A      1.101791   269A      1.105406  
     270A      1.105463   271A      1.120998   272A      1.126690  
     273A      1.131115   274A      1.135356   275A      1.139961  
     276A      1.141757   277A      1.151476   278A      1.152142  
     279A      1.157840   280A      1.164340   281A      1.166639  
     282A      1.174813   283A      1.184325   284A      1.186816  
     285A      1.189306   286A      1.193110   287A      1.199302  
     288A      1.201040   289A      1.201405   290A      1.212478  
     291A      1.214617   292A      1.220290   293A      1.224844  
     294A      1.240966   295A      1.245005   296A      1.252927  
     297A      1.256235   298A      1.262421   299A      1.264781  
     300A      1.266638   301A      1.275138   302A      1.282321  
     303A      1.286447   304A      1.297432   305A      1.299064  
     306A      1.303785   307A      1.311717   308A      1.313644  
     309A      1.320368   310A      1.327192   311A      1.347685  
     312A      1.352888   313A      1.362948   314A      1.374338  
     315A      1.378332   316A      1.383509   317A      1.385179  
     318A      1.396707   319A      1.407492   320A      1.409200  
     321A      1.413886   322A      1.422135   323A      1.433027  
     324A      1.433710   325A      1.439829   326A      1.453382  
     327A      1.468991   328A      1.471636   329A      1.477903  
     330A      1.486626   331A      1.499634   332A      1.500023  
     333A      1.513571   334A      1.529846   335A      1.538920  
     336A      1.544885   337A      1.551052   338A      1.563975  
     339A      1.567552   340A      1.570382   341A      1.579942  
     342A      1.590079   343A      1.590872   344A      1.599725  
     345A      1.603558   346A      1.624786   347A      1.635756  
     348A      1.637933   349A      1.645984   350A      1.649038  
     351A      1.665922   352A      1.678604   353A      1.687867  
     354A      1.688112   355A      1.696454   356A      1.705452  
     357A      1.711720   358A      1.719721   359A      1.725372  
     360A      1.732908   361A      1.733504   362A      1.741159  
     363A      1.742109   364A      1.749833   365A      1.758926  
     366A      1.771277   367A      1.778742   368A      1.801103  
     369A      1.812196   370A      1.820324   371A      1.821265  
     372A      1.825381   373A      1.838735   374A      1.842559  
     375A      1.850655   376A      1.856909   377A      1.866165  
     378A      1.885919   379A      1.886383   380A      1.898276  
     381A      1.904843   382A      1.911272   383A      1.914419  
     384A      1.925388   385A      1.932222   386A      1.945646  
     387A      1.946358   388A      1.958201   389A      1.973855  
     390A      1.978463   391A      1.987680   392A      1.994705  
     393A      1.997205   394A      2.001743   395A      2.005254  
     396A      2.019993   397A      2.032650   398A      2.034658  
     399A      2.037851   400A      2.050149   401A      2.052038  
     402A      2.063373   403A      2.071298   404A      2.081858  
     405A      2.089874   406A      2.090438   407A      2.096095  
     408A      2.103763   409A      2.114722   410A      2.115454  
     411A      2.141077   412A      2.143988   413A      2.156644  
     414A      2.161864   415A      2.162389   416A      2.169334  
     417A      2.181878   418A      2.188485   419A      2.191423  
     420A      2.203302   421A      2.208939   422A      2.209551  
     423A      2.230526   424A      2.243963   425A      2.248712  
     426A      2.257384   427A      2.267006   428A      2.284789  
     429A      2.290488   430A      2.300196   431A      2.319623  
     432A      2.323884   433A      2.331630   434A      2.335880  
     435A      2.353014   436A      2.363964   437A      2.367802  
     438A      2.368429   439A      2.384364   440A      2.391318  
     441A      2.406970   442A      2.418215   443A      2.427848  
     444A      2.431861   445A      2.457768   446A      2.480946  
     447A      2.481498   448A      2.490307   449A      2.516514  
     450A      2.523159   451A      2.544315   452A      2.547646  
     453A      2.565212   454A      2.567838   455A      2.585192  
     456A      2.586350   457A      2.602229   458A      2.603874  
     459A      2.626517   460A      2.634612   461A      2.652587  
     462A      2.677208   463A      2.705089   464A      2.713373  
     465A      2.744302   466A      2.758180   467A      2.760919  
     468A      2.778644   469A      2.793796   470A      2.815899  
     471A      2.839938   472A      2.841468   473A      2.853719  
     474A      2.878766   475A      2.884265   476A      2.970455  
     477A      2.971286   478A      2.991492   479A      3.066393  
     480A      3.072444   481A      3.083389   482A      3.146924  
     483A      3.167309   484A      3.169167   485A      3.194355  
     486A      3.195848   487A      3.220419   488A      3.239430  
     489A      3.242507   490A      3.252329   491A      3.252665  
     492A      3.287037   493A      3.309973   494A      3.318708  
     495A      3.339259   496A      3.348194   497A      3.357063  
     498A      3.373617   499A      3.380141   500A      3.397527  
     501A      3.405975   502A      3.411801   503A      3.418870  
     504A      3.437068   505A      3.439667   506A      3.442419  
     507A      3.448267   508A      3.452656   509A      3.457811  
     510A      3.469337   511A      3.484070   512A      3.487901  
     513A      3.503240   514A      3.511297   515A      3.535893  
     516A      3.541597   517A      3.541916   518A      3.545840  
     519A      3.554042   520A      3.563759   521A      3.575189  
     522A      3.579604   523A      3.582283   524A      3.590678  
     525A      3.599629   526A      3.609906   527A      3.612366  
     528A      3.629930   529A      3.646399   530A      3.648932  
     531A      3.662389   532A      3.678369   533A      3.680566  
     534A      3.687651   535A      3.701273   536A      3.703293  
     537A      3.723849   538A      3.724044   539A      3.735357  
     540A      3.742150   541A      3.776099   542A      3.777874  
     543A      3.786770   544A      3.788578   545A      3.807528  
     546A      3.825948   547A      3.826261   548A      3.837580  
     549A      3.845714   550A      3.857430   551A      3.859398  
     552A      3.862370   553A      3.868400   554A      3.877591  
     555A      3.892092   556A      3.906091   557A      3.913806  
     558A      3.918995   559A      3.929234   560A      3.941963  
     561A      3.944403   562A      3.955212   563A      3.958944  
     564A      3.968007   565A      3.977456   566A      3.989354  
     567A      3.998185   568A      4.004926   569A      4.015544  
     570A      4.024434   571A      4.028078   572A      4.033214  
     573A      4.038812   574A      4.041649   575A      4.055929  
     576A      4.060282   577A      4.082337   578A      4.086955  
     579A      4.103062   580A      4.105971   581A      4.111063  
     582A      4.124401   583A      4.133762   584A      4.141758  
     585A      4.147993   586A      4.156244   587A      4.162461  
     588A      4.174613   589A      4.181609   590A      4.205844  
     591A      4.205931   592A      4.221261   593A      4.226498  
     594A      4.235459   595A      4.245165   596A      4.270670  
     597A      4.284622   598A      4.292726   599A      4.307756  
     600A      4.309372   601A      4.315108   602A      4.316399  
     603A      4.322175   604A      4.350491   605A      4.351084  
     606A      4.357960   607A      4.381737   608A      4.382500  
     609A      4.388866   610A      4.394911   611A      4.404859  
     612A      4.416143   613A      4.430970   614A      4.435757  
     615A      4.444769   616A      4.447442   617A      4.452197  
     618A      4.474002   619A      4.479996   620A      4.485675  
     621A      4.493179   622A      4.499303   623A      4.504971  
     624A      4.505363   625A      4.534298   626A      4.552487  
     627A      4.553922   628A      4.578314   629A      4.590445  
     630A      4.619439   631A      4.645536   632A      4.647457  
     633A      4.675055   634A      4.693082   635A      4.709881  
     636A      4.716405   637A      4.718541   638A      4.733939  
     639A      4.735334   640A      4.742441   641A      4.772361  
     642A      4.778520   643A      4.802404   644A      4.823199  
     645A      4.844576   646A      4.859422   647A      4.876392  
     648A      4.896605   649A      4.916997   650A      4.920714  
     651A      4.945189   652A      4.951580   653A      4.963692  
     654A      4.964374   655A      4.984392   656A      5.008110  
     657A      5.012175   658A      5.018702   659A      5.020327  
     660A      5.032336   661A      5.032546   662A      5.062387  
     663A      5.064554   664A      5.085536   665A      5.094719  
     666A      5.111365   667A      5.120231   668A      5.137358  
     669A      5.143572   670A      5.148841   671A      5.157349  
     672A      5.160541   673A      5.169294   674A      5.175766  
     675A      5.185149   676A      5.192229   677A      5.192878  
     678A      5.196762   679A      5.239752   680A      5.252751  
     681A      5.272151   682A      5.283029   683A      5.323502  
     684A      5.335224   685A      5.345575   686A      5.350950  
     687A      5.358642   688A      5.378253   689A      5.381510  
     690A      5.388884   691A      5.425367   692A      5.444658  
     693A      5.457252   694A      5.468658   695A      5.473064  
     696A      5.479217   697A      5.521001   698A      5.526903  
     699A      5.559156   700A      5.569306   701A      5.587375  
     702A      5.646982   703A      5.662000   704A      5.709074  
     705A      5.756182   706A      5.770897   707A      5.772964  
     708A      5.783999   709A      5.794872   710A      5.801034  
     711A      5.824620   712A      5.850867   713A      5.865546  
     714A      5.883877   715A      5.909028   716A      5.979644  
     717A      6.020632   718A      6.081111   719A      6.139575  
     720A      6.167375   721A      6.195275   722A      6.226211  
     723A      6.244065   724A      6.270699   725A      6.272704  
     726A      6.310851   727A      6.334215   728A      6.344677  
     729A      6.393136   730A      6.489964   731A      6.494414  
     732A      6.571383   733A      6.581332   734A      6.602768  
     735A      6.696479   736A      6.715880   737A      6.733129  
     738A      6.800809   739A      6.874883   740A      6.895215  
     741A      6.923645   742A      7.015499   743A      7.044128  
     744A      7.085754   745A      7.176915   746A      7.345886  
     747A      7.420256   748A     15.611064   749A     16.185973  
     750A     16.567936   751A     16.693616   752A     18.413667  
     753A     18.715405   754A     19.021911   755A     19.200401  
     756A     19.968820   757A     19.972993   758A     20.189532  
     759A     21.884011  

    Final Occupation by Irrep:
              A 
    DOCC [    41 ]

  Energy converged.

  @DF-RHF Final Energy:  -476.39662247992544

   => Energetics <=

    Nuclear Repulsion Energy =            605.9586153600170064
    One-Electron Energy =               -1845.6732269585234008
    Two-Electron Energy =                 763.3179891185810675
    DFT Exchange-Correlation Energy =       0.0000000000000000
    Empirical Dispersion Energy =           0.0000000000000000
    PCM Polarization Energy =               0.0000000000000000
    EFP Energy =                            0.0000000000000000
    Total Energy =                       -476.3966224799254405



Properties will be evaluated at   0.000000,   0.000000,   0.000000 Bohr

Properties computed using the SCF density matrix

  Nuclear Dipole Moment: (a.u.)
     X:     0.1305      Y:     0.0623      Z:    -4.3398

  Electronic Dipole Moment: (a.u.)
     X:    -0.0975      Y:    -0.0473      Z:     3.2654

  Dipole Moment: (a.u.)
     X:     0.0330      Y:     0.0150      Z:    -1.0744     Total:     1.0750

  Dipole Moment: (Debye)
     X:     0.0840      Y:     0.0381      Z:    -2.7309     Total:     2.7324


*** tstop() called on gpu-2-11.local at Sat Nov 11 09:45:34 2017
Module time:
	user time   =    1044.96 seconds =      17.42 minutes
	system time =      37.72 seconds =       0.63 minutes
	total time  =        302 seconds =       5.03 minutes
Total time:
	user time   =    1044.97 seconds =      17.42 minutes
	system time =      37.72 seconds =       0.63 minutes
	total time  =        302 seconds =       5.03 minutes

  //>>>>>>>>>>>>>>>>>>>>>>>>>>>>>>>>>>>//
  //               DFMP2               //
  //<<<<<<<<<<<<<<<<<<<<<<<<<<<<<<<<<<<//

   => Loading Basis Set <=

    Name: (AUG-CC-PVTZ AUX)
    Role: RIFIT
    Keyword: DF_BASIS_MP2
    atoms 1-11  entry C          line   147 file /cbio/jclab/home/chayas/anaconda/envs/py35/share/psi4/basis/aug-cc-pvtz-ri.gbs 
    atoms 12    entry N          line   205 file /cbio/jclab/home/chayas/anaconda/envs/py35/share/psi4/basis/aug-cc-pvtz-ri.gbs 
    atoms 13-21 entry H          line    29 file /cbio/jclab/home/chayas/anaconda/envs/py35/share/psi4/basis/aug-cc-pvtz-ri.gbs 

	 --------------------------------------------------------
	                          DF-MP2                         
	      2nd-Order Density-Fitted Moller-Plesset Theory     
	              RMP2 Wavefunction,   8 Threads             
	                                                         
	        Rob Parrish, Justin Turney, Andy Simmonett,      
	           Ed Hohenstein, and C. David Sherrill          
	 --------------------------------------------------------

   => Auxiliary Basis Set <=

  Basis Set: (AUG-CC-PVTZ AUX)
    Blend: AUG-CC-PVTZ-RI
    Number of shells: 462
    Number of basis function: 1686
    Number of Cartesian functions: 2127
    Spherical Harmonics?: true
    Max angular momentum: 4

	 --------------------------------------------------------
	                 NBF =   759, NAUX =  1686
	 --------------------------------------------------------
	   CLASS    FOCC     OCC    AOCC    AVIR     VIR    FVIR
	   PAIRS       0      41      41     718     718       0
	 --------------------------------------------------------


         ------------------------------------------------------------
                                     CPHF                           
                                  Rob Parrish                       
         ------------------------------------------------------------

  ==> Geometry <==

    Molecular point group: c1
    Full point group: C1

    Geometry (in Angstrom), charge = 0, multiplicity = 1:

       Center              X                  Y                   Z               Mass       
    ------------   -----------------  -----------------  -----------------  -----------------
           C          0.108879022283     0.053255743543    -3.526042728723    12.000000000000
           C         -0.969120977717     0.626255743543    -2.853042728723    12.000000000000
           C          1.144879022283    -0.541744256457    -2.806042728723    12.000000000000
           C         -1.012120977717     0.605255743543    -1.459042728723    12.000000000000
           C          1.101879022283    -0.562744256457    -1.412042728723    12.000000000000
           C          0.985879022283     0.599255743543     1.446957271277    12.000000000000
           C         -1.073120977717    -0.641744256457     1.363957271277    12.000000000000
           C          0.895879022283     0.551255743543     2.828957271277    12.000000000000
           C         -1.070120977717    -0.633744256457     2.748957271277    12.000000000000
           C          0.023879022283     0.010255743543    -0.738042728723    12.000000000000
           C         -0.021120977717    -0.010744256457     0.707957271277    12.000000000000
           N         -0.109120977717    -0.051744256457     3.500957271277    14.003074004780
           H          0.140879022283     0.068255743543    -4.612042728723     1.007825032070
           H         -1.777120977717     1.087255743543    -3.414042728723     1.007825032070
           H          1.983879022283    -0.989744256457    -3.330042728723     1.007825032070
           H         -1.860120977717     1.056255743543    -0.948042728723     1.007825032070
           H          1.916879022283    -1.030744256457    -0.864042728723     1.007825032070
           H          1.821879022283     1.102255743543     0.970957271277     1.007825032070
           H         -1.876120977717    -1.128744256457     0.819957271277     1.007825032070
           H          1.655879022283     1.014255743543     3.450957271277     1.007825032070
           H         -1.867120977717    -1.112744256457     3.307957271277     1.007825032070

  Nuclear repulsion =  605.958615360017006
  Reference energy  = -476.396622479925441

  ==> Basis Set <==

  Basis Set: AUG-CC-PVTZ
    Blend: AUG-CC-PVTZ
    Number of shells: 249
    Number of basis function: 759
    Number of Cartesian functions: 885
    Spherical Harmonics?: true
    Max angular momentum: 3

  ==> CGRSolver (by Rob Parrish) <==

   Number of roots    =         1
   Preconditioning    =    JACOBI
   Convergence cutoff =     1E-06
   Maximum iterations =       100

  ==> CPHFRHamiltonian (by Rob Parrish) <== 

  ==> DFJK: Density-Fitted J/K Matrices <==

    J tasked:                  Yes
    K tasked:                  Yes
    wK tasked:                  No
    OpenMP threads:              8
    Integrals threads:           8
    Memory (MB):               375
    Algorithm:                Disk
    Integral Cache:           NONE
    Schwarz Cutoff:          1E-12
    Fitting Condition:       1E-12

   => Auxiliary Basis Set <=

  Basis Set: (AUG-CC-PVTZ AUX)
    Blend: AUG-CC-PVTZ-JKFIT
    Number of shells: 486
    Number of basis function: 1662
    Number of Cartesian functions: 2067
    Spherical Harmonics?: true
    Max angular momentum: 4

  ==> CPHF Iterations <==

  => Iterations <=

             Iter  Converged  Remaining    Residual
  CGR           1          0          1   8.194E-02
  CGR           2          0          1   3.048E-02
  CGR           3          0          1   2.086E-02
  CGR           4          0          1   8.907E-03
  CGR           5          0          1   2.473E-03
  CGR           6          0          1   8.505E-04
  CGR           7          0          1   3.405E-04
  CGR           8          0          1   1.066E-04
  CGR           9          0          1   5.239E-05
  CGR          10          0          1   2.417E-05
  CGR          11          0          1   7.194E-06
  CGR          12          0          1   2.862E-06
  CGR          13          1          0   7.939E-07

    CGRSolver converged.

  ==> DFCorrGrad: Density-Fitted Correlated Gradients <==

    OpenMP threads:              8
    Integrals threads:           8
    Memory (MB):               375
    Schwarz Cutoff:          0E+00
    Fitting Condition:       1E-12

   => Auxiliary Basis Set <=

  Basis Set: (AUG-CC-PVTZ AUX)
    Blend: AUG-CC-PVTZ-JKFIT
    Number of shells: 486
    Number of basis function: 1662
    Number of Cartesian functions: 2067
    Spherical Harmonics?: true
    Max angular momentum: 4

	-----------------------------------------------------------
	 ==================> DF-MP2 Energies <==================== 
	-----------------------------------------------------------
	 Reference Energy          =    -476.3966224799254405 [Eh]
	 Singles Energy            =      -0.0000000000000000 [Eh]
	 Same-Spin Energy          =      -0.5345213903135213 [Eh]
	 Opposite-Spin Energy      =      -1.6424107956657907 [Eh]
	 Correlation Energy        =      -2.1769321859793118 [Eh]
	 Total Energy              =    -478.5735546659047372 [Eh]
	-----------------------------------------------------------
	 ================> DF-SCS-MP2 Energies <================== 
	-----------------------------------------------------------
	 SCS Same-Spin Scale       =       0.3333333333333333 [-]
	 SCS Opposite-Spin Scale   =       1.2000000000000000 [-]
	 SCS Same-Spin Energy      =      -0.1781737967711738 [Eh]
	 SCS Opposite-Spin Energy  =      -1.9708929547989489 [Eh]
	 SCS Correlation Energy    =      -2.1490667515701225 [Eh]
	 SCS Total Energy          =    -478.5456892314955439 [Eh]
	-----------------------------------------------------------


  -Total Gradient:
     Atom            X                  Y                   Z
    ------   -----------------  -----------------  -----------------
       1       -0.000427594901     0.000409390639     0.000106969942
       2       -0.000864832845     0.000916382964    -0.001099712879
       3        0.001815859426    -0.001186622619    -0.000894251400
       4        0.002414015034     0.001321666494     0.008540233586
       5       -0.003495290612    -0.001189545529     0.008503756167
       6        0.001721360315     0.003665443727    -0.007141063759
       7       -0.002108124283    -0.004031136371    -0.006677507998
       8        0.006221579320     0.004145955188    -0.011002376689
       9       -0.006010482256    -0.004059829428    -0.011940838930
      10        0.000185775176    -0.000625689706     0.010418488123
      11        0.000389224595     0.000367509063     0.000082239011
      12       -0.000131337808    -0.000091532556     0.016752614524
      13        0.000088807855     0.000028898375    -0.005131110088
      14       -0.003732982420     0.001734961001    -0.002549354289
      15        0.003608216740    -0.001733282958    -0.002233980481
      16       -0.005792671413     0.002661330483     0.000147888662
      17        0.005718085808    -0.002667543486     0.000406080452
      18        0.004758480321     0.002365022460    -0.000003038364
      19       -0.004560100896    -0.002231333972    -0.000474701250
      20        0.002024680457     0.001041851187     0.002324083990
      21       -0.001822667614    -0.000841894955     0.001865581660


*** tstop() called on gpu-2-11.local at Sat Nov 11 10:07:01 2017
Module time:
	user time   =    4746.57 seconds =      79.11 minutes
	system time =      89.44 seconds =       1.49 minutes
	total time  =       1589 seconds =      26.48 minutes
Total time:
	user time   =    4746.58 seconds =      79.11 minutes
	system time =      89.44 seconds =       1.49 minutes
	total time  =       1589 seconds =      26.48 minutes

			-----------------------------------------
			 OPTKING 2.0: for geometry optimizations 
			  - R.A. King,  Bethel University        
			-----------------------------------------

	Internal coordinates to be generated automatically.
	Detected frag 1 with atoms:  1 2 3 4 5 6 7 8 9 10 11 12 13 14 15 16 17 18 19 20
	 21
	---Fragment 1 Bond Connectivity---
	 1 : 2 3 13
	 2 : 1 4 14
	 3 : 1 5 15
	 4 : 2 10 16
	 5 : 3 10 17
	 6 : 8 11 18
	 7 : 9 11 19
	 8 : 6 12 20
	 9 : 7 12 21
	 10 : 4 5 11
	 11 : 6 7 10
	 12 : 8 9
	 13 : 1
	 14 : 2
	 15 : 3
	 16 : 4
	 17 : 5
	 18 : 6
	 19 : 7
	 20 : 8
	 21 : 9

	Assuming in current code that numbering for constraints corresponds to unified fragment.
	Fixed dihedral atom list: 
	     4    10    11     6
	---Fragment 1 Geometry and Gradient---
	 C           0.2057515337        0.1006387703       -6.6632550901
	 C          -1.8313732375        1.1834518444       -5.3914694027
	 C           2.1635078074       -1.0237482788       -5.3026522745
	 C          -1.9126314612        1.1437675957       -2.7571911735
	 C           2.0822495837       -1.0634325276       -2.6683740452
	 C           1.8630413523        1.1324292389        2.7343529687
	 C          -2.0279047553       -1.2127208921        2.5775056997
	 C           1.6929660003        1.0417223845        5.3459544843
	 C          -2.0222355769       -1.1976030830        5.1947763937
	 C           0.0451248124        0.0193805466       -1.3946986317
	 C          -0.0399128635       -0.0203037022        1.3378453565
	 N          -0.2062087632       -0.0977824737        6.6158504456
	 H           0.2662227700        0.1289846623       -8.7154976705
	 H          -3.3582719529        2.0546155917       -6.4516057633
	 H           3.7489880329       -1.8703455863       -6.2928687681
	 H          -3.5151192219        1.9960340816       -1.7915411196
	 H           3.6223763820       -1.9478243577       -1.6328041244
	 H           3.4428523994        2.0829614837        1.8348433294
	 H          -3.5453548400       -2.1330175188        1.5494946834
	 H           3.1291578613        1.9166655840        6.5213641390
	 H          -3.5283473049       -2.1027819006        6.2511333020
	            -0.0004275949        0.0004093906        0.0001069699
	            -0.0008648328        0.0009163830       -0.0010997129
	             0.0018158594       -0.0011866226       -0.0008942514
	             0.0024140150        0.0013216665        0.0085402336
	            -0.0034952906       -0.0011895455        0.0085037562
	             0.0017213603        0.0036654437       -0.0071410638
	            -0.0021081243       -0.0040311364       -0.0066775080
	             0.0062215793        0.0041459552       -0.0110023767
	            -0.0060104823       -0.0040598294       -0.0119408389
	             0.0001857752       -0.0006256897        0.0104184881
	             0.0003892246        0.0003675091        0.0000822390
	            -0.0001313378       -0.0000915326        0.0167526145
	             0.0000888079        0.0000288984       -0.0051311101
	            -0.0037329824        0.0017349610       -0.0025493543
	             0.0036082167       -0.0017332830       -0.0022339805
	            -0.0057926714        0.0026613305        0.0001478887
	             0.0057180858       -0.0026675435        0.0004060805
	             0.0047584803        0.0023650225       -0.0000030384
	            -0.0045601009       -0.0022313340       -0.0004747013
	             0.0020246805        0.0010418512        0.0023240840
	            -0.0018226676       -0.0008418950        0.0018655817

	Previous optimization step data not found.  Starting new optimization.

	---Fragment 1 Intrafragment Coordinates---
	 - Coordinate -           - BOHR/RAD -       - ANG/DEG -
	 R(1,2)           =         2.634350	       1.394038
	 R(1,3)           =         2.635962	       1.394891
	 R(1,13)          =         2.053329	       1.086575
	 R(2,4)           =         2.635830	       1.394821
	 R(2,14)          =         2.052860	       1.086327
	 R(3,5)           =         2.635830	       1.394821
	 R(3,15)          =         2.052073	       1.085910
	 R(4,10)          =         2.636938	       1.395407
	 R(4,16)          =         2.055920	       1.087946
	 R(5,10)          =         2.635263	       1.394521
	 R(5,17)          =         2.055856	       1.087912
	 R(6,8)           =         2.618705	       1.385759
	 R(6,11)          =         2.626835	       1.390061
	 R(6,18)          =         2.051446	       1.085579
	 R(7,9)           =         2.617320	       1.385026
	 R(7,11)          =         2.628826	       1.391115
	 R(7,19)          =         2.050953	       1.085317
	 R(8,12)          =         2.553032	       1.351006
	 R(8,20)          =         2.051770	       1.085750
	 R(9,12)          =         2.554801	       1.351943
	 R(9,21)          =         2.050271	       1.084957
	 R(10,11)         =         2.734155	       1.446852
	 B(1,2,4)         =         2.094553	     120.009056
	 B(1,2,14)        =         2.094726	     120.018942
	 B(1,3,5)         =         2.093692	     119.959722
	 B(1,3,15)        =         2.095250	     120.048965
	 B(2,1,3)         =         2.094940	     120.031219
	 B(2,1,13)        =         2.093950	     119.974480
	 B(2,4,10)        =         2.094306	     119.994870
	 B(2,4,16)        =         2.079681	     119.156970
	 B(3,1,13)        =         2.094293	     119.994160
	 B(3,5,10)        =         2.095181	     120.045019
	 B(3,5,17)        =         2.079222	     119.130634
	 B(4,2,14)        =         2.093904	     119.971849
	 B(4,10,5)        =         2.093699	     119.960108
	 B(4,10,11)       =         2.093804	     119.966144
	 B(5,3,15)        =         2.094242	     119.991253
	 B(5,10,11)       =         2.095682	     120.073736
	 B(6,8,12)        =         2.164978	     124.044100
	 B(6,8,20)        =         2.107249	     120.736471
	 B(6,11,7)        =         2.089995	     119.747912
	 B(6,11,10)       =         2.097189	     120.160077
	 B(7,9,12)        =         2.165487	     124.073243
	 B(7,9,21)        =         2.107234	     120.735589
	 B(7,11,10)       =         2.096001	     120.092011
	 B(8,6,11)        =         2.057755	     117.900660
	 B(8,6,18)        =         2.098269	     120.221937
	 B(8,12,9)        =         2.031128	     116.375080
	 B(9,7,11)        =         2.057028	     117.858995
	 B(9,7,19)        =         2.100666	     120.359283
	 B(10,4,16)       =         2.109198	     120.848149
	 B(10,5,17)       =         2.108782	     120.824331
	 B(11,6,18)       =         2.127161	     121.877355
	 B(11,7,19)       =         2.125492	     121.781712
	 B(12,8,20)       =         2.010957	     115.219363
	 B(12,9,21)       =         2.010464	     115.191118
	 D(1,2,4,10)      =        -0.000325	      -0.018609
	 D(1,2,4,16)      =        -3.141283	    -179.982244
	 D(1,3,5,10)      =         0.000325	       0.018608
	 D(1,3,5,17)      =         3.141117	     179.972749
	 D(2,1,3,5)       =        -0.000348	      -0.019945
	 D(2,1,3,15)      =         3.139689	     179.890913
	 D(2,4,10,5)      =         0.000301	       0.017261
	 D(2,4,10,11)     =         3.141198	     179.977407
	 D(3,1,2,4)       =         0.000348	       0.019955
	 D(3,1,2,14)      =        -3.138767	    -179.838124
	 D(3,5,10,4)      =        -0.000301	      -0.017270
	 D(3,5,10,11)     =        -3.141198	    -179.977373
	 D(4,2,1,13)      =         3.139559	     179.883471
	 D(4,10,5,17)     =        -3.141080	    -179.970623
	 D(4,10,11,6)     =        -2.094308	    -119.994993
	 D(4,10,11,7)     =         1.047131	      59.996208
	 D(5,3,1,13)      =        -3.139558	    -179.883434
	 D(5,10,4,16)     =         3.141248	     179.980271
	 D(5,10,11,6)     =         1.046589	      59.965107
	 D(5,10,11,7)     =        -2.095158	    -120.043692
	 D(6,8,12,9)      =        -0.000658	      -0.037684
	 D(6,11,7,9)      =         0.000085	       0.004880
	 D(6,11,7,19)     =        -3.140875	    -179.958855
	 D(7,9,12,8)      =         0.000619	       0.035475
	 D(7,11,6,8)      =        -0.000120	      -0.006869
	 D(7,11,6,18)     =        -3.140329	    -179.927581
	 D(8,6,11,10)     =         3.141320	     179.984362
	 D(8,12,9,21)     =         3.140807	     179.954964
	 D(9,7,11,10)     =        -3.141355	    -179.986357
	 D(9,12,8,20)     =         3.139305	     179.868914
	 D(10,4,2,14)     =         3.138792	     179.839537
	 D(10,5,3,15)     =        -3.139713	    -179.892302
	 D(10,11,6,18)    =         0.001111	       0.063649
	 D(10,11,7,19)    =         0.000871	       0.049908
	 D(11,6,8,12)     =         0.000426	       0.024398
	 D(11,6,8,20)     =        -3.139451	    -179.877293
	 D(11,7,9,12)     =        -0.000351	      -0.020098
	 D(11,7,9,21)     =        -3.140464	    -179.935338
	 D(11,10,4,16)    =        -0.001040	      -0.059583
	 D(11,10,5,17)    =         0.001209	       0.069274
	 D(12,8,6,18)     =         3.140659	     179.946477
	 D(12,9,7,19)     =         3.140618	     179.944175
	 D(13,1,2,14)     =         0.000443	       0.025392
	 D(13,1,3,15)     =         0.000479	       0.027424
	 D(14,2,4,16)     =        -0.002166	      -0.124098
	 D(15,3,5,17)     =         0.001079	       0.061840
	 D(18,6,8,20)     =         0.000782	       0.044787
	 D(19,7,9,21)     =         0.000505	       0.028935

	Current energy   :      -478.5735546659

	Generating empirical Hessian (Schlegel '84) for each fragment.
	Adding user-defined constraint: Fragment 1; Coordinate 71:
		Value =    -2.094308; Fixed value    =    -2.094395
		Force =    -0.000044; Force constant =     0.500000
	Removing off-diagonal coupling between coordinate 71 and others.
	Taking RFO optimization step.
	Going to follow RFO solution 1.
	Using RFO vector 1.

	Determining step-restricting scale parameter for RS-RFO.
	Maximum step size allowed    0.10000

	 Iter      |step|        alpha        rfo_root  
	------------------------------------------------
	    0     0.16598       1.00000           1
	    1     0.13059       4.32822           1
	    2     0.11195       9.60667           1
	    3     0.10274      14.91958           1
	    4     0.10018      16.92478           1
	    5     0.10000      17.07575           1
	------------------------------------------------
	Norm of target step-size    0.10000
	Projected energy change by RFO approximation:        -0.0033726205

	Back-transformation to cartesian coordinates...
	Could not converge backtransformation.
	Using first guess instead.

	--- Internal Coordinate Step in ANG or DEG, aJ/ANG or AJ/DEG ---
	 ---------------------------------------------------------------------------
	   Coordinate                Previous        Force       Change         New 
	   ----------                --------       ------       ------       ------
	    1 R(1,2)          =      1.394038    -0.046866    -0.005802     1.388236
	    2 R(1,3)          =      1.394891    -0.052402    -0.006512     1.388379
	    3 R(1,13)         =      1.086575    -0.042276    -0.006594     1.079981
	    4 R(2,4)          =      1.394821    -0.048679    -0.005956     1.388865
	    5 R(2,14)         =      1.086327    -0.039788    -0.006205     1.080122
	    6 R(3,5)          =      1.394821    -0.048638    -0.005957     1.388864
	    7 R(3,15)         =      1.085910    -0.037740    -0.005866     1.080044
	    8 R(4,10)         =      1.395407    -0.023246    -0.002725     1.392683
	    9 R(4,16)         =      1.087946    -0.046860    -0.007276     1.080669
	   10 R(5,10)         =      1.394521    -0.018122    -0.002035     1.392486
	   11 R(5,17)         =      1.087912    -0.046431    -0.007228     1.080684
	   12 R(6,8)          =      1.385759     0.006053     0.000721     1.386480
	   13 R(6,11)         =      1.390061    -0.012709    -0.000935     1.389126
	   14 R(6,18)         =      1.085579    -0.039230    -0.006092     1.079486
	   15 R(7,9)          =      1.385026     0.009227     0.001076     1.386102
	   16 R(7,11)         =      1.391115    -0.017101    -0.001360     1.389755
	   17 R(7,19)         =      1.085317    -0.038006    -0.005909     1.079408
	   18 R(8,12)         =      1.351006    -0.114584    -0.012446     1.338561
	   19 R(8,20)         =      1.085750    -0.026306    -0.004083     1.081667
	   20 R(9,12)         =      1.351943    -0.119016    -0.012976     1.338967
	   21 R(9,21)         =      1.084957    -0.022012    -0.003406     1.081551
	   22 R(10,11)        =      1.446852     0.133675     0.019257     1.466109
	   23 B(1,2,4)        =    120.009056     0.000032     0.051170   120.060226
	   24 B(1,2,14)       =    120.018942    -0.000012    -0.010920   120.008022
	   25 B(1,3,5)        =    119.959722     0.000040     0.073401   120.033122
	   26 B(1,3,15)       =    120.048965    -0.000018    -0.027857   120.021108
	   27 B(2,1,3)        =    120.031219    -0.000044    -0.173221   119.857998
	   28 B(2,1,13)       =    119.974480     0.000025     0.096633   120.071113
	   29 B(2,4,10)       =    119.994870     0.000160     0.436515   120.431385
	   30 B(2,4,16)       =    119.156970     0.000143     0.550204   119.707174
	   31 B(3,1,13)       =    119.994160     0.000019     0.076720   120.070880
	   32 B(3,5,10)       =    120.045019     0.000152     0.414771   120.459790
	   33 B(3,5,17)       =    119.130634     0.000146     0.556592   119.687226
	   34 B(4,2,14)       =    119.971849    -0.000020    -0.040097   119.931752
	   35 B(4,10,5)       =    119.960108    -0.000339    -0.803032   119.157077
	   36 B(4,10,11)      =    119.966144     0.000179     0.423842   120.389986
	   37 B(5,3,15)       =    119.991253    -0.000023    -0.045570   119.945683
	   38 B(5,10,11)      =    120.073736     0.000160     0.377612   120.451348
	   39 B(6,8,12)       =    124.044100    -0.000013    -0.138521   123.905578
	   40 B(6,8,20)       =    120.736471    -0.000040    -0.093365   120.643106
	   41 B(6,11,7)       =    119.747912    -0.000884    -2.015528   117.732384
	   42 B(6,11,10)      =    120.160077     0.000437     0.993452   121.153529
	   43 B(7,9,12)       =    124.073243    -0.000024    -0.173949   123.899294
	   44 B(7,9,21)       =    120.735589    -0.000032    -0.067314   120.668275
	   45 B(7,11,10)      =    120.092011     0.000448     1.020652   121.112663
	   46 B(8,6,11)       =    117.900660     0.000387     1.113764   119.014424
	   47 B(8,6,18)       =    120.221937    -0.000013     0.066062   120.287999
	   48 B(8,12,9)       =    116.375080     0.000132     0.060266   116.435347
	   49 B(9,7,11)       =    117.858995     0.000403     1.153670   119.012665
	   50 B(9,7,19)       =    120.359283    -0.000036    -0.006901   120.352382
	   51 B(10,4,16)      =    120.848149    -0.000302    -0.986961   119.861189
	   52 B(10,5,17)      =    120.824331    -0.000297    -0.971919   119.852412
	   53 B(11,6,18)      =    121.877355    -0.000375    -1.180183   120.697172
	   54 B(11,7,19)      =    121.781712    -0.000367    -1.147235   120.634476
	   55 B(12,8,20)      =    115.219363     0.000054     0.231430   115.450793
	   56 B(12,9,21)      =    115.191118     0.000057     0.241056   115.432174
	   57 D(1,2,4,10)     =     -0.018609     0.000001     0.006926    -0.011682
	   58 D(1,2,4,16)     =   -179.982244    -0.000004    -0.212224  -180.194467
	   59 D(1,3,5,10)     =      0.018608     0.000003     0.149384     0.167991
	   60 D(1,3,5,17)     =    179.972749    -0.000003    -0.080336   179.892413
	   61 D(2,1,3,5)      =     -0.019945    -0.000000     0.010761    -0.009183
	   62 D(2,1,3,15)     =    179.890913    -0.000001    -0.007335   179.883578
	   63 D(2,4,10,5)     =      0.017261     0.000001     0.150460     0.167721
	   64 D(2,4,10,11)    =    179.977407    -0.000003    -0.266253   179.711154
	   65 D(3,1,2,4)      =      0.019955    -0.000002    -0.088486    -0.068531
	   66 D(3,1,2,14)     =   -179.838124    -0.000005    -0.234830  -180.072954
	   67 D(3,5,10,4)     =     -0.017270    -0.000003    -0.228572    -0.245842
	   68 D(3,5,10,11)    =   -179.977373     0.000001     0.188385  -179.788988
	   69 D(4,2,1,13)     =    179.883471     0.000000     0.015329   179.898799
	   70 D(4,10,5,17)    =   -179.970623     0.000002     0.000814  -179.969809
	   71 D(4,10,11,6)    =   -119.994993    -0.000019    -0.236109  -120.231102
	   72 D(4,10,11,7)    =     59.996208    -0.000023    -0.671392    59.324815
	   73 D(5,3,1,13)     =   -179.883434    -0.000002    -0.093080  -179.976514
	   74 D(5,10,4,16)    =    179.980271     0.000007     0.370516   180.350787
	   75 D(5,10,11,6)    =     59.965107    -0.000023    -0.658723    59.306385
	   76 D(5,10,11,7)    =   -120.043692    -0.000028    -1.094006  -121.137698
	   77 D(6,8,12,9)     =     -0.037684    -0.000000    -0.026715    -0.064399
	   78 D(6,11,7,9)     =      0.004880    -0.000002    -0.198522    -0.193642
	   79 D(6,11,7,19)    =   -179.958855     0.000003     0.015378  -179.943477
	   80 D(7,9,12,8)     =      0.035475    -0.000000     0.017445     0.052920
	   81 D(7,11,6,8)     =     -0.006869     0.000002     0.190092     0.183223
	   82 D(7,11,6,18)    =   -179.927581     0.000006     0.341665  -179.585916
	   83 D(8,6,11,10)    =    179.984362    -0.000002    -0.230682   179.753679
	   84 D(8,12,9,21)    =    179.954964    -0.000003    -0.085784   179.869180
	   85 D(9,7,11,10)    =   -179.986357     0.000002     0.222073  -179.764283
	   86 D(9,12,8,20)    =    179.868914    -0.000004    -0.195528   179.673386
	   87 D(10,4,2,14)    =    179.839537     0.000004     0.153200   179.992737
	   88 D(10,5,3,15)    =   -179.892302     0.000003     0.167450  -179.724852
	   89 D(10,11,6,18)   =      0.063649     0.000001    -0.079109    -0.015460
	   90 D(10,11,7,19)   =      0.049908     0.000007     0.435974     0.485881
	   91 D(11,6,8,12)    =      0.024398    -0.000001    -0.079717    -0.055320
	   92 D(11,6,8,20)    =   -179.877293     0.000003     0.097170  -179.780122
	   93 D(11,7,9,12)    =     -0.020098     0.000001     0.097931     0.077833
	   94 D(11,7,9,21)    =   -179.935338     0.000004     0.206089  -179.729250
	   95 D(11,10,4,16)   =     -0.059583     0.000002    -0.046197    -0.105780
	   96 D(11,10,5,17)   =      0.069274     0.000007     0.417771     0.487045
	   97 D(12,8,6,18)    =    179.946477    -0.000005    -0.231689   179.714788
	   98 D(12,9,7,19)    =    179.944175    -0.000004    -0.115783   179.828393
	   99 D(13,1,2,14)    =      0.025392    -0.000003    -0.131015    -0.105624
	  100 D(13,1,3,15)    =      0.027424    -0.000003    -0.111176    -0.083752
	  101 D(14,2,4,16)    =     -0.124098    -0.000001    -0.065950    -0.190048
	  102 D(15,3,5,17)    =      0.061840    -0.000002    -0.061840     0.000000
	  103 D(18,6,8,20)    =      0.044787    -0.000001    -0.054801    -0.010014
	  104 D(19,7,9,21)    =      0.028935    -0.000000    -0.007626     0.021310
	 ---------------------------------------------------------------------------
	Successfully symmetrized geometry.
	 Forces used to impose fixed constraints are not included.
	  Forces zeroed: 71 

  ==> Convergence Check <==

  Measures of convergence in internal coordinates in au.
  Criteria marked as inactive (o), active & met (*), and active & unmet ( ).
  --------------------------------------------------------------------------------------------- ~
   Step     Total Energy     Delta E     MAX Force     RMS Force      MAX Disp      RMS Disp    ~
  --------------------------------------------------------------------------------------------- ~
    Convergence Criteria    1.00e-06 *    3.00e-04 *             o    1.20e-03 *             o  ~
  --------------------------------------------------------------------------------------------- ~
      1    -478.57355467   -4.79e+02      1.62e-02      3.69e-03 o    3.64e-02      9.81e-03 o  ~
  ---------------------------------------------------------------------------------------------

	Writing optimization data to binary file.
	Structure for next step:
	Cartesian Geometry (in Angstrom)
	    C     0.1104783602   0.0557480093  -3.5429615476
	    C    -0.9653000473   0.6190038248  -2.8701750673
	    C     1.1435231094  -0.5319804421  -2.8253339329
	    C    -1.0085268555   0.5932462874  -1.4822215898
	    C     1.1000416486  -0.5557422700  -1.4373539175
	    C     0.9768934607   0.5840707637   1.4674414694
	    C    -1.0662788999  -0.6312796239   1.3887708438
	    C     0.8887591126   0.5419957604   2.8504777701
	    C    -1.0661831980  -0.6211315440   2.7748357425
	    C     0.0229266617   0.0041304374  -0.7551645933
	    C    -0.0205718240  -0.0169622406   0.7101476547
	    N    -0.1106261458  -0.0480985562   3.5173828579
	    H     0.1434816482   0.0742299684  -4.6222801434
	    H    -1.7697277926   1.0779203171  -3.4260122755
	    H     1.9808332704  -0.9726423515  -3.3461260204
	    H    -1.8471653817   1.0362021954  -0.9642236347
	    H     1.9063239177  -1.0162229829  -0.8844129108
	    H     1.8078233857   1.0806775442   0.9897094184
	    H    -1.8657147973  -1.1133563751   0.8468978909
	    H     1.6488240525   1.0044299157   3.4656675818
	    H    -1.8643542177  -1.0948680230   3.3300371005
			--------------------------
			 OPTKING Finished Execution 
			--------------------------

    Structure for next step:
    Molecular point group: c1
    Full point group: C1

    Geometry (in Angstrom), charge = 0, multiplicity = 1:

    C            0.110597952729     0.056414611140    -3.542632053758
    C           -0.965180454678     0.619670426626    -2.869845573463
    C            1.143642702012    -0.531313840177    -2.825004439083
    C           -1.008407262962     0.593912889311    -1.481892096012
    C            1.100161241190    -0.555075668160    -1.437024423741
    C            0.977013053228     0.584737365588     1.467770963245
    C           -1.066159307322    -0.630613021998     1.389100337622
    C            0.888878705143     0.542662362257     2.850807263860
    C           -1.066063605405    -0.620464942134     2.775165236293
    C            0.023046254275     0.004797039261    -0.754835099536
    C           -0.020452231411    -0.016295638721     0.710477148489
    N           -0.110506553222    -0.047431954279     3.517712351746
    H            0.143601240737     0.074896570260    -4.621950649586
    H           -1.769608200051     1.078586918953    -3.425682781687
    H            1.980952862997    -0.971975749628    -3.345796526622
    H           -1.847045789096     1.036868797287    -0.963894140879
    H            1.906443510310    -1.015556381033    -0.884083417007
    H            1.807942978319     1.081344146032     0.990038912164
    H           -1.865595204704    -1.112689773237     0.847227384731
    H            1.648943645042     1.005096517604     3.465997075593
    H           -1.864234625168    -1.094201421151     3.330366594354

gradient() will perform analytic gradient computation.

*** tstart() called on gpu-2-11.local
*** at Sat Nov 11 10:07:02 2017

    SCF Algorithm Type (re)set to DF.

*** tstart() called on gpu-2-11.local
*** at Sat Nov 11 10:07:02 2017

   => Loading Basis Set <=

    Name: AUG-CC-PVTZ
    Role: ORBITAL
    Keyword: BASIS
    atoms 1-11  entry C          line   221 file /cbio/jclab/home/chayas/anaconda/envs/py35/share/psi4/basis/aug-cc-pvtz.gbs 
    atoms 12    entry N          line   267 file /cbio/jclab/home/chayas/anaconda/envs/py35/share/psi4/basis/aug-cc-pvtz.gbs 
    atoms 13-21 entry H          line    34 file /cbio/jclab/home/chayas/anaconda/envs/py35/share/psi4/basis/aug-cc-pvtz.gbs 


         ---------------------------------------------------------
                                   SCF
            by Justin Turney, Rob Parrish, and Andy Simmonett
                              RHF Reference
                        8 Threads,    500 MiB Core
         ---------------------------------------------------------

  ==> Geometry <==

    Molecular point group: c1
    Full point group: C1

    Geometry (in Angstrom), charge = 0, multiplicity = 1:

       Center              X                  Y                   Z               Mass       
    ------------   -----------------  -----------------  -----------------  -----------------
           C          0.110597952729     0.056414611140    -3.542632053758    12.000000000000
           C         -0.965180454678     0.619670426626    -2.869845573463    12.000000000000
           C          1.143642702012    -0.531313840177    -2.825004439083    12.000000000000
           C         -1.008407262962     0.593912889311    -1.481892096012    12.000000000000
           C          1.100161241190    -0.555075668160    -1.437024423741    12.000000000000
           C          0.977013053228     0.584737365588     1.467770963245    12.000000000000
           C         -1.066159307322    -0.630613021998     1.389100337622    12.000000000000
           C          0.888878705143     0.542662362257     2.850807263860    12.000000000000
           C         -1.066063605405    -0.620464942134     2.775165236293    12.000000000000
           C          0.023046254275     0.004797039261    -0.754835099536    12.000000000000
           C         -0.020452231411    -0.016295638721     0.710477148489    12.000000000000
           N         -0.110506553222    -0.047431954279     3.517712351746    14.003074004780
           H          0.143601240737     0.074896570260    -4.621950649586     1.007825032070
           H         -1.769608200051     1.078586918953    -3.425682781687     1.007825032070
           H          1.980952862997    -0.971975749628    -3.345796526622     1.007825032070
           H         -1.847045789096     1.036868797287    -0.963894140879     1.007825032070
           H          1.906443510310    -1.015556381033    -0.884083417007     1.007825032070
           H          1.807942978319     1.081344146032     0.990038912164     1.007825032070
           H         -1.865595204704    -1.112689773237     0.847227384731     1.007825032070
           H          1.648943645042     1.005096517604     3.465997075593     1.007825032070
           H         -1.864234625168    -1.094201421151     3.330366594354     1.007825032070

  Running in c1 symmetry.

  Rotational constants: A =      0.09893  B =      0.01802  C =      0.01649 [cm^-1]
  Rotational constants: A =   2965.74565  B =    540.21622  C =    494.29392 [MHz]
  Nuclear repulsion =  605.810918932478558

  Charge       = 0
  Multiplicity = 1
  Electrons    = 82
  Nalpha       = 41
  Nbeta        = 41

  ==> Algorithm <==

  SCF Algorithm Type is DF.
  DIIS enabled.
  MOM disabled.
  Fractional occupation disabled.
  Guess Type is READ.
  Energy threshold   = 1.00e-10
  Density threshold  = 1.00e-10
  Integral threshold = 0.00e+00

  ==> Primary Basis <==

  Basis Set: AUG-CC-PVTZ
    Blend: AUG-CC-PVTZ
    Number of shells: 249
    Number of basis function: 759
    Number of Cartesian functions: 885
    Spherical Harmonics?: true
    Max angular momentum: 3

   => Loading Basis Set <=

    Name: (AUG-CC-PVTZ AUX)
    Role: JKFIT
    Keyword: DF_BASIS_SCF
    atoms 1-11  entry C          line   161 file /cbio/jclab/home/chayas/anaconda/envs/py35/share/psi4/basis/aug-cc-pvtz-jkfit.gbs 
    atoms 12    entry N          line   223 file /cbio/jclab/home/chayas/anaconda/envs/py35/share/psi4/basis/aug-cc-pvtz-jkfit.gbs 
    atoms 13-21 entry H          line    69 file /cbio/jclab/home/chayas/anaconda/envs/py35/share/psi4/basis/aug-cc-pvtz-jkfit.gbs 

  Reading orbitals from file 180, no projection.

  ==> Pre-Iterations <==

   -------------------------------------------------------
    Irrep   Nso     Nmo     Nalpha   Nbeta   Ndocc  Nsocc
   -------------------------------------------------------
     A        759     759       0       0       0       0
   -------------------------------------------------------
    Total     759     759      41      41      41       0
   -------------------------------------------------------

  ==> Integral Setup <==

  ==> DFJK: Density-Fitted J/K Matrices <==

    J tasked:                  Yes
    K tasked:                  Yes
    wK tasked:                  No
    OpenMP threads:              8
    Integrals threads:           8
    Memory (MB):               375
    Algorithm:                Disk
    Integral Cache:           NONE
    Schwarz Cutoff:          1E-12
    Fitting Condition:       1E-12

   => Auxiliary Basis Set <=

  Basis Set: (AUG-CC-PVTZ AUX)
    Blend: AUG-CC-PVTZ-JKFIT
    Number of shells: 486
    Number of basis function: 1662
    Number of Cartesian functions: 2067
    Spherical Harmonics?: true
    Max angular momentum: 4

  Minimum eigenvalue in the overlap matrix is 4.7134039494E-07.
  Using Symmetric Orthogonalization.

  SCF Guess: Orbitals guess was supplied from a previous computation.

  ==> Iterations <==

                           Total Energy        Delta E     RMS |[F,P]|

   @DF-RHF iter   0:  -476.53568493022669   -4.76536e+02   4.20239e-04 
   @DF-RHF iter   1:  -476.39975389672537    1.35931e-01   1.29318e-04 
   @DF-RHF iter   2:  -476.40056346705239   -8.09570e-04   9.68408e-05 DIIS
   @DF-RHF iter   3:  -476.40118664501233   -6.23178e-04   1.26780e-05 DIIS
   @DF-RHF iter   4:  -476.40119825678698   -1.16118e-05   3.84367e-06 DIIS
   @DF-RHF iter   5:  -476.40120043718855   -2.18040e-06   1.36039e-06 DIIS
   @DF-RHF iter   6:  -476.40120087084080   -4.33652e-07   8.70076e-07 DIIS
   @DF-RHF iter   7:  -476.40120105095605   -1.80115e-07   3.26434e-07 DIIS
   @DF-RHF iter   8:  -476.40120109691765   -4.59616e-08   1.22183e-07 DIIS
   @DF-RHF iter   9:  -476.40120110137349   -4.45584e-09   4.02375e-08 DIIS
   @DF-RHF iter  10:  -476.40120110173427   -3.60785e-10   1.34720e-08 DIIS
   @DF-RHF iter  11:  -476.40120110176969   -3.54134e-11   3.41411e-09 DIIS
   @DF-RHF iter  12:  -476.40120110177668   -6.99174e-12   1.51745e-09 DIIS
   @DF-RHF iter  13:  -476.40120110178640   -9.72022e-12   8.42002e-10 DIIS
   @DF-RHF iter  14:  -476.40120110177895    7.44649e-12   3.41714e-10 DIIS
   @DF-RHF iter  15:  -476.40120110180311   -2.41585e-11   1.44300e-10 DIIS
   @DF-RHF iter  16:  -476.40120110177878    2.43290e-11   7.01590e-11 DIIS

  ==> Post-Iterations <==

    Orbital Energies (a.u.)
    -----------------------

    Doubly Occupied:                                                      

       1A    -15.563406     2A    -11.273122     3A    -11.273078  
       4A    -11.264596     5A    -11.252157     6A    -11.243672  
       7A    -11.243589     8A    -11.242558     9A    -11.242281  
      10A    -11.240877    11A    -11.237676    12A    -11.237635  
      13A     -1.257766    14A     -1.174703    15A     -1.107964  
      16A     -1.035652    17A     -1.025994    18A     -1.018805  
      19A     -0.880083    20A     -0.862900    21A     -0.834883  
      22A     -0.807756    23A     -0.731913    24A     -0.687234  
      25A     -0.670885    26A     -0.656970    27A     -0.634998  
      28A     -0.633814    29A     -0.599434    30A     -0.595841  
      31A     -0.582187    32A     -0.543033    33A     -0.525846  
      34A     -0.509919    35A     -0.508128    36A     -0.501610  
      37A     -0.419102    38A     -0.390801    39A     -0.351237  
      40A     -0.345492    41A     -0.334562  

    Virtual:                                                              

      42A      0.025212    43A      0.030845    44A      0.032670  
      45A      0.037180    46A      0.043419    47A      0.046993  
      48A      0.051441    49A      0.054068    50A      0.060535  
      51A      0.081006    52A      0.085691    53A      0.089893  
      54A      0.093496    55A      0.093896    56A      0.098428  
      57A      0.100852    58A      0.107479    59A      0.108023  
      60A      0.110853    61A      0.114419    62A      0.114768  
      63A      0.119876    64A      0.121920    65A      0.126311  
      66A      0.129246    67A      0.130333    68A      0.132369  
      69A      0.135287    70A      0.143371    71A      0.144463  
      72A      0.144580    73A      0.149588    74A      0.151902  
      75A      0.153926    76A      0.157008    77A      0.159840  
      78A      0.172045    79A      0.175971    80A      0.176787  
      81A      0.187772    82A      0.189897    83A      0.200565  
      84A      0.204938    85A      0.214295    86A      0.225778  
      87A      0.228178    88A      0.234830    89A      0.239552  
      90A      0.242096    91A      0.242578    92A      0.247836  
      93A      0.251781    94A      0.254571    95A      0.260693  
      96A      0.265513    97A      0.265600    98A      0.270645  
      99A      0.272750   100A      0.278576   101A      0.282875  
     102A      0.287217   103A      0.294015   104A      0.295741  
     105A      0.300190   106A      0.305953   107A      0.306117  
     108A      0.312780   109A      0.316703   110A      0.319756  
     111A      0.325289   112A      0.326513   113A      0.330536  
     114A      0.332084   115A      0.333049   116A      0.344932  
     117A      0.350868   118A      0.358406   119A      0.361224  
     120A      0.363167   121A      0.364046   122A      0.375586  
     123A      0.384295   124A      0.389147   125A      0.395433  
     126A      0.399067   127A      0.409624   128A      0.413603  
     129A      0.416213   130A      0.417134   131A      0.424074  
     132A      0.427207   133A      0.438748   134A      0.441803  
     135A      0.443715   136A      0.444486   137A      0.446271  
     138A      0.448439   139A      0.458880   140A      0.462262  
     141A      0.472342   142A      0.473197   143A      0.477497  
     144A      0.478158   145A      0.481098   146A      0.482011  
     147A      0.485662   148A      0.486834   149A      0.489329  
     150A      0.491891   151A      0.499808   152A      0.501532  
     153A      0.507755   154A      0.511335   155A      0.512714  
     156A      0.517086   157A      0.521610   158A      0.522214  
     159A      0.526542   160A      0.531667   161A      0.532745  
     162A      0.539140   163A      0.540741   164A      0.547299  
     165A      0.550534   166A      0.552150   167A      0.553353  
     168A      0.556276   169A      0.569597   170A      0.571992  
     171A      0.578773   172A      0.589546   173A      0.592449  
     174A      0.599762   175A      0.605932   176A      0.607519  
     177A      0.615342   178A      0.626602   179A      0.630039  
     180A      0.634939   181A      0.638174   182A      0.643635  
     183A      0.659137   184A      0.667999   185A      0.673998  
     186A      0.675591   187A      0.680623   188A      0.686874  
     189A      0.689426   190A      0.697569   191A      0.701166  
     192A      0.706095   193A      0.707549   194A      0.714595  
     195A      0.716601   196A      0.721367   197A      0.732014  
     198A      0.740785   199A      0.744328   200A      0.745708  
     201A      0.748701   202A      0.750619   203A      0.768612  
     204A      0.774067   205A      0.781213   206A      0.784882  
     207A      0.796766   208A      0.800579   209A      0.811394  
     210A      0.819598   211A      0.824898   212A      0.827535  
     213A      0.830886   214A      0.850181   215A      0.852616  
     216A      0.859849   217A      0.864264   218A      0.866934  
     219A      0.872394   220A      0.873972   221A      0.876824  
     222A      0.885410   223A      0.888102   224A      0.892354  
     225A      0.893250   226A      0.899723   227A      0.903037  
     228A      0.910832   229A      0.913680   230A      0.916135  
     231A      0.927468   232A      0.928205   233A      0.929626  
     234A      0.936886   235A      0.938541   236A      0.946056  
     237A      0.951955   238A      0.952533   239A      0.956969  
     240A      0.965372   241A      0.970249   242A      0.976032  
     243A      0.983936   244A      0.990045   245A      0.992738  
     246A      0.995394   247A      0.997843   248A      1.004969  
     249A      1.008946   250A      1.014576   251A      1.016041  
     252A      1.025748   253A      1.027319   254A      1.039914  
     255A      1.041426   256A      1.045699   257A      1.046665  
     258A      1.056044   259A      1.058563   260A      1.068125  
     261A      1.076689   262A      1.078392   263A      1.085378  
     264A      1.087749   265A      1.089579   266A      1.094009  
     267A      1.100348   268A      1.100768   269A      1.105979  
     270A      1.108428   271A      1.120899   272A      1.126683  
     273A      1.131577   274A      1.134454   275A      1.139855  
     276A      1.143477   277A      1.150990   278A      1.151977  
     279A      1.157585   280A      1.166260   281A      1.167044  
     282A      1.177557   283A      1.184203   284A      1.189339  
     285A      1.192053   286A      1.195172   287A      1.199198  
     288A      1.200926   289A      1.203995   290A      1.213248  
     291A      1.216523   292A      1.223326   293A      1.223803  
     294A      1.240128   295A      1.246979   296A      1.251611  
     297A      1.256375   298A      1.264977   299A      1.265752  
     300A      1.270638   301A      1.273022   302A      1.280097  
     303A      1.290249   304A      1.297187   305A      1.300105  
     306A      1.305337   307A      1.314181   308A      1.314953  
     309A      1.323938   310A      1.328090   311A      1.346735  
     312A      1.353865   313A      1.362594   314A      1.376227  
     315A      1.379773   316A      1.382630   317A      1.387287  
     318A      1.396794   319A      1.408639   320A      1.409550  
     321A      1.417888   322A      1.423258   323A      1.434617  
     324A      1.434649   325A      1.441958   326A      1.453332  
     327A      1.469656   328A      1.475883   329A      1.479296  
     330A      1.487612   331A      1.500069   332A      1.501007  
     333A      1.514501   334A      1.530475   335A      1.539209  
     336A      1.547765   337A      1.548763   338A      1.562503  
     339A      1.567578   340A      1.570707   341A      1.580851  
     342A      1.588412   343A      1.591232   344A      1.602037  
     345A      1.604833   346A      1.624926   347A      1.636763  
     348A      1.638883   349A      1.646028   350A      1.652458  
     351A      1.666827   352A      1.679628   353A      1.685155  
     354A      1.691675   355A      1.697424   356A      1.710741  
     357A      1.711062   358A      1.721931   359A      1.728454  
     360A      1.730772   361A      1.737064   362A      1.744283  
     363A      1.746586   364A      1.756041   365A      1.757713  
     366A      1.772025   367A      1.781763   368A      1.805061  
     369A      1.811175   370A      1.823808   371A      1.825590  
     372A      1.829892   373A      1.840245   374A      1.846503  
     375A      1.852606   376A      1.858192   377A      1.872068  
     378A      1.887458   379A      1.892819   380A      1.898746  
     381A      1.906372   382A      1.912872   383A      1.921944  
     384A      1.924849   385A      1.935542   386A      1.945455  
     387A      1.947059   388A      1.957378   389A      1.976234  
     390A      1.979124   391A      1.987516   392A      1.997319  
     393A      2.002741   394A      2.003603   395A      2.009230  
     396A      2.022347   397A      2.033934   398A      2.034213  
     399A      2.042391   400A      2.054750   401A      2.055222  
     402A      2.064143   403A      2.070823   404A      2.082836  
     405A      2.088915   406A      2.093990   407A      2.097912  
     408A      2.103855   409A      2.114244   410A      2.116657  
     411A      2.141741   412A      2.144767   413A      2.155668  
     414A      2.159537   415A      2.164201   416A      2.169169  
     417A      2.181268   418A      2.188905   419A      2.193592  
     420A      2.201118   421A      2.207452   422A      2.210686  
     423A      2.230009   424A      2.242309   425A      2.255116  
     426A      2.258891   427A      2.264450   428A      2.287095  
     429A      2.291908   430A      2.299863   431A      2.319631  
     432A      2.328176   433A      2.333384   434A      2.333947  
     435A      2.353888   436A      2.366629   437A      2.370928  
     438A      2.375429   439A      2.385209   440A      2.400291  
     441A      2.405330   442A      2.418080   443A      2.436081  
     444A      2.438021   445A      2.461509   446A      2.482174  
     447A      2.482699   448A      2.489054   449A      2.517026  
     450A      2.528467   451A      2.542837   452A      2.545811  
     453A      2.569619   454A      2.571842   455A      2.588060  
     456A      2.590652   457A      2.602561   458A      2.608523  
     459A      2.627744   460A      2.634825   461A      2.654041  
     462A      2.676864   463A      2.715289   464A      2.716847  
     465A      2.752627   466A      2.758373   467A      2.759189  
     468A      2.785439   469A      2.795047   470A      2.830998  
     471A      2.838644   472A      2.849833   473A      2.851897  
     474A      2.874273   475A      2.892582   476A      2.971355  
     477A      2.976087   478A      2.998757   479A      3.067111  
[...]
	 R(7,19)          =         2.040371	       1.079718
	 R(8,12)          =         2.522876	       1.335049
	 R(8,20)          =         2.042979	       1.081098
	 R(9,12)          =         2.522803	       1.335010
	 R(9,21)          =         2.043059	       1.081140
	 R(10,11)         =         2.768482	       1.465018
	 B(1,2,4)         =         2.095677	     120.073457
	 B(1,2,14)        =         2.095374	     120.056115
	 B(1,3,5)         =         2.095188	     120.045435
	 B(1,3,15)        =         2.095548	     120.066079
	 B(2,1,3)         =         2.091834	     119.853250
	 B(2,1,13)        =         2.095710	     120.075366
	 B(2,4,10)        =         2.101974	     120.434252
	 B(2,4,16)        =         2.099303	     120.281198
	 B(3,1,13)        =         2.095632	     120.070890
	 B(3,5,10)        =         2.102477	     120.463045
	 B(3,5,17)        =         2.098922	     120.259351
	 B(4,2,14)        =         2.092100	     119.868524
	 B(4,10,5)        =         2.079035	     119.119934
	 B(4,10,11)       =         2.099043	     120.266330
	 B(5,3,15)        =         2.092447	     119.888360
	 B(5,10,11)       =         2.103722	     120.534401
	 B(6,8,12)        =         2.157989	     123.643665
	 B(6,8,20)        =         2.096872	     120.141942
	 B(6,11,7)        =         2.044604	     117.147174
	 B(6,11,10)       =         2.116744	     121.280485
	 B(7,9,12)        =         2.157720	     123.628261
	 B(7,9,21)        =         2.097136	     120.157022
	 B(7,11,10)       =         2.120478	     121.494461
	 B(8,6,11)        =         2.083359	     119.367678
	 B(8,6,18)        =         2.100892	     120.372261
	 B(8,12,9)        =         2.038830	     116.816356
	 B(9,7,11)        =         2.083700	     119.387228
	 B(9,7,19)        =         2.100429	     120.345700
	 B(10,4,16)       =         2.081872	     119.282467
	 B(10,5,17)       =         2.081680	     119.271477
	 B(11,6,18)       =         2.098910	     120.258658
	 B(11,7,19)       =         2.098964	     120.261776
	 B(12,8,20)       =         2.028296	     116.212806
	 B(12,9,21)       =         2.028328	     116.214651
	 D(1,2,4,10)      =        -0.006023	      -0.345082
	 D(1,2,4,16)      =         3.126341	     179.126173
	 D(1,3,5,10)      =         0.009996	       0.572722
	 D(1,3,5,17)      =         3.135759	     179.665735
	 D(2,1,3,5)       =         0.003269	       0.187275
	 D(2,1,3,15)      =        -3.140576	    -179.941749
	 D(2,4,10,5)      =         0.019025	       1.090073
	 D(2,4,10,11)     =         3.104397	     177.868827
	 D(3,1,2,4)       =        -0.005245	      -0.300536
	 D(3,1,2,14)      =         3.127576	     179.196885
	 D(3,5,10,4)      =        -0.021015	      -1.204090
	 D(3,5,10,11)     =        -3.106232	    -177.973980
	 D(4,2,1,13)      =         3.140804	     179.954795
	 D(4,10,5,17)     =         3.136252	     179.693997
	 D(4,10,11,6)     =        -2.100044	    -120.323637
	 D(4,10,11,7)     =         0.983936	      56.375367
	 D(5,3,1,13)      =         3.140405	     179.931956
	 D(5,10,4,16)     =        -3.113431	    -178.386430
	 D(5,10,11,6)     =         0.984525	      56.409147
	 D(5,10,11,7)     =        -2.214681	    -126.891849
	 D(6,8,12,9)      =        -0.002277	      -0.130448
	 D(6,11,7,9)      =        -0.019074	      -1.092855
	 D(6,11,7,19)     =         3.137079	     179.741362
	 D(7,9,12,8)      =         0.002344	       0.134284
	 D(7,11,6,8)      =         0.019132	       1.096165
	 D(7,11,6,18)     =        -3.114968	    -178.474526
	 D(8,6,11,10)     =         3.105519	     177.933114
	 D(8,12,9,21)     =        -3.140882	    -179.959308
	 D(9,7,11,10)     =        -3.105335	    -177.922582
	 D(9,12,8,20)     =         3.131308	     179.410723
	 D(10,4,2,14)     =        -3.138860	    -179.843450
	 D(10,5,3,15)     =        -3.129349	    -179.298485
	 D(10,11,6,18)    =        -0.028581	      -1.637577
	 D(10,11,7,19)    =         0.050818	       2.911636
	 D(11,6,8,12)     =        -0.008821	      -0.505380
	 D(11,6,8,20)     =         3.141080	     179.970626
	 D(11,7,9,12)     =         0.008690	       0.497886
	 D(11,7,9,21)     =        -3.131208	    -179.405005
	 D(11,10,4,16)    =        -0.028059	      -1.607676
	 D(11,10,5,17)    =         0.051035	       2.924107
	 D(12,8,6,18)     =         3.125271	     179.064813
	 D(12,9,7,19)     =         3.135710	     179.662953
	 D(13,1,2,14)     =        -0.009561	      -0.547784
	 D(13,1,3,15)     =        -0.003439	      -0.197068
	 D(14,2,4,16)     =        -0.006496	      -0.372196
	 D(15,3,5,17)     =        -0.003586	      -0.205472
	 D(18,6,8,20)     =        -0.008014	      -0.459181
	 D(19,7,9,21)     =        -0.004188	      -0.239938

	Current energy   :      -478.5758504514

	Energy change for the previous step:
		Projected    :        -0.0000011339
		Actual       :         0.0000030314

	Performing BFGS update.
	Previous computed or guess Hessian on step 1.
	Steps to be used in Hessian update: 9 8
	Adding user-defined constraint: Fragment 1; Coordinate 71:
		Value =    -2.100044; Fixed value    =    -2.094400
		Force =     0.004092; Force constant =     0.725000
	Removing off-diagonal coupling between coordinate 71 and others.
	Taking RFO optimization step.
	Going to follow RFO solution 1.
	Rejecting RFO root 1 because normalization gives large value.
	Using RFO vector 2.
	Norm of target step-size    0.00115
	Projected energy change by RFO approximation:        -0.0000001594

	Back-transformation to cartesian coordinates...
	Successfully converged to displaced geometry.

	--- Internal Coordinate Step in ANG or DEG, aJ/ANG or AJ/DEG ---
	 ---------------------------------------------------------------------------
	   Coordinate                Previous        Force       Change         New 
	   ----------                --------       ------       ------       ------
	    1 R(1,2)          =      1.388564    -0.000459     0.000010     1.388574
	    2 R(1,3)          =      1.388564    -0.000165     0.000008     1.388572
	    3 R(1,13)         =      1.079053    -0.000039     0.000007     1.079060
	    4 R(2,4)          =      1.387137    -0.000191     0.000005     1.387142
	    5 R(2,14)         =      1.079264     0.000046     0.000009     1.079273
	    6 R(3,5)          =      1.387112    -0.000175     0.000010     1.387122
	    7 R(3,15)         =      1.079330    -0.000161     0.000011     1.079341
	    8 R(4,10)         =      1.393382     0.000063    -0.000005     1.393377
	    9 R(4,16)         =      1.079981    -0.000152     0.000013     1.079994
	   10 R(5,10)         =      1.393365    -0.000313    -0.000000     1.393365
	   11 R(5,17)         =      1.079993    -0.000001     0.000010     1.080002
	   12 R(6,8)          =      1.386343    -0.000265     0.000017     1.386360
	   13 R(6,11)         =      1.390627     0.000141    -0.000016     1.390611
	   14 R(6,18)         =      1.079685    -0.000195     0.000028     1.079713
	   15 R(7,9)          =      1.386271    -0.000223     0.000018     1.386289
	   16 R(7,11)         =      1.390613    -0.000313    -0.000015     1.390598
	   17 R(7,19)         =      1.079718    -0.000028     0.000026     1.079743
	   18 R(8,12)         =      1.335049    -0.000090    -0.000027     1.335022
	   19 R(8,20)         =      1.081098    -0.000025    -0.000013     1.081085
	   20 R(9,12)         =      1.335010     0.000233    -0.000029     1.334981
	   21 R(9,21)         =      1.081140    -0.000207    -0.000007     1.081133
	   22 R(10,11)        =      1.465018    -0.000412    -0.000028     1.464989
	   23 B(1,2,4)        =    120.073457    -0.000000     0.000669   120.074126
	   24 B(1,2,14)       =    120.056115    -0.000001     0.001000   120.057115
	   25 B(1,3,5)        =    120.045435    -0.000000     0.000826   120.046261
	   26 B(1,3,15)       =    120.066079    -0.000001     0.001151   120.067231
	   27 B(2,1,3)        =    119.853250     0.000000    -0.000736   119.852514
	   28 B(2,1,13)       =    120.075366    -0.000001     0.000302   120.075668
	   29 B(2,4,10)       =    120.434252     0.000000    -0.001323   120.432930
	   30 B(2,4,16)       =    120.281198    -0.000001     0.001624   120.282822
	   31 B(3,1,13)       =    120.070890     0.000000     0.000450   120.071340
	   32 B(3,5,10)       =    120.463045     0.000000    -0.001766   120.461279
	   33 B(3,5,17)       =    120.259351    -0.000001     0.001519   120.260869
	   34 B(4,2,14)       =    119.868524     0.000001    -0.001720   119.866803
	   35 B(4,10,5)       =    119.119934    -0.000001     0.002320   119.122253
	   36 B(4,10,11)      =    120.266330    -0.000003    -0.000679   120.265651
	   37 B(5,3,15)       =    119.888360     0.000001    -0.001969   119.886391
	   38 B(5,10,11)      =    120.534401     0.000004    -0.001923   120.532478
	   39 B(6,8,12)       =    123.643665     0.000001     0.002045   123.645710
	   40 B(6,8,20)       =    120.141942     0.000000    -0.001338   120.140604
	   41 B(6,11,7)       =    117.147174     0.000001    -0.001030   117.146144
	   42 B(6,11,10)      =    121.280485    -0.000003     0.001773   121.282257
	   43 B(7,9,12)       =    123.628261     0.000001     0.002757   123.631018
	   44 B(7,9,21)       =    120.157022    -0.000000    -0.001567   120.155455
	   45 B(7,11,10)      =    121.494461     0.000002    -0.000429   121.494032
	   46 B(8,6,11)       =    119.367678    -0.000000    -0.000088   119.367589
	   47 B(8,6,18)       =    120.372261    -0.000001     0.002653   120.374914
	   48 B(8,12,9)       =    116.816356    -0.000002    -0.002984   116.813372
	   49 B(9,7,11)       =    119.387228    -0.000001    -0.000695   119.386533
	   50 B(9,7,19)       =    120.345700    -0.000000     0.003096   120.348796
	   51 B(10,4,16)      =    119.282467     0.000001    -0.000413   119.282054
	   52 B(10,5,17)      =    119.271477     0.000000     0.000308   119.271785
	   53 B(11,6,18)      =    120.258658     0.000001    -0.002581   120.256077
	   54 B(11,7,19)      =    120.261776     0.000001    -0.002392   120.259384
	   55 B(12,8,20)      =    116.212806    -0.000001    -0.000953   116.211853
	   56 B(12,9,21)      =    116.214651    -0.000001    -0.001204   116.213447
	   57 D(1,2,4,10)     =     -0.345082    -0.000000    -0.000443    -0.345525
	   58 D(1,2,4,16)     =    179.126173    -0.000000    -0.014455   179.111717
	   59 D(1,3,5,10)     =      0.572722     0.000000     0.002969     0.575691
	   60 D(1,3,5,17)     =    179.665735     0.000000     0.007504   179.673239
	   61 D(2,1,3,5)      =      0.187275    -0.000000    -0.003112     0.184164
	   62 D(2,1,3,15)     =   -179.941749    -0.000000     0.001547  -179.940202
	   63 D(2,4,10,5)     =      1.090073    -0.000000     0.000326     1.090400
	   64 D(2,4,10,11)    =    177.868827     0.000000    -0.005451   177.863376
	   65 D(3,1,2,4)      =     -0.300536     0.000000     0.001851    -0.298685
	   66 D(3,1,2,14)     =    179.196885     0.000000    -0.005003   179.191882
	   67 D(3,5,10,4)     =     -1.204090     0.000000    -0.001585    -1.205675
	   68 D(3,5,10,11)    =   -177.973980    -0.000000     0.004166  -177.969814
	   69 D(4,2,1,13)     =    179.954795     0.000000    -0.002461   179.952334
	   70 D(4,10,5,17)    =    179.693997     0.000000    -0.006087   179.687910
	   71 D(4,10,11,6)    =   -120.323637     0.000000    -0.001478  -120.325115
	   72 D(4,10,11,7)    =     56.375367     0.000001     0.005138    56.380506
	   73 D(5,3,1,13)     =    179.931956    -0.000000     0.001199   179.933155
	   74 D(5,10,4,16)    =   -178.386430     0.000000     0.014188  -178.372241
	   75 D(5,10,11,6)    =     56.409147     0.000001    -0.007199    56.401948
	   76 D(5,10,11,7)    =   -126.891849     0.000001    -0.000583  -126.892432
	   77 D(6,8,12,9)     =     -0.130448     0.000000     0.022058    -0.108390
	   78 D(6,11,7,9)     =     -1.092855     0.000000     0.004021    -1.088834
	   79 D(6,11,7,19)    =    179.741362     0.000000     0.003321   179.744684
	   80 D(7,9,12,8)     =      0.134284    -0.000000    -0.010398     0.123886
	   81 D(7,11,6,8)     =      1.096165     0.000000     0.006658     1.102823
	   82 D(7,11,6,18)    =   -178.474526     0.000000     0.009130  -178.465397
	   83 D(8,6,11,10)    =    177.933114     0.000000     0.013012   177.946126
	   84 D(8,12,9,21)    =   -179.959308    -0.000001    -0.019832  -179.979139
	   85 D(9,7,11,10)    =   -177.922582    -0.000000    -0.002422  -177.925004
	   86 D(9,12,8,20)    =    179.410723    -0.000001    -0.012250   179.398473
	   87 D(10,4,2,14)    =   -179.843450     0.000000     0.006384  -179.837066
	   88 D(10,5,3,15)    =   -179.298485    -0.000000    -0.001685  -179.300170
	   89 D(10,11,6,18)   =     -1.637577     0.000001     0.015483    -1.622094
	   90 D(10,11,7,19)   =      2.911636    -0.000000    -0.003121     2.908515
	   91 D(11,6,8,12)    =     -0.505380    -0.000001    -0.020715    -0.526095
	   92 D(11,6,8,20)    =    179.970626     0.000001     0.014875   179.985501
	   93 D(11,7,9,12)    =      0.497886    -0.000000    -0.002314     0.495572
	   94 D(11,7,9,21)    =   -179.405005     0.000000     0.007474  -179.397532
	   95 D(11,10,4,16)   =     -1.607676     0.000000     0.008411    -1.599265
	   96 D(11,10,5,17)   =      2.924107    -0.000000    -0.000335     2.923771
	   97 D(12,8,6,18)    =    179.064813    -0.000001    -0.023212   179.041600
	   98 D(12,9,7,19)    =    179.662953    -0.000000    -0.001660   179.661293
	   99 D(13,1,2,14)    =     -0.547784    -0.000000    -0.009314    -0.557099
	  100 D(13,1,3,15)    =     -0.197068     0.000000     0.005857    -0.191211
	  101 D(14,2,4,16)    =     -0.372196    -0.000000    -0.007628    -0.379824
	  102 D(15,3,5,17)    =     -0.205472    -0.000000     0.002850    -0.202622
	  103 D(18,6,8,20)    =     -0.459181     0.000001     0.012378    -0.446803
	  104 D(19,7,9,21)    =     -0.239938     0.000000     0.008127    -0.231810
	 ---------------------------------------------------------------------------
	Successfully symmetrized geometry.
	 Forces used to impose fixed constraints are not included.
	  Forces zeroed: 71 

  ==> Convergence Check <==

  Measures of convergence in internal coordinates in au.
  Criteria marked as inactive (o), active & met (*), and active & unmet ( ).
  ---------------------------------------------------------------------------------------------
   Step     Total Energy     Delta E     MAX Force     RMS Force      MAX Disp      RMS Disp   
  ---------------------------------------------------------------------------------------------
    Convergence Criteria    1.00e-06 *    3.00e-04 *             o    1.20e-03 *             o
  ---------------------------------------------------------------------------------------------
     10    -478.57585045    3.03e-06      5.57e-05 *    2.07e-05 o    4.05e-04 *    1.13e-04 o  ~
  ---------------------------------------------------------------------------------------------


  **** Optimization is complete! (in 10 steps) ****

  ==> Optimization Summary <==

  Measures of convergence in internal coordinates in au.
  --------------------------------------------------------------------------------------------------------------- ~
   Step         Total Energy             Delta E       MAX Force       RMS Force        MAX Disp        RMS Disp  ~
  --------------------------------------------------------------------------------------------------------------- ~
      1    -478.573554665905   -478.573554665905      0.01622526      0.00369575      0.03639052      0.00980724  ~
      2    -478.575571883580     -0.002017217676      0.00265107      0.00069726      0.05705891      0.00979945  ~
      3    -478.575817979189     -0.000246095608      0.00096044      0.00018246      0.03675604      0.00608529  ~
      4    -478.575860202479     -0.000042223290      0.00024275      0.00006562      0.00369871      0.00114685  ~
      5    -478.575861242227     -0.000001039748      0.00014447      0.00003394      0.00920778      0.00262298  ~
      6    -478.575838039572      0.000023202655      0.00047982      0.00015667      0.01149093      0.00273950  ~
      7    -478.575847709423     -0.000009669851      0.00033771      0.00006654      0.01282129      0.00216297  ~
      8    -478.575849308631     -0.000001599208      0.00022695      0.00006560      0.00257149      0.00087871  ~
      9    -478.575853482761     -0.000004174130      0.00011594      0.00002321      0.00168184      0.00050145  ~
     10    -478.575850451383      0.000003031379      0.00005571      0.00002076      0.00040513      0.00011281  ~
  --------------------------------------------------------------------------------------------------------------- ~

	Writing optimization data to binary file.
	Final energy is   -478.5758504513827
	Final (previous) structure:
	Cartesian Geometry (in Angstrom)
	    C     0.1146025946   0.0883223694  -3.5416493139
	    C    -0.9765570321   0.6091830701  -2.8588724513
	    C     1.1618378376  -0.4873785381  -2.8345580406
	    C    -1.0232151422   0.5489285717  -1.4738307358
	    C     1.1156702688  -0.5452214227  -1.4494216605
	    C     0.9899994863   0.5419093772   1.4588069223
	    C    -1.0789228437  -0.6195040516   1.4035977956
	    C     0.8990681668   0.5366095254   2.8421539383
	    C    -1.0836706155  -0.5763401956   2.7891889096
	    C     0.0172456216  -0.0391135726  -0.7574784665
	    C    -0.0136391848  -0.0592983527   0.7070744466
	    N    -0.1157250927  -0.0114438317   3.5146025351
	    H     0.1505929551   0.1345238693  -4.6191122165
	    H    -1.7863255595   1.0690035884  -3.4044460511
	    H     2.0121002718  -0.8924496729  -3.3617437853
	    H    -1.8636463283   0.9655622382  -0.9386193065
	    H     1.9257819257  -0.9970463314  -0.8962874314
	    H     1.8281087389   1.0141475426   0.9686190978
	    H    -1.8878666146  -1.0954891643   0.8698951769
	    H     1.6724491818   0.9999226327   3.4388078642
	    H    -1.9008935315  -1.0165087869   3.3435014650
	Saving final (previous) structure.
			--------------------------
			 OPTKING Finished Execution 
			--------------------------

    Final optimized geometry and variables:
    Molecular point group: c1
    Full point group: C1

    Geometry (in Angstrom), charge = 0, multiplicity = 1:

    C            0.114602594617     0.088322369356    -3.541649313899
    C           -0.976557032104     0.609183070129    -2.858872451341
    C            1.161837837560    -0.487378538127    -2.834558040591
    C           -1.023215142213     0.548928571683    -1.473830735759
    C            1.115670268779    -0.545221422670    -1.449421660470
    C            0.989999486275     0.541909377195     1.458806922294
    C           -1.078922843741    -0.619504051631     1.403597795579
    C            0.899068166779     0.536609525361     2.842153938301
    C           -1.083670615461    -0.576340195615     2.789188909626
    C            0.017245621643    -0.039113572578    -0.757478466454
    C           -0.013639184807    -0.059298352716     0.707074446627
    N           -0.115725092736    -0.011443831695     3.514602535118
    H            0.150592955147     0.134523869303    -4.619112216520
    H           -1.786325559531     1.069003588372    -3.404446051086
    H            2.012100271761    -0.892449672896    -3.361743785314
    H           -1.863646328263     0.965562238241    -0.938619306517
    H            1.925781925697    -0.997046331368    -0.896287431433
    H            1.828108738909     1.014147542619     0.968619097771
    H           -1.887866614616    -1.095489164294     0.869895176908
    H            1.672449181820     0.999922632720     3.438807864188
    H           -1.900893531498    -1.016508786851     3.343501464977

	Cleaning optimization helper files.

*** Psi4 exiting successfully. Buy a developer a beer!
