
    -----------------------------------------------------------------------
          Psi4: An Open-Source Ab Initio Electronic Structure Package
                               Psi4 1.1 release

                         Git: Rev {HEAD} add49b9 


    R. M. Parrish, L. A. Burns, D. G. A. Smith, A. C. Simmonett,
    A. E. DePrince III, E. G. Hohenstein, U. Bozkaya, A. Yu. Sokolov,
    R. Di Remigio, R. M. Richard, J. F. Gonthier, A. M. James,
    H. R. McAlexander, A. Kumar, M. Saitow, X. Wang, B. P. Pritchard,
    P. Verma, H. F. Schaefer III, K. Patkowski, R. A. King, E. F. Valeev,
    F. A. Evangelista, J. M. Turney, T. D. Crawford, and C. D. Sherrill,
    J. Chem. Theory Comput. in press (2017).
    (doi: 10.1021/acs.jctc.7b00174)

    -----------------------------------------------------------------------


    Psi4 started on: Sunday, 12 November 2017 09:01AM

    Process ID:   7509
    PSIDATADIR: /cbio/jclab/home/chayas/anaconda/envs/py35/share/psi4
    Memory:     500.0 MiB
    Threads:    8
    
  ==> Input File <==

--------------------------------------------------------------------------

memory 5 Gb

molecule phepyrOH_cation {
  symmetry C1
  1 1 
  C      1.885   -1.036   -0.112
  C      2.878   -1.652   2.002
  C      0.807   -0.463   0.561
  C      1.800   -1.079   2.676
  C      4.440   -1.719   -1.322
  C      4.716   -3.305   0.469
  C      5.516   -2.309   -1.970
  C      5.786   -3.855   -0.224
  C      2.921   -1.631   0.608
  C      4.040   -2.225   -0.090
  C      0.764   -0.484   1.955
  N      6.150   -3.348   -1.409
  O      -0.288   0.076   2.612
  H      1.904   -1.012   -1.199
  H      3.678   -2.112   2.578
  H      0.003   -0.001   -0.006
  H      1.772   -1.098   3.762
  H      3.931   -0.877   -1.782
  H      4.425   -3.721   1.429
  H      5.897   -1.982   -2.928
  H      6.368   -4.693   0.134
  H      6.938   -3.767   -1.902
  H      -0.175   -0.018   3.571
  units Angstrom
}

dih_string = "3 11 13 23 180.001"
set optking fixed_dihedral = $dih_string

optimize('MP2/aug-cc-PVTZ')
--------------------------------------------------------------------------

  Memory set to   4.657 GiB by Python driver.
gradient() will perform analytic gradient computation.

*** tstart() called on gpu-2-10.local
*** at Sun Nov 12 09:01:06 2017

    SCF Algorithm Type (re)set to DF.

*** tstart() called on gpu-2-10.local
*** at Sun Nov 12 09:01:06 2017

   => Loading Basis Set <=

    Name: AUG-CC-PVTZ
    Role: ORBITAL
    Keyword: BASIS
    atoms 1-11  entry C          line   221 file /cbio/jclab/home/chayas/anaconda/envs/py35/share/psi4/basis/aug-cc-pvtz.gbs 
    atoms 12    entry N          line   267 file /cbio/jclab/home/chayas/anaconda/envs/py35/share/psi4/basis/aug-cc-pvtz.gbs 
    atoms 13    entry O          line   313 file /cbio/jclab/home/chayas/anaconda/envs/py35/share/psi4/basis/aug-cc-pvtz.gbs 
    atoms 14-23 entry H          line    34 file /cbio/jclab/home/chayas/anaconda/envs/py35/share/psi4/basis/aug-cc-pvtz.gbs 


         ---------------------------------------------------------
                                   SCF
            by Justin Turney, Rob Parrish, and Andy Simmonett
                              RHF Reference
                        8 Threads,   4768 MiB Core
         ---------------------------------------------------------

  ==> Geometry <==

    Molecular point group: c1
    Full point group: C1

    Geometry (in Angstrom), charge = 1, multiplicity = 1:

       Center              X                  Y                   Z               Mass       
    ------------   -----------------  -----------------  -----------------  -----------------
           C         -1.271514940634     0.720166653531    -0.579060428265    12.000000000000
           C         -0.278514940634     0.104166653531     1.534939571735    12.000000000000
           C         -2.349514940634     1.293166653531     0.093939571735    12.000000000000
           C         -1.356514940634     0.677166653531     2.208939571735    12.000000000000
           C          1.283485059366     0.037166653531    -1.789060428265    12.000000000000
           C          1.559485059366    -1.548833346469     0.001939571735    12.000000000000
           C          2.359485059366    -0.552833346469    -2.437060428265    12.000000000000
           C          2.629485059366    -2.098833346469    -0.691060428265    12.000000000000
           C         -0.235514940634     0.125166653531     0.140939571735    12.000000000000
           C          0.883485059366    -0.468833346469    -0.557060428265    12.000000000000
           C         -2.392514940634     1.272166653531     1.487939571735    12.000000000000
           N          2.993485059366    -1.591833346469    -1.876060428265    14.003074004780
           O         -3.444514940634     1.832166653531     2.144939571735    15.994914619560
           H         -1.252514940634     0.744166653531    -1.666060428265     1.007825032070
           H          0.521485059366    -0.355833346469     2.110939571735     1.007825032070
           H         -3.153514940634     1.755166653531    -0.473060428265     1.007825032070
           H         -1.384514940634     0.658166653531     3.294939571735     1.007825032070
           H          0.774485059366     0.879166653531    -2.249060428265     1.007825032070
           H          1.268485059366    -1.964833346469     0.961939571735     1.007825032070
           H          2.740485059366    -0.225833346469    -3.395060428265     1.007825032070
           H          3.211485059366    -2.936833346469    -0.333060428265     1.007825032070
           H          3.781485059366    -2.010833346469    -2.369060428265     1.007825032070
           H         -3.331514940634     1.738166653531     3.103939571735     1.007825032070

  Running in c1 symmetry.

  Rotational constants: A =      0.09613  B =      0.01336  C =      0.01192 [cm^-1]
  Rotational constants: A =   2881.75956  B =    400.42112  C =    357.41031 [MHz]
  Nuclear repulsion =  713.252487242195343

  Charge       = 1
  Multiplicity = 1
  Electrons    = 90
  Nalpha       = 45
  Nbeta        = 45

  ==> Algorithm <==

  SCF Algorithm Type is DF.
  DIIS enabled.
  MOM disabled.
  Fractional occupation disabled.
  Guess Type is SAD.
  Energy threshold   = 1.00e-10
  Density threshold  = 1.00e-10
  Integral threshold = 0.00e+00

  ==> Primary Basis <==

  Basis Set: AUG-CC-PVTZ
    Blend: AUG-CC-PVTZ
    Number of shells: 272
    Number of basis function: 828
    Number of Cartesian functions: 965
    Spherical Harmonics?: true
    Max angular momentum: 3

   => Loading Basis Set <=

    Name: (AUG-CC-PVTZ AUX)
    Role: JKFIT
    Keyword: DF_BASIS_SCF
    atoms 1-11  entry C          line   161 file /cbio/jclab/home/chayas/anaconda/envs/py35/share/psi4/basis/aug-cc-pvtz-jkfit.gbs 
    atoms 12    entry N          line   223 file /cbio/jclab/home/chayas/anaconda/envs/py35/share/psi4/basis/aug-cc-pvtz-jkfit.gbs 
    atoms 13    entry O          line   285 file /cbio/jclab/home/chayas/anaconda/envs/py35/share/psi4/basis/aug-cc-pvtz-jkfit.gbs 
    atoms 14-23 entry H          line    69 file /cbio/jclab/home/chayas/anaconda/envs/py35/share/psi4/basis/aug-cc-pvtz-jkfit.gbs 

  ==> Pre-Iterations <==

   -------------------------------------------------------
    Irrep   Nso     Nmo     Nalpha   Nbeta   Ndocc  Nsocc
   -------------------------------------------------------
     A        828     828       0       0       0       0
   -------------------------------------------------------
    Total     828     828      45      45      45       0
   -------------------------------------------------------

  ==> Integral Setup <==

  ==> DFJK: Density-Fitted J/K Matrices <==

    J tasked:                  Yes
    K tasked:                  Yes
    wK tasked:                  No
    OpenMP threads:              8
    Integrals threads:           8
    Memory (MB):              3576
    Algorithm:                Disk
    Integral Cache:           NONE
    Schwarz Cutoff:          1E-12
    Fitting Condition:       1E-12

   => Auxiliary Basis Set <=

  Basis Set: (AUG-CC-PVTZ AUX)
    Blend: AUG-CC-PVTZ-JKFIT
    Number of shells: 530
    Number of basis function: 1812
    Number of Cartesian functions: 2253
    Spherical Harmonics?: true
    Max angular momentum: 4

  Minimum eigenvalue in the overlap matrix is 5.3050945464E-07.
  Using Symmetric Orthogonalization.

  SCF Guess: Superposition of Atomic Densities via on-the-fly atomic UHF.

  ==> Iterations <==

                           Total Energy        Delta E     RMS |[F,P]|

   @DF-RHF iter   0:  -553.69146059511866   -5.53691e+02   2.36732e-02 
   @DF-RHF iter   1:  -551.23934356323230    2.45212e+00   2.50738e-03 
   @DF-RHF iter   2:  -551.58642403932640   -3.47080e-01   1.15257e-03 DIIS
   @DF-RHF iter   3:  -551.65575460214359   -6.93306e-02   3.21510e-04 DIIS
   @DF-RHF iter   4:  -551.67285112488810   -1.70965e-02   1.90406e-04 DIIS
   @DF-RHF iter   5:  -551.67543678713787   -2.58566e-03   5.47414e-05 DIIS
   @DF-RHF iter   6:  -551.67593103149613   -4.94244e-04   1.95090e-05 DIIS
   @DF-RHF iter   7:  -551.67600351667784   -7.24852e-05   7.99007e-06 DIIS
   @DF-RHF iter   8:  -551.67601499235195   -1.14757e-05   2.92417e-06 DIIS
   @DF-RHF iter   9:  -551.67601874230934   -3.74996e-06   1.62822e-06 DIIS
   @DF-RHF iter  10:  -551.67601996356473   -1.22126e-06   8.58187e-07 DIIS
   @DF-RHF iter  11:  -551.67602013188207   -1.68317e-07   1.93449e-07 DIIS
   @DF-RHF iter  12:  -551.67602014125691   -9.37484e-09   6.36835e-08 DIIS
   @DF-RHF iter  13:  -551.67602014226486   -1.00795e-09   3.36266e-08 DIIS
   @DF-RHF iter  14:  -551.67602014250667   -2.41812e-10   1.31631e-08 DIIS
   @DF-RHF iter  15:  -551.67602014253748   -3.08091e-11   6.45892e-09 DIIS
   @DF-RHF iter  16:  -551.67602014256465   -2.71712e-11   2.92050e-09 DIIS
   @DF-RHF iter  17:  -551.67602014256397    6.82121e-13   1.01929e-09 DIIS
   @DF-RHF iter  18:  -551.67602014256488   -9.09495e-13   4.25850e-10 DIIS
   @DF-RHF iter  19:  -551.67602014256045    4.43379e-12   1.90680e-10 DIIS
   @DF-RHF iter  20:  -551.67602014257386   -1.34150e-11   8.13422e-11 DIIS

  ==> Post-Iterations <==

    Orbital Energies (a.u.)
    -----------------------

    Doubly Occupied:                                                      

       1A    -20.703597     2A    -15.832562     3A    -11.483559  
       4A    -11.483481     5A    -11.445288     6A    -11.434565  
       7A    -11.413945     8A    -11.413671     9A    -11.380500  
      10A    -11.378744    11A    -11.371410    12A    -11.357872  
      13A    -11.354256    14A     -1.518447    15A     -1.510588  
      16A     -1.320786    17A     -1.264123    18A     -1.236448  
      19A     -1.154791    20A     -1.151645    21A     -1.067990  
      22A     -1.054137    23A     -0.976470    24A     -0.961560  
      25A     -0.950177    26A     -0.870640    27A     -0.859085  
      28A     -0.853957    29A     -0.821822    30A     -0.798126  
      31A     -0.781356    32A     -0.772903    33A     -0.757053  
      34A     -0.732547    35A     -0.720232    36A     -0.706323  
      37A     -0.704603    38A     -0.683928    39A     -0.654229  
      40A     -0.637310    41A     -0.620277    42A     -0.570457  
      43A     -0.536940    44A     -0.470240    45A     -0.437491  

    Virtual:                                                              

      46A     -0.104780    47A     -0.084381    48A     -0.063441  
      49A     -0.062831    50A     -0.059391    51A     -0.049161  
      52A     -0.043694    53A     -0.039412    54A     -0.034699  
      55A     -0.028410    56A     -0.025785    57A     -0.023747  
      58A     -0.016927    59A     -0.010385    60A     -0.006347  
      61A     -0.001384    62A      0.003563    63A      0.005902  
      64A      0.009134    65A      0.015286    66A      0.017507  
      67A      0.021518    68A      0.023928    69A      0.024793  
      70A      0.028548    71A      0.031965    72A      0.036741  
      73A      0.038558    74A      0.040010    75A      0.044980  
      76A      0.049291    77A      0.055214    78A      0.058101  
      79A      0.060368    80A      0.066919    81A      0.068348  
      82A      0.072720    83A      0.074446    84A      0.078154  
      85A      0.083906    86A      0.086249    87A      0.088267  
      88A      0.095366    89A      0.098322    90A      0.108288  
      91A      0.110578    92A      0.114677    93A      0.121027  
      94A      0.122952    95A      0.124832    96A      0.128332  
      97A      0.131967    98A      0.136977    99A      0.139851  
     100A      0.144644   101A      0.152628   102A      0.158135  
     103A      0.161790   104A      0.163633   105A      0.166999  
     106A      0.168140   107A      0.171133   108A      0.173685  
     109A      0.178036   110A      0.181614   111A      0.188028  
     112A      0.190428   113A      0.192392   114A      0.197219  
     115A      0.204459   116A      0.206214   117A      0.209987  
     118A      0.213108   119A      0.218011   120A      0.219534  
     121A      0.224200   122A      0.228151   123A      0.231259  
     124A      0.233008   125A      0.234179   126A      0.239577  
     127A      0.240653   128A      0.249971   129A      0.251648  
     130A      0.257910   131A      0.258692   132A      0.274126  
     133A      0.277955   134A      0.279371   135A      0.280262  
     136A      0.287257   137A      0.287350   138A      0.293114  
     139A      0.300226   140A      0.309291   141A      0.311720  
     142A      0.312257   143A      0.315942   144A      0.317941  
     145A      0.322635   146A      0.324466   147A      0.330653  
     148A      0.333967   149A      0.336479   150A      0.339548  
     151A      0.341194   152A      0.344190   153A      0.348903  
     154A      0.350885   155A      0.355377   156A      0.360752  
     157A      0.365528   158A      0.368398   159A      0.371279  
     160A      0.374175   161A      0.375613   162A      0.378708  
     163A      0.383673   164A      0.387482   165A      0.389532  
     166A      0.394429   167A      0.398770   168A      0.401062  
     169A      0.403790   170A      0.407731   171A      0.410922  
     172A      0.414495   173A      0.417227   174A      0.420215  
     175A      0.424783   176A      0.428409   177A      0.430816  
     178A      0.437240   179A      0.439231   180A      0.443176  
     181A      0.449241   182A      0.453507   183A      0.458444  
     184A      0.464162   185A      0.471686   186A      0.474896  
     187A      0.482640   188A      0.488309   189A      0.494852  
     190A      0.500864   191A      0.506748   192A      0.510541  
     193A      0.518415   194A      0.528507   195A      0.530005  
     196A      0.538392   197A      0.543124   198A      0.549773  
     199A      0.551271   200A      0.563511   201A      0.570950  
     202A      0.574398   203A      0.576969   204A      0.581023  
     205A      0.584633   206A      0.586999   207A      0.595807  
     208A      0.601125   209A      0.607605   210A      0.612584  
     211A      0.620053   212A      0.622096   213A      0.627258  
     214A      0.632745   215A      0.637469   216A      0.642844  
     217A      0.645164   218A      0.649608   219A      0.655884  
     220A      0.667342   221A      0.676473   222A      0.681261  
     223A      0.693601   224A      0.700114   225A      0.701799  
     226A      0.704199   227A      0.708656   228A      0.711316  
     229A      0.716684   230A      0.718703   231A      0.725191  
     232A      0.731061   233A      0.734883   234A      0.737672  
     235A      0.740937   236A      0.744704   237A      0.757374  
     238A      0.758610   239A      0.762922   240A      0.769138  
     241A      0.775167   242A      0.778168   243A      0.780108  
     244A      0.785111   245A      0.789131   246A      0.794678  
     247A      0.796270   248A      0.803959   249A      0.806406  
     250A      0.811315   251A      0.814430   252A      0.817945  
     253A      0.827605   254A      0.829071   255A      0.836926  
     256A      0.845296   257A      0.849237   258A      0.856622  
     259A      0.858472   260A      0.862087   261A      0.867735  
     262A      0.869323   263A      0.873469   264A      0.878430  
     265A      0.879982   266A      0.882005   267A      0.885093  
     268A      0.891728   269A      0.898141   270A      0.904489  
     271A      0.907359   272A      0.919193   273A      0.923251  
     274A      0.926616   275A      0.928810   276A      0.935089  
     277A      0.938219   278A      0.942032   279A      0.947033  
     280A      0.955030   281A      0.956179   282A      0.959203  
     283A      0.965501   284A      0.967890   285A      0.970569  
     286A      0.975209   287A      0.978632   288A      0.985242  
     289A      0.987659   290A      0.990843   291A      0.995280  
     292A      1.000162   293A      1.006411   294A      1.009925  
     295A      1.016260   296A      1.018264   297A      1.021417  
     298A      1.029248   299A      1.031919   300A      1.036198  
     301A      1.042872   302A      1.050238   303A      1.056227  
     304A      1.062653   305A      1.063541   306A      1.068909  
     307A      1.071069   308A      1.073856   309A      1.081212  
     310A      1.085805   311A      1.089482   312A      1.098511  
     313A      1.099697   314A      1.104259   315A      1.106402  
     316A      1.112848   317A      1.124268   318A      1.126358  
     319A      1.131976   320A      1.139994   321A      1.142178  
     322A      1.151688   323A      1.156222   324A      1.162009  
     325A      1.162481   326A      1.164242   327A      1.175041  
     328A      1.180115   329A      1.183296   330A      1.200897  
     331A      1.204862   332A      1.222864   333A      1.224631  
     334A      1.229969   335A      1.234352   336A      1.237904  
     337A      1.245589   338A      1.256915   339A      1.260383  
     340A      1.269694   341A      1.274818   342A      1.282846  
     343A      1.286963   344A      1.298040   345A      1.303084  
     346A      1.309782   347A      1.317961   348A      1.323684  
     349A      1.324961   350A      1.332214   351A      1.342923  
     352A      1.348573   353A      1.358607   354A      1.362973  
     355A      1.367408   356A      1.376214   357A      1.385023  
     358A      1.391188   359A      1.394314   360A      1.400758  
     361A      1.405703   362A      1.412162   363A      1.421406  
     364A      1.424767   365A      1.428833   366A      1.442420  
     367A      1.448179   368A      1.455544   369A      1.460869  
     370A      1.473879   371A      1.477252   372A      1.483159  
     373A      1.492391   374A      1.500001   375A      1.513985  
     376A      1.530638   377A      1.534524   378A      1.535991  
     379A      1.543071   380A      1.548658   381A      1.555692  
     382A      1.563552   383A      1.565781   384A      1.576289  
     385A      1.585079   386A      1.591674   387A      1.603888  
     388A      1.608948   389A      1.629818   390A      1.634261  
     391A      1.641938   392A      1.652581   393A      1.655296  
     394A      1.663283   395A      1.671700   396A      1.677068  
     397A      1.691197   398A      1.696290   399A      1.700791  
     400A      1.705415   401A      1.708595   402A      1.715798  
     403A      1.724530   404A      1.733178   405A      1.734753  
     406A      1.750083   407A      1.755776   408A      1.758208  
     409A      1.764549   410A      1.781395   411A      1.787577  
     412A      1.797283   413A      1.808591   414A      1.814160  
     415A      1.822443   416A      1.823599   417A      1.831428  
     418A      1.841776   419A      1.852829   420A      1.858665  
     421A      1.860698   422A      1.871934   423A      1.880362  
     424A      1.884439   425A      1.897773   426A      1.904012  
     427A      1.908861   428A      1.915232   429A      1.918684  
     430A      1.922361   431A      1.930020   432A      1.944310  
     433A      1.946921   434A      1.948594   435A      1.951554  
     436A      1.958387   437A      1.968723   438A      1.985994  
     439A      1.991141   440A      1.997134   441A      2.000712  
     442A      2.012874   443A      2.017081   444A      2.031131  
     445A      2.035651   446A      2.043582   447A      2.056143  
     448A      2.062191   449A      2.074026   450A      2.077015  
     451A      2.082934   452A      2.092018   453A      2.100526  
     454A      2.112480   455A      2.120511   456A      2.142031  
     457A      2.154985   458A      2.166469   459A      2.190907  
     460A      2.199814   461A      2.203391   462A      2.208440  
     463A      2.215320   464A      2.217000   465A      2.230576  
     466A      2.237328   467A      2.245487   468A      2.255337  
     469A      2.262149   470A      2.279938   471A      2.286986  
     472A      2.292340   473A      2.296819   474A      2.308022  
     475A      2.322067   476A      2.335662   477A      2.346747  
     478A      2.355124   479A      2.368009   480A      2.379165  
     481A      2.393287   482A      2.402500   483A      2.406815  
     484A      2.414879   485A      2.423119   486A      2.427260  
     487A      2.437578   488A      2.446071   489A      2.451868  
     490A      2.474097   491A      2.491554   492A      2.498107  
     493A      2.516233   494A      2.524386   495A      2.546059  
     496A      2.558332   497A      2.565793   498A      2.572697  
     499A      2.595333   500A      2.600845   501A      2.627516  
     502A      2.639509   503A      2.658450   504A      2.675564  
     505A      2.693306   506A      2.714231   507A      2.723007  
     508A      2.737736   509A      2.760293   510A      2.775119  
     511A      2.776890   512A      2.785042   513A      2.822469  
     514A      2.837678   515A      2.851375   516A      2.881554  
     517A      2.891545   518A      2.947848   519A      2.952753  
     520A      2.968795   521A      2.978156   522A      2.997172  
     523A      3.001784   524A      3.014036   525A      3.037670  
     526A      3.066269   527A      3.070477   528A      3.084950  
     529A      3.094428   530A      3.117185   531A      3.140542  
     532A      3.161320   533A      3.164511   534A      3.172840  
     535A      3.183948   536A      3.194005   537A      3.208599  
     538A      3.214644   539A      3.229335   540A      3.237232  
     541A      3.244670   542A      3.257502   543A      3.260270  
     544A      3.271912   545A      3.276054   546A      3.286713  
     547A      3.299298   548A      3.310604   549A      3.327002  
     550A      3.336412   551A      3.352706   552A      3.356331  
     553A      3.372114   554A      3.383510   555A      3.385380  
     556A      3.395527   557A      3.397939   558A      3.404733  
     559A      3.412265   560A      3.415645   561A      3.418914  
     562A      3.432950   563A      3.442522   564A      3.449442  
     565A      3.462987   566A      3.469827   567A      3.473132  
     568A      3.488066   569A      3.505284   570A      3.511069  
     571A      3.515727   572A      3.538588   573A      3.548926  
     574A      3.551080   575A      3.564594   576A      3.571105  
     577A      3.573455   578A      3.597205   579A      3.602563  
     580A      3.615661   581A      3.626291   582A      3.627177  
     583A      3.633953   584A      3.651323   585A      3.658268  
     586A      3.661607   587A      3.665751   588A      3.690687  
     589A      3.700189   590A      3.709438   591A      3.714121  
     592A      3.721249   593A      3.735891   594A      3.741290  
     595A      3.756061   596A      3.759272   597A      3.765448  
     598A      3.772047   599A      3.782014   600A      3.787263  
     601A      3.794927   602A      3.797100   603A      3.814498  
     604A      3.824351   605A      3.837813   606A      3.843880  
     607A      3.852172   608A      3.862417   609A      3.870565  
     610A      3.876678   611A      3.878007   612A      3.881530  
     613A      3.887240   614A      3.894821   615A      3.905807  
     616A      3.917493   617A      3.944220   618A      3.945393  
     619A      3.957195   620A      3.961924   621A      3.981812  
     622A      3.987845   623A      3.990850   624A      4.006412  
     625A      4.018216   626A      4.026578   627A      4.030950  
     628A      4.043793   629A      4.056181   630A      4.061460  
     631A      4.063719   632A      4.079637   633A      4.081759  
     634A      4.089718   635A      4.100853   636A      4.110479  
     637A      4.112776   638A      4.112992   639A      4.135258  
     640A      4.142084   641A      4.153554   642A      4.162357  
     643A      4.176551   644A      4.182303   645A      4.190157  
     646A      4.201505   647A      4.211697   648A      4.216537  
     649A      4.221685   650A      4.225047   651A      4.234799  
     652A      4.246874   653A      4.249518   654A      4.264818  
     655A      4.276009   656A      4.278541   657A      4.285669  
     658A      4.294753   659A      4.299948   660A      4.304409  
     661A      4.311837   662A      4.323374   663A      4.332521  
     664A      4.343043   665A      4.345535   666A      4.365422  
     667A      4.369531   668A      4.372921   669A      4.382482  
     670A      4.398508   671A      4.402031   672A      4.410477  
     673A      4.416762   674A      4.430667   675A      4.449451  
     676A      4.456039   677A      4.463615   678A      4.492160  
     679A      4.501719   680A      4.507757   681A      4.542406  
     682A      4.555980   683A      4.561085   684A      4.575101  
     685A      4.581999   686A      4.602442   687A      4.611908  
     688A      4.613850   689A      4.648198   690A      4.652745  
     691A      4.661267   692A      4.665608   693A      4.672483  
     694A      4.684767   695A      4.718543   696A      4.727281  
     697A      4.744032   698A      4.752541   699A      4.761352  
     700A      4.765480   701A      4.775519   702A      4.801329  
     703A      4.816050   704A      4.826202   705A      4.830146  
     706A      4.835070   707A      4.853670   708A      4.877160  
     709A      4.885796   710A      4.896331   711A      4.902859  
     712A      4.916874   713A      4.938402   714A      4.944589  
     715A      4.952834   716A      4.961861   717A      4.973602  
     718A      4.978423   719A      4.993294   720A      5.002581  
     721A      5.006035   722A      5.015799   723A      5.019370  
     724A      5.042680   725A      5.048333   726A      5.055179  
     727A      5.082023   728A      5.100015   729A      5.117258  
     730A      5.140143   731A      5.146134   732A      5.168034  
     733A      5.178438   734A      5.185148   735A      5.198751  
     736A      5.209587   737A      5.212153   738A      5.226583  
     739A      5.261243   740A      5.272544   741A      5.284941  
     742A      5.302461   743A      5.307465   744A      5.310740  
     745A      5.338633   746A      5.358293   747A      5.383705  
     748A      5.390532   749A      5.415009   750A      5.430060  
     751A      5.442929   752A      5.452987   753A      5.510404  
     754A      5.526158   755A      5.554744   756A      5.563774  
     757A      5.578561   758A      5.588748   759A      5.607858  
     760A      5.616825   761A      5.630910   762A      5.664023  
     763A      5.695904   764A      5.701076   765A      5.724030  
     766A      5.735818   767A      5.780248   768A      5.808717  
     769A      5.843386   770A      5.863288   771A      5.940156  
     772A      5.954716   773A      5.990413   774A      5.995791  
     775A      6.029805   776A      6.047295   777A      6.091418  
     778A      6.126636   779A      6.191185   780A      6.215918  
     781A      6.258760   782A      6.291364   783A      6.309735  
     784A      6.350895   785A      6.373605   786A      6.398204  
     787A      6.417934   788A      6.484729   789A      6.491467  
     790A      6.549032   791A      6.579746   792A      6.641097  
     793A      6.672705   794A      6.752309   795A      6.792367  
     796A      6.794140   797A      6.803977   798A      6.831956  
     799A      6.844825   800A      6.902127   801A      6.949792  
     802A      6.972139   803A      6.985657   804A      7.112335  
     805A      7.160992   806A      7.321818   807A      7.333504  
     808A      7.468392   809A      7.545935   810A      7.584993  
     811A      7.611150   812A      7.654652   813A      7.912104  
     814A      8.289402   815A      8.539750   816A     16.024279  
     817A     16.282328   818A     16.609743   819A     16.669484  
     820A     16.977654   821A     18.799311   822A     19.121603  
     823A     19.385718   824A     19.763029   825A     19.969215  
     826A     20.014176   827A     20.541500   828A     21.795107  

    Final Occupation by Irrep:
              A 
    DOCC [    45 ]

  Energy converged.

  @DF-RHF Final Energy:  -551.67602014257386

   => Energetics <=

    Nuclear Repulsion Energy =            713.2524872421953432
    One-Electron Energy =               -2149.4367570029344279
    Two-Electron Energy =                 884.5082496181651095
    DFT Exchange-Correlation Energy =       0.0000000000000000
    Empirical Dispersion Energy =           0.0000000000000000
    PCM Polarization Energy =               0.0000000000000000
    EFP Energy =                            0.0000000000000000
    Total Energy =                       -551.6760201425738614



Properties will be evaluated at   0.000000,   0.000000,   0.000000 Bohr

Properties computed using the SCF density matrix

  Nuclear Dipole Moment: (a.u.)
     X:     2.9520      Y:    -1.5984      Z:    -0.9345

  Electronic Dipole Moment: (a.u.)
     X:     0.2932      Y:    -0.1444      Z:    -0.4906

  Dipole Moment: (a.u.)
     X:     3.2453      Y:    -1.7428      Z:    -1.4251     Total:     3.9497

  Dipole Moment: (Debye)
     X:     8.2486      Y:    -4.4296      Z:    -3.6222     Total:    10.0390


*** tstop() called on gpu-2-10.local at Sun Nov 12 09:10:03 2017
Module time:
	user time   =    1203.25 seconds =      20.05 minutes
	system time =      55.25 seconds =       0.92 minutes
	total time  =        537 seconds =       8.95 minutes
Total time:
	user time   =    1203.25 seconds =      20.05 minutes
	system time =      55.25 seconds =       0.92 minutes
	total time  =        537 seconds =       8.95 minutes

  //>>>>>>>>>>>>>>>>>>>>>>>>>>>>>>>>>>>//
  //               DFMP2               //
  //<<<<<<<<<<<<<<<<<<<<<<<<<<<<<<<<<<<//

   => Loading Basis Set <=

    Name: (AUG-CC-PVTZ AUX)
    Role: RIFIT
    Keyword: DF_BASIS_MP2
    atoms 1-11  entry C          line   147 file /cbio/jclab/home/chayas/anaconda/envs/py35/share/psi4/basis/aug-cc-pvtz-ri.gbs 
    atoms 12    entry N          line   205 file /cbio/jclab/home/chayas/anaconda/envs/py35/share/psi4/basis/aug-cc-pvtz-ri.gbs 
    atoms 13    entry O          line   263 file /cbio/jclab/home/chayas/anaconda/envs/py35/share/psi4/basis/aug-cc-pvtz-ri.gbs 
    atoms 14-23 entry H          line    29 file /cbio/jclab/home/chayas/anaconda/envs/py35/share/psi4/basis/aug-cc-pvtz-ri.gbs 

	 --------------------------------------------------------
	                          DF-MP2                         
	      2nd-Order Density-Fitted Moller-Plesset Theory     
	              RMP2 Wavefunction,   8 Threads             
	                                                         
	        Rob Parrish, Justin Turney, Andy Simmonett,      
	           Ed Hohenstein, and C. David Sherrill          
	 --------------------------------------------------------

   => Auxiliary Basis Set <=

  Basis Set: (AUG-CC-PVTZ AUX)
    Blend: AUG-CC-PVTZ-RI
    Number of shells: 504
    Number of basis function: 1838
    Number of Cartesian functions: 2318
    Spherical Harmonics?: true
    Max angular momentum: 4

	 --------------------------------------------------------
	                 NBF =   828, NAUX =  1838
	 --------------------------------------------------------
	   CLASS    FOCC     OCC    AOCC    AVIR     VIR    FVIR
	   PAIRS       0      45      45     783     783       0
	 --------------------------------------------------------


         ------------------------------------------------------------
                                     CPHF                           
                                  Rob Parrish                       
         ------------------------------------------------------------

  ==> Geometry <==

    Molecular point group: c1
    Full point group: C1

    Geometry (in Angstrom), charge = 1, multiplicity = 1:

       Center              X                  Y                   Z               Mass       
    ------------   -----------------  -----------------  -----------------  -----------------
           C         -1.271514940634     0.720166653531    -0.579060428265    12.000000000000
           C         -0.278514940634     0.104166653531     1.534939571735    12.000000000000
           C         -2.349514940634     1.293166653531     0.093939571735    12.000000000000
           C         -1.356514940634     0.677166653531     2.208939571735    12.000000000000
           C          1.283485059366     0.037166653531    -1.789060428265    12.000000000000
           C          1.559485059366    -1.548833346469     0.001939571735    12.000000000000
           C          2.359485059366    -0.552833346469    -2.437060428265    12.000000000000
           C          2.629485059366    -2.098833346469    -0.691060428265    12.000000000000
           C         -0.235514940634     0.125166653531     0.140939571735    12.000000000000
           C          0.883485059366    -0.468833346469    -0.557060428265    12.000000000000
           C         -2.392514940634     1.272166653531     1.487939571735    12.000000000000
           N          2.993485059366    -1.591833346469    -1.876060428265    14.003074004780
           O         -3.444514940634     1.832166653531     2.144939571735    15.994914619560
           H         -1.252514940634     0.744166653531    -1.666060428265     1.007825032070
           H          0.521485059366    -0.355833346469     2.110939571735     1.007825032070
           H         -3.153514940634     1.755166653531    -0.473060428265     1.007825032070
           H         -1.384514940634     0.658166653531     3.294939571735     1.007825032070
           H          0.774485059366     0.879166653531    -2.249060428265     1.007825032070
           H          1.268485059366    -1.964833346469     0.961939571735     1.007825032070
           H          2.740485059366    -0.225833346469    -3.395060428265     1.007825032070
           H          3.211485059366    -2.936833346469    -0.333060428265     1.007825032070
           H          3.781485059366    -2.010833346469    -2.369060428265     1.007825032070
           H         -3.331514940634     1.738166653531     3.103939571735     1.007825032070

  Nuclear repulsion =  713.252487242195343
  Reference energy  = -551.676020142573861

  ==> Basis Set <==

  Basis Set: AUG-CC-PVTZ
    Blend: AUG-CC-PVTZ
    Number of shells: 272
    Number of basis function: 828
    Number of Cartesian functions: 965
    Spherical Harmonics?: true
    Max angular momentum: 3

  ==> CGRSolver (by Rob Parrish) <==

   Number of roots    =         1
   Preconditioning    =    JACOBI
   Convergence cutoff =     1E-06
   Maximum iterations =       100

  ==> CPHFRHamiltonian (by Rob Parrish) <== 

  ==> DFJK: Density-Fitted J/K Matrices <==

    J tasked:                  Yes
    K tasked:                  Yes
    wK tasked:                  No
    OpenMP threads:              8
    Integrals threads:           8
    Memory (MB):              3576
    Algorithm:                Disk
    Integral Cache:           NONE
    Schwarz Cutoff:          1E-12
    Fitting Condition:       1E-12

   => Auxiliary Basis Set <=

  Basis Set: (AUG-CC-PVTZ AUX)
    Blend: AUG-CC-PVTZ-JKFIT
    Number of shells: 530
    Number of basis function: 1812
    Number of Cartesian functions: 2253
    Spherical Harmonics?: true
    Max angular momentum: 4

  ==> CPHF Iterations <==

  => Iterations <=

             Iter  Converged  Remaining    Residual
  CGR           1          0          1   1.126E-01
  CGR           2          0          1   5.128E-02
  CGR           3          0          1   2.985E-02
  CGR           4          0          1   9.621E-03
  CGR           5          0          1   4.507E-03
  CGR           6          0          1   2.252E-03
  CGR           7          0          1   6.938E-04
  CGR           8          0          1   2.796E-04
  CGR           9          0          1   1.339E-04
  CGR          10          0          1   4.569E-05
  CGR          11          0          1   1.476E-05
  CGR          12          0          1   5.464E-06
  CGR          13          0          1   1.706E-06
  CGR          14          1          0   5.445E-07

    CGRSolver converged.

  ==> DFCorrGrad: Density-Fitted Correlated Gradients <==

    OpenMP threads:              8
    Integrals threads:           8
    Memory (MB):              3576
    Schwarz Cutoff:          0E+00
    Fitting Condition:       1E-12

   => Auxiliary Basis Set <=

  Basis Set: (AUG-CC-PVTZ AUX)
    Blend: AUG-CC-PVTZ-JKFIT
    Number of shells: 530
    Number of basis function: 1812
    Number of Cartesian functions: 2253
    Spherical Harmonics?: true
    Max angular momentum: 4

	-----------------------------------------------------------
	 ==================> DF-MP2 Energies <==================== 
	-----------------------------------------------------------
	 Reference Energy          =    -551.6760201425738614 [Eh]
	 Singles Energy            =      -0.0000000000000001 [Eh]
	 Same-Spin Energy          =      -0.5966784068560215 [Eh]
	 Opposite-Spin Energy      =      -1.8256371173692312 [Eh]
	 Correlation Energy        =      -2.4223155242252528 [Eh]
	 Total Energy              =    -554.0983356667991302 [Eh]
	-----------------------------------------------------------
	 ================> DF-SCS-MP2 Energies <================== 
	-----------------------------------------------------------
	 SCS Same-Spin Scale       =       0.3333333333333333 [-]
	 SCS Opposite-Spin Scale   =       1.2000000000000000 [-]
	 SCS Same-Spin Energy      =      -0.1988928022853405 [Eh]
	 SCS Opposite-Spin Energy  =      -2.1907645408430771 [Eh]
	 SCS Correlation Energy    =      -2.3896573431284178 [Eh]
	 SCS Total Energy          =    -554.0656774857022810 [Eh]
	-----------------------------------------------------------


  -Total Gradient:
     Atom            X                  Y                   Z
    ------   -----------------  -----------------  -----------------
       1        0.009398664589    -0.009552359959    -0.006824254845
       2        0.011099730110    -0.000789110613    -0.009454143810
       3       -0.000423958660    -0.000103539391     0.007921244142
       4       -0.012181996868     0.006254006142     0.006039204557
       5       -0.015504934200     0.009091096523     0.013858943413
       6       -0.019430137146     0.008651859492     0.008436573403
       7        0.008636593307    -0.010353674249     0.004666992281
       8        0.005640678354     0.003250500545    -0.014020270130
       9       -0.003303320272     0.001551468884     0.001559852314
      10        0.014759773592    -0.007230533374    -0.009663857830
      11        0.003414716595    -0.001332470343    -0.015007757883
      12       -0.001871330283     0.000575892618     0.001547061045
      13       -0.005578139496     0.002845229866     0.009288327113
      14        0.001992519766     0.001278563271    -0.006061866582
      15        0.003770687865    -0.004449368009     0.002757241036
      16       -0.002825844307     0.002367571719    -0.005073097069
      17        0.000076702463    -0.000728106080     0.004414435010
      18       -0.005085201851     0.004322678499    -0.002909955168
      19       -0.001583240252    -0.000701661330     0.007049331011
      20        0.001875257661    -0.000465125297    -0.002571302457
      21        0.002426153451    -0.001676033954    -0.000085154218
      22        0.005149624785    -0.002748481240    -0.003240834945
      23       -0.000452999219    -0.000058403709     0.007373289624


*** tstop() called on gpu-2-10.local at Sun Nov 12 09:43:13 2017
Module time:
	user time   =    5363.03 seconds =      89.38 minutes
	system time =     117.50 seconds =       1.96 minutes
	total time  =       2527 seconds =      42.12 minutes
Total time:
	user time   =    5363.03 seconds =      89.38 minutes
	system time =     117.50 seconds =       1.96 minutes
	total time  =       2527 seconds =      42.12 minutes

			-----------------------------------------
			 OPTKING 2.0: for geometry optimizations 
			  - R.A. King,  Bethel University        
			-----------------------------------------

	Internal coordinates to be generated automatically.
	Detected frag 1 with atoms:  1 2 3 4 5 6 7 8 9 10 11 12 13 14 15 16 17 18 19 20
	 21 22 23
	---Fragment 1 Bond Connectivity---
	 1 : 3 9 14
	 2 : 4 9 15
	 3 : 1 11 16
	 4 : 2 11 17
	 5 : 7 10 18
	 6 : 8 10 19
	 7 : 5 12 20
	 8 : 6 12 21
	 9 : 1 2 10
	 10 : 5 6 9
	 11 : 3 4 13
	 12 : 7 8 22
	 13 : 11 23
	 14 : 1
	 15 : 2
	 16 : 3
	 17 : 4
	 18 : 5
	 19 : 6
	 20 : 7
	 21 : 8
	 22 : 12
	 23 : 13

	Assuming in current code that numbering for constraints corresponds to unified fragment.
	Fixed dihedral atom list: 
	     3    11    13    23
	---Fragment 1 Geometry and Gradient---
	 C          -2.4028150117        1.3609177452       -1.0942656238
	 C          -0.5263169617        0.1968464474        2.9006154211
	 C          -4.4399397829        2.4437308194        0.1775200636
	 C          -2.5634417330        1.2796595215        4.1742908347
	 C           2.4254352579        0.0702347964       -3.3808342446
	 C           2.9469996705       -2.9268708503        0.0036652594
	 C           4.4587805768       -1.0447036220       -4.6053767787
	 C           4.9690066327       -3.9662202234       -1.3059149507
	 C          -0.4450587380        0.2365306961        0.2663371919
	 C           1.6695448047       -0.8859666268       -1.0526916489
	 C          -4.5211980066        2.4040465706        2.8117982929
	 N           5.6568669451       -3.0081290740       -3.5452404182
	 O          -6.5091898984        3.4622932050        4.0533483622
	 H          -2.3669102151        1.4062711724       -3.1483979303
	 H           0.9854639446       -0.6724275738        3.9890976737
	 H          -5.9592795938        3.3167842927       -0.8939546537
	 H          -2.6163540647        1.2437547250        6.2265334150
	 H           1.4635646562        1.6613842003       -4.2501082657
	 H           2.3970893659       -3.7129969216        1.8178023470
	 H           5.1787662335       -0.4267631765       -6.4157344140
	 H           6.0688272421       -5.5498107228       -0.6293929951
	 H           7.1459711378       -3.7999243237       -4.4768754017
	 H          -6.2956508454        3.2846589485        5.8655957236
	             0.0093986646       -0.0095523600       -0.0068242548
	             0.0110997301       -0.0007891106       -0.0094541438
	            -0.0004239587       -0.0001035394        0.0079212441
	            -0.0121819969        0.0062540061        0.0060392046
	            -0.0155049342        0.0090910965        0.0138589434
	            -0.0194301371        0.0086518595        0.0084365734
	             0.0086365933       -0.0103536742        0.0046669923
	             0.0056406784        0.0032505005       -0.0140202701
	            -0.0033033203        0.0015514689        0.0015598523
	             0.0147597736       -0.0072305334       -0.0096638578
	             0.0034147166       -0.0013324703       -0.0150077579
	            -0.0018713303        0.0005758926        0.0015470610
	            -0.0055781395        0.0028452299        0.0092883271
	             0.0019925198        0.0012785633       -0.0060618666
	             0.0037706879       -0.0044493680        0.0027572410
	            -0.0028258443        0.0023675717       -0.0050730971
	             0.0000767025       -0.0007281061        0.0044144350
	            -0.0050852019        0.0043226785       -0.0029099552
	            -0.0015832403       -0.0007016613        0.0070493310
	             0.0018752577       -0.0004651253       -0.0025713025
	             0.0024261535       -0.0016760340       -0.0000851542
	             0.0051496248       -0.0027484812       -0.0032408349
	            -0.0004529992       -0.0000584037        0.0073732896

	Previous optimization step data not found.  Starting new optimization.

	---Fragment 1 Intrafragment Coordinates---
	 - Coordinate -           - BOHR/RAD -       - ANG/DEG -
	 R(1,3)           =         2.634350	       1.394038
	 R(1,9)           =         2.635962	       1.394891
	 R(1,14)          =         2.054947	       1.087431
	 R(2,4)           =         2.635263	       1.394521
	 R(2,9)           =         2.635830	       1.394821
	 R(2,15)          =         2.055702	       1.087831
	 R(3,11)          =         2.635830	       1.394821
	 R(3,16)          =         2.053941	       1.086899
	 R(4,11)          =         2.636938	       1.395407
	 R(4,17)          =         2.053239	       1.086527
	 R(5,7)           =         2.622420	       1.387725
	 R(5,10)          =         2.627915	       1.390633
	 R(5,18)          =         2.052459	       1.086115
	 R(6,8)           =         2.623692	       1.388398
	 R(6,10)          =         2.629272	       1.391351
	 R(6,19)          =         2.052191	       1.085973
	 R(7,12)          =         2.532655	       1.340223
	 R(7,20)          =         2.043924	       1.081598
	 R(8,12)          =         2.530942	       1.339317
	 R(8,21)          =         2.043293	       1.081264
	 R(9,10)          =         2.733384	       1.446444
	 R(11,13)         =         2.571662	       1.360865
	 R(12,22)         =         1.926737	       1.019585
	 R(13,23)         =         1.833410	       0.970199
	 B(1,3,11)        =         2.094553	     120.009056
	 B(1,3,16)        =         2.088505	     119.662516
	 B(1,9,2)         =         2.093692	     119.959722
	 B(1,9,10)        =         2.095161	     120.043881
	 B(2,4,11)        =         2.093699	     119.960108
	 B(2,4,17)        =         2.089577	     119.723926
	 B(2,9,10)        =         2.094332	     119.996376
	 B(3,1,9)         =         2.094940	     120.031219
	 B(3,1,14)        =         2.079469	     119.144799
	 B(3,11,4)        =         2.094306	     119.994870
	 B(3,11,13)       =         2.094549	     120.008801
	 B(4,2,9)         =         2.095181	     120.045019
	 B(4,2,15)        =         2.078675	     119.099297
	 B(4,11,13)       =         2.094331	     119.996326
	 B(5,7,12)        =         2.095473	     120.061759
	 B(5,7,20)        =         2.162990	     123.930212
	 B(5,10,6)        =         2.092808	     119.909049
	 B(5,10,9)        =         2.095104	     120.040644
	 B(6,8,12)        =         2.095689	     120.074121
	 B(6,8,21)        =         2.161055	     123.819347
	 B(6,10,9)        =         2.095271	     120.050189
	 B(7,5,10)        =         2.073747	     118.816947
	 B(7,5,18)        =         2.088865	     119.683141
	 B(7,12,8)        =         2.135611	     122.361511
	 B(7,12,22)       =         2.073499	     118.802740
	 B(8,6,10)        =         2.073041	     118.776513
	 B(8,6,19)        =         2.089782	     119.735704
	 B(8,12,22)       =         2.074075	     118.835741
	 B(9,1,14)        =         2.108776	     120.823969
	 B(9,2,15)        =         2.109330	     120.855683
	 B(10,5,18)       =         2.120573	     121.499869
	 B(10,6,19)       =         2.120361	     121.487761
	 B(11,3,16)       =         2.100127	     120.328425
	 B(11,4,17)       =         2.099910	     120.315955
	 B(11,13,23)      =         1.925489	     110.322421
	 B(12,7,20)       =         2.024722	     116.007998
	 B(12,8,21)       =         2.026441	     116.106509
	 D(1,3,11,4)      =        -0.000325	      -0.018609
	 D(1,3,11,13)     =         3.140978	     179.964785
	 D(1,9,2,4)       =         0.000325	       0.018608
	 D(1,9,2,15)      =        -3.141497	    -179.994534
	 D(1,9,10,5)      =         0.522161	      29.917626
	 D(1,9,10,6)      =        -2.617252	    -149.957477
	 D(2,4,11,3)      =         0.000301	       0.017261
	 D(2,4,11,13)     =        -3.141002	    -179.966135
	 D(2,9,1,3)       =        -0.000348	      -0.019945
	 D(2,9,1,14)      =        -3.141221	    -179.978731
	 D(2,9,10,5)      =        -2.618515	    -150.029870
	 D(2,9,10,6)      =         0.525257	      30.095026
	 D(3,1,9,10)      =        -3.141025	    -179.967461
	 D(3,11,4,17)     =         3.141223	     179.978848
	 D(3,11,13,23)    =         3.140828	     179.956172
	 D(4,2,9,10)      =         3.141002	     179.966149
	 D(4,11,3,16)     =         3.141593	     180.000000
	 D(4,11,13,23)    =        -0.001055	      -0.060434
	 D(5,7,12,8)      =        -0.000900	      -0.051587
	 D(5,7,12,22)     =         3.141281	     179.982140
	 D(5,10,6,8)      =         0.001757	       0.100696
	 D(5,10,6,19)     =        -3.140779	    -179.953357
	 D(6,8,12,7)      =         0.001479	       0.084766
	 D(6,8,12,22)     =        -3.140702	    -179.948971
	 D(6,10,5,7)      =        -0.001201	      -0.068795
	 D(6,10,5,18)     =        -3.141485	    -179.993816
	 D(7,5,10,9)      =        -3.140617	    -179.944076
	 D(7,12,8,21)     =        -3.141052	    -179.969035
	 D(8,6,10,9)      =         3.141173	     179.975965
	 D(8,12,7,20)     =         3.139609	     179.886353
	 D(9,1,3,11)      =         0.000348	       0.019955
	 D(9,1,3,16)      =        -3.141571	    -179.998735
	 D(9,2,4,11)      =        -0.000301	      -0.017270
	 D(9,2,4,17)      =        -3.141228	    -179.979086
	 D(9,10,5,18)     =         0.002285	       0.130903
	 D(9,10,6,19)     =        -0.001363	      -0.078088
	 D(10,5,7,12)     =         0.000747	       0.042772
	 D(10,5,7,20)     =        -3.139673	    -179.890006
	 D(10,6,8,12)     =        -0.001882	      -0.107847
	 D(10,6,8,21)     =         3.140725	     179.950304
	 D(10,9,1,14)     =         0.001287	       0.073752
	 D(10,9,2,15)     =        -0.000820	      -0.046992
	 D(11,3,1,14)     =         3.141234	     179.979432
	 D(11,4,2,15)     =         3.141517	     179.995641
	 D(12,7,5,18)     =         3.141055	     179.969186
	 D(12,8,6,19)     =         3.140637	     179.945236
	 D(13,11,3,16)    =        -0.000286	      -0.016400
	 D(13,11,4,17)    =        -0.000079	      -0.004548
	 D(14,1,3,16)     =        -0.000685	      -0.039257
	 D(15,2,4,17)     =         0.000590	       0.033826
	 D(18,5,7,20)     =         0.000635	       0.036408
	 D(19,6,8,21)     =         0.000059	       0.003387
	 D(20,7,12,22)    =        -0.001395	      -0.079920
	 D(21,8,12,22)    =        -0.000048	      -0.002772

	Current energy   :      -554.0983356668

	Generating empirical Hessian (Schlegel '84) for each fragment.
	Adding user-defined constraint: Fragment 1; Coordinate 76:
		Value =     3.140828; Fixed value    =    -3.141575
		Force =    -3.141201; Force constant =     0.500000
	Removing off-diagonal coupling between coordinate 76 and others.
	Taking RFO optimization step.
	Going to follow RFO solution 1.
	Using RFO vector 1.

	Determining step-restricting scale parameter for RS-RFO.
	Maximum step size allowed    0.10000

	 Iter      |step|        alpha        rfo_root  
	------------------------------------------------
	    0     0.93970       1.00000           1
	    1     0.56563       2.90552           1
	    2     0.34863       7.87037           1
	    3     0.22413      19.35075           1
	    4     0.15449      41.09266           1
	    5     0.11833      70.36446           1
	    6     0.10340      92.32884           1
	    7     0.10016      98.43942           1
	    8     0.10000      98.75448           1
	------------------------------------------------
	Norm of target step-size    0.10000
	Projected energy change by RFO approximation:        -0.2390486557

	Back-transformation to cartesian coordinates...
	Could not converge backtransformation.
	Using first guess instead.

	--- Internal Coordinate Step in ANG or DEG, aJ/ANG or AJ/DEG ---
	 ---------------------------------------------------------------------------
	   Coordinate                Previous        Force       Change         New 
	   ----------                --------       ------       ------       ------
	    1 R(1,3)          =      1.394038    -0.102361    -0.000267     1.393771
	    2 R(1,9)          =      1.394891     0.022518     0.000060     1.394951
	    3 R(1,14)         =      1.087431    -0.050442    -0.000125     1.087306
	    4 R(2,4)          =      1.394521    -0.102920    -0.000269     1.394252
	    5 R(2,9)          =      1.394821     0.012680     0.000035     1.394856
	    6 R(2,15)         =      1.087831    -0.050375    -0.000131     1.087700
	    7 R(3,11)         =      1.394821    -0.056975    -0.000119     1.394702
	    8 R(3,16)         =      1.086899    -0.047317    -0.000119     1.086779
	    9 R(4,11)         =      1.395407    -0.008385    -0.000006     1.395402
	   10 R(4,17)         =      1.086527    -0.036440    -0.000096     1.086431
	   11 R(5,7)          =      1.387725    -0.115404    -0.000301     1.387424
	   12 R(5,10)         =      1.390633     0.072263     0.000195     1.390828
	   13 R(5,18)         =      1.086115    -0.057396    -0.000152     1.085963
	   14 R(6,8)          =      1.388398    -0.119056    -0.000311     1.388087
	   15 R(6,10)         =      1.391351     0.066887     0.000177     1.391528
	   16 R(6,19)         =      1.085973    -0.057050    -0.000149     1.085824
	   17 R(7,12)         =      1.340223     0.020575     0.000055     1.340278
	   18 R(7,20)         =      1.081598    -0.023047    -0.000058     1.081539
	   19 R(8,12)         =      1.339317     0.026145     0.000072     1.339389
	   20 R(8,21)         =      1.081264    -0.021229    -0.000056     1.081208
	   21 R(9,10)         =      1.446444     0.053170     0.000145     1.446589
	   22 R(11,13)        =      1.360865    -0.114131    -0.000248     1.360616
	   23 R(12,22)        =      1.019585    -0.055006    -0.000143     1.019442
	   24 R(13,23)        =      0.970199    -0.059657     0.001769     0.971967
	   25 B(1,3,11)       =    120.009056    -0.000065    -0.001940   120.007116
	   26 B(1,3,16)       =    119.662516     0.000226     0.006357   119.668873
	   27 B(1,9,2)        =    119.959722    -0.000465    -0.014510   119.945212
	   28 B(1,9,10)       =    120.043881     0.000230     0.006968   120.050849
	   29 B(2,4,11)       =    119.960108     0.000053     0.001864   119.961972
	   30 B(2,4,17)       =    119.723926     0.000014     0.000122   119.724048
	   31 B(2,9,10)       =    119.996376     0.000239     0.007530   120.003906
	   32 B(3,1,9)        =    120.031219     0.000307     0.009446   120.040665
	   33 B(3,1,14)       =    119.144799    -0.000237    -0.007197   119.137602
	   34 B(3,11,4)       =    119.994870     0.000052    -0.001717   119.993153
	   35 B(3,11,13)      =    120.008801    -0.001034    -0.038236   119.970565
	   36 B(4,2,9)        =    120.045019     0.000113     0.003633   120.048652
	   37 B(4,2,15)       =    119.099297    -0.000095    -0.002829   119.096468
	   38 B(4,11,13)      =    119.996326     0.000992     0.026533   120.022859
	   39 B(5,7,12)       =    120.061759    -0.000222    -0.006992   120.054766
	   40 B(5,7,20)       =    123.930212    -0.000010    -0.000202   123.930011
	   41 B(5,10,6)       =    119.909049    -0.000841    -0.026340   119.882709
	   42 B(5,10,9)       =    120.040644     0.000407     0.012842   120.053487
	   43 B(6,8,12)       =    120.074121    -0.000218    -0.006724   120.067396
	   44 B(6,8,21)       =    123.819347     0.000002     0.000043   123.819389
	   45 B(6,10,9)       =    120.050189     0.000434     0.013498   120.063687
	   46 B(7,5,10)       =    118.816947     0.000527     0.016601   118.833548
	   47 B(7,5,18)       =    119.683141    -0.000351    -0.011035   119.672106
	   48 B(7,12,8)       =    122.361511     0.000216     0.006654   122.368165
	   49 B(7,12,22)      =    118.802740    -0.000107    -0.003396   118.799344
	   50 B(8,6,10)       =    118.776513     0.000538     0.016803   118.793315
	   51 B(8,6,19)       =    119.735704    -0.000361    -0.011189   119.724515
	   52 B(8,12,22)      =    118.835741    -0.000108    -0.003258   118.832483
	   53 B(9,1,14)       =    120.823969    -0.000072    -0.002364   120.821605
	   54 B(9,2,15)       =    120.855683    -0.000019    -0.000871   120.854811
	   55 B(10,5,18)      =    121.499869    -0.000176    -0.005568   121.494301
	   56 B(10,6,19)      =    121.487761    -0.000177    -0.005612   121.482149
	   57 B(11,3,16)      =    120.328425    -0.000161    -0.004499   120.323926
	   58 B(11,4,17)      =    120.315955    -0.000068    -0.002094   120.313860
	   59 B(11,13,23)     =    110.322421    -0.000204    -0.015563   110.306857
	   60 B(12,7,20)      =    116.007998     0.000232     0.007193   116.015191
	   61 B(12,8,21)      =    116.106509     0.000216     0.006680   116.113190
	   62 D(1,3,11,4)     =     -0.018609    -0.004641    -0.630867    -0.649476
	   63 D(1,3,11,13)    =    179.964785     0.005285     0.718022   180.682808
	   64 D(1,9,2,4)      =      0.018608    -0.000771    -0.104803    -0.086196
	   65 D(1,9,2,15)     =   -179.994534    -0.001384    -0.188209  -180.182743
	   66 D(1,9,10,5)     =     29.917626     0.000440     0.059984    29.977611
	   67 D(1,9,10,6)     =   -149.957477     0.000440     0.059896  -149.897581
	   68 D(2,4,11,3)     =      0.017261     0.004629     0.629318     0.646579
	   69 D(2,4,11,13)    =   -179.966135    -0.005295    -0.720272  -180.686406
	   70 D(2,9,1,3)      =     -0.019945     0.000761     0.103529     0.083585
	   71 D(2,9,1,14)     =   -179.978731     0.001422     0.193396  -179.785335
	   72 D(2,9,10,5)     =   -150.029870    -0.000427    -0.058011  -150.087882
	   73 D(2,9,10,6)     =     30.095026    -0.000428    -0.058100    30.036926
	   74 D(3,1,9,10)     =   -179.967461    -0.000106    -0.014408  -179.981869
	   75 D(3,11,4,17)    =    179.978848     0.003982     0.541310   180.520158
	   76 D(3,11,13,23)   =    179.956172    -0.032375    -4.396933   175.559239
	   77 D(4,2,9,10)     =    179.966149     0.000097     0.013078   179.979227
	   78 D(4,11,3,16)    =    180.000000    -0.003997    -0.543255   179.456745
	   79 D(4,11,13,23)   =     -0.060434    -0.022449    -3.047645    -3.108079
	   80 D(5,7,12,8)     =     -0.051587     0.000001     0.000143    -0.051444
	   81 D(5,7,12,22)    =    179.982140     0.000000     0.000062   179.982202
	   82 D(5,10,6,8)     =      0.100696    -0.000000    -0.000158     0.100538
	   83 D(5,10,6,19)    =   -179.953357     0.000016     0.002098  -179.951259
	   84 D(6,8,12,7)     =      0.084766    -0.000000    -0.000050     0.084716
	   85 D(6,8,12,22)    =   -179.948971     0.000000     0.000031  -179.948940
	   86 D(6,10,5,7)     =     -0.068795     0.000001     0.000258    -0.068536
	   87 D(6,10,5,18)    =   -179.993816     0.000016     0.002244  -179.991573
	   88 D(7,5,10,9)     =   -179.944076     0.000001     0.000120  -179.943956
	   89 D(7,12,8,21)    =   -179.969035    -0.000007    -0.001012  -179.970047
	   90 D(8,6,10,9)     =    179.975965     0.000000    -0.000021   179.975944
	   91 D(8,12,7,20)    =    179.886353    -0.000006    -0.000809   179.885544
	   92 D(9,1,3,11)     =      0.019955     0.001945     0.264368     0.284323
	   93 D(9,1,3,16)     =   -179.998735     0.001306     0.177536  -179.821198
	   94 D(9,2,4,11)     =     -0.017270    -0.001924    -0.261531    -0.278802
	   95 D(9,2,4,17)     =   -179.979086    -0.001280    -0.174044  -180.153130
	   96 D(9,10,5,18)    =      0.130903     0.000015     0.002105     0.133008
	   97 D(9,10,6,19)    =     -0.078088     0.000016     0.002235    -0.075853
	   98 D(10,5,7,12)    =      0.042772    -0.000001    -0.000232     0.042540
	   99 D(10,5,7,20)    =   -179.890006     0.000006     0.000796  -179.889210
	  100 D(10,6,8,12)    =     -0.107847    -0.000000     0.000043    -0.107804
	  101 D(10,6,8,21)    =    179.950304     0.000008     0.001080   179.951384
	  102 D(10,9,1,14)    =      0.073752     0.000555     0.075458     0.149211
	  103 D(10,9,2,15)    =     -0.046992    -0.000517    -0.070327    -0.117320
	  104 D(11,3,1,14)    =    179.979432     0.001295     0.176014   180.155447
	  105 D(11,4,2,15)    =    179.995641    -0.001321    -0.179590   179.816052
	  106 D(12,7,5,18)    =    179.969186    -0.000016    -0.002176   179.967010
	  107 D(12,8,6,19)    =    179.945236    -0.000016    -0.002175   179.943061
	  108 D(13,11,3,16)   =     -0.016400     0.005928     0.805427     0.789028
	  109 D(13,11,4,17)   =     -0.004548    -0.005943    -0.808280    -0.812828
	  110 D(14,1,3,16)    =     -0.039257     0.000656     0.089182     0.049925
	  111 D(15,2,4,17)    =      0.033826    -0.000677    -0.092103    -0.058277
	  112 D(18,5,7,20)    =      0.036408    -0.000008    -0.001149     0.035260
	  113 D(19,6,8,21)    =      0.003387    -0.000008    -0.001138     0.002249
	  114 D(20,7,12,22)   =     -0.079920    -0.000006    -0.000890    -0.080811
	  115 D(21,8,12,22)   =     -0.002772    -0.000007    -0.000931    -0.003703
	 ---------------------------------------------------------------------------
	Successfully symmetrized geometry.
	 Forces used to impose fixed constraints are not included.
	  Forces zeroed: 76 

  ==> Convergence Check <==

  Measures of convergence in internal coordinates in au.
  Criteria marked as inactive (o), active & met (*), and active & unmet ( ).
  --------------------------------------------------------------------------------------------- ~
   Step     Total Energy     Delta E     MAX Force     RMS Force      MAX Disp      RMS Disp    ~
  --------------------------------------------------------------------------------------------- ~
    Convergence Criteria    1.00e-06 *    3.00e-04 *             o    1.20e-03 *             o  ~
  --------------------------------------------------------------------------------------------- ~
      1    -554.09833567   -5.54e+02      1.29e+00      1.44e-01 o    7.67e-02      9.32e-03 o  ~
  ---------------------------------------------------------------------------------------------

	Writing optimization data to binary file.
	Structure for next step:
	Cartesian Geometry (in Angstrom)
	    C    -1.2695728290   0.7242845303  -0.5783764029
	    C    -0.2750668235   0.1104130866   1.5354263801
	    C    -2.3458861024   1.2996939444   0.0947136692
	    C    -1.3513789670   0.6858554327   2.2094869822
	    C     1.2841101178   0.0362073047  -1.7905211876
	    C     1.5597974276  -1.5471824731   0.0028371696
	    C     2.3582178041  -0.5563308544  -2.4386996641
	    C     2.6279281901  -2.0999038099  -0.6902591646
	    C    -0.2329033237   0.1299738031   0.1413452692
	    C     0.8844955792  -0.4669598964  -0.5570170286
	    C    -2.3841505048   1.2868424189   1.4888317599
	    N     2.9912767099  -1.5953789010  -1.8765959112
	    O    -3.4419129405   1.8364342906   2.1448532475
	    H    -1.2529556600   0.7445130541  -1.6653673566
	    H     0.5237269717  -0.3515822693   2.1112555730
	    H    -3.1516817741   1.7584953360  -0.4721055674
	    H    -1.3800601208   0.6654313189   3.2953477198
	    H     0.7760289411   0.8780963312  -2.2513812559
	    H     1.2694126885  -1.9611841683   0.9637182806
	    H     2.7385330003  -0.2314841272  -3.3976379428
	    H     3.2090006264  -2.9381478956  -0.3314927449
	    H     3.7779566162  -2.0163449481  -2.3697341238
	    H    -3.3587592616   1.6890915229   3.1019824491
			--------------------------
			 OPTKING Finished Execution 
			--------------------------

    Structure for next step:
    Molecular point group: c1
    Full point group: C1

    Geometry (in Angstrom), charge = 1, multiplicity = 1:

    C           -1.271182072843     0.721429921045    -0.578483831507
    C           -0.276676067386     0.107558477287     1.535318951528
    C           -2.347495346282     1.296839335153     0.094606240597
    C           -1.352988210841     0.683000823466     2.209379553616
    C            1.282500873918     0.033352695476    -1.790628616180
    C            1.558188183747    -1.550037082367     0.002729740983
    C            2.356608560227    -0.559185463642    -2.438807092683
    C            2.626318946287    -2.102758419134    -0.690366593196
    C           -0.234512567546     0.127119193864     0.141237840606
    C            0.882886335292    -0.469814505715    -0.557124457175
    C           -2.385759748669     1.283987809665     1.488724331300
    N            2.989667466068    -1.598233510296    -1.876703339805
    O           -3.443522184400     1.833579681307     2.144745818878
    H           -1.254564903896     0.741658444834    -1.665474785202
    H            0.522117727793    -0.354436878526     2.111148144367
    H           -3.153291017910     1.755640726712    -0.472212995992
    H           -1.381669364667     0.662576709617     3.295240291238
    H            0.774419697271     0.875241721915    -2.251488684538
    H            1.267803444615    -1.964038777556     0.963610852028
    H            2.736923756480    -0.234338736460    -3.397745371382
    H            3.207391382505    -2.941002504877    -0.331600173492
    H            3.776347372344    -2.019199557419    -2.369841552441
    H           -3.360368505446     1.686236913644     3.101875020471

gradient() will perform analytic gradient computation.

*** tstart() called on gpu-2-10.local
*** at Sun Nov 12 09:43:15 2017

    SCF Algorithm Type (re)set to DF.

*** tstart() called on gpu-2-10.local
*** at Sun Nov 12 09:43:15 2017

   => Loading Basis Set <=

    Name: AUG-CC-PVTZ
    Role: ORBITAL
    Keyword: BASIS
    atoms 1-11  entry C          line   221 file /cbio/jclab/home/chayas/anaconda/envs/py35/share/psi4/basis/aug-cc-pvtz.gbs 
    atoms 12    entry N          line   267 file /cbio/jclab/home/chayas/anaconda/envs/py35/share/psi4/basis/aug-cc-pvtz.gbs 
    atoms 13    entry O          line   313 file /cbio/jclab/home/chayas/anaconda/envs/py35/share/psi4/basis/aug-cc-pvtz.gbs 
    atoms 14-23 entry H          line    34 file /cbio/jclab/home/chayas/anaconda/envs/py35/share/psi4/basis/aug-cc-pvtz.gbs 


         ---------------------------------------------------------
                                   SCF
            by Justin Turney, Rob Parrish, and Andy Simmonett
                              RHF Reference
                        8 Threads,   4768 MiB Core
         ---------------------------------------------------------

  ==> Geometry <==

    Molecular point group: c1
    Full point group: C1

    Geometry (in Angstrom), charge = 1, multiplicity = 1:

       Center              X                  Y                   Z               Mass       
    ------------   -----------------  -----------------  -----------------  -----------------
           C         -1.271182072843     0.721429921045    -0.578483831507    12.000000000000
           C         -0.276676067386     0.107558477287     1.535318951528    12.000000000000
           C         -2.347495346282     1.296839335153     0.094606240597    12.000000000000
           C         -1.352988210841     0.683000823466     2.209379553616    12.000000000000
           C          1.282500873918     0.033352695476    -1.790628616180    12.000000000000
           C          1.558188183747    -1.550037082367     0.002729740983    12.000000000000
           C          2.356608560227    -0.559185463642    -2.438807092683    12.000000000000
           C          2.626318946287    -2.102758419134    -0.690366593196    12.000000000000
           C         -0.234512567546     0.127119193864     0.141237840606    12.000000000000
           C          0.882886335292    -0.469814505715    -0.557124457175    12.000000000000
           C         -2.385759748669     1.283987809665     1.488724331300    12.000000000000
           N          2.989667466068    -1.598233510296    -1.876703339805    14.003074004780
           O         -3.443522184400     1.833579681307     2.144745818878    15.994914619560
           H         -1.254564903896     0.741658444834    -1.665474785202     1.007825032070
           H          0.522117727793    -0.354436878526     2.111148144367     1.007825032070
           H         -3.153291017910     1.755640726712    -0.472212995992     1.007825032070
           H         -1.381669364667     0.662576709617     3.295240291238     1.007825032070
           H          0.774419697271     0.875241721915    -2.251488684538     1.007825032070
           H          1.267803444615    -1.964038777556     0.963610852028     1.007825032070
           H          2.736923756480    -0.234338736460    -3.397745371382     1.007825032070
           H          3.207391382505    -2.941002504877    -0.331600173492     1.007825032070
           H          3.776347372344    -2.019199557419    -2.369841552441     1.007825032070
           H         -3.360368505446     1.686236913644     3.101875020471     1.007825032070

  Running in c1 symmetry.

  Rotational constants: A =      0.09612  B =      0.01336  C =      0.01192 [cm^-1]
  Rotational constants: A =   2881.75054  B =    400.42015  C =    357.39747 [MHz]
  Nuclear repulsion =  713.254022864362014

  Charge       = 1
  Multiplicity = 1
  Electrons    = 90
  Nalpha       = 45
  Nbeta        = 45

  ==> Algorithm <==

  SCF Algorithm Type is DF.
  DIIS enabled.
  MOM disabled.
  Fractional occupation disabled.
  Guess Type is READ.
  Energy threshold   = 1.00e-10
  Density threshold  = 1.00e-10
  Integral threshold = 0.00e+00

  ==> Primary Basis <==

  Basis Set: AUG-CC-PVTZ
    Blend: AUG-CC-PVTZ
    Number of shells: 272
    Number of basis function: 828
    Number of Cartesian functions: 965
    Spherical Harmonics?: true
    Max angular momentum: 3

   => Loading Basis Set <=

    Name: (AUG-CC-PVTZ AUX)
    Role: JKFIT
    Keyword: DF_BASIS_SCF
    atoms 1-11  entry C          line   161 file /cbio/jclab/home/chayas/anaconda/envs/py35/share/psi4/basis/aug-cc-pvtz-jkfit.gbs 
    atoms 12    entry N          line   223 file /cbio/jclab/home/chayas/anaconda/envs/py35/share/psi4/basis/aug-cc-pvtz-jkfit.gbs 
    atoms 13    entry O          line   285 file /cbio/jclab/home/chayas/anaconda/envs/py35/share/psi4/basis/aug-cc-pvtz-jkfit.gbs 
    atoms 14-23 entry H          line    69 file /cbio/jclab/home/chayas/anaconda/envs/py35/share/psi4/basis/aug-cc-pvtz-jkfit.gbs 

  Reading orbitals from file 180, no projection.

  ==> Pre-Iterations <==

   -------------------------------------------------------
    Irrep   Nso     Nmo     Nalpha   Nbeta   Ndocc  Nsocc
   -------------------------------------------------------
     A        828     828       0       0       0       0
   -------------------------------------------------------
    Total     828     828      45      45      45       0
   -------------------------------------------------------

  ==> Integral Setup <==

  ==> DFJK: Density-Fitted J/K Matrices <==

    J tasked:                  Yes
    K tasked:                  Yes
    wK tasked:                  No
    OpenMP threads:              8
    Integrals threads:           8
    Memory (MB):              3576
    Algorithm:                Disk
    Integral Cache:           NONE
    Schwarz Cutoff:          1E-12
    Fitting Condition:       1E-12

   => Auxiliary Basis Set <=

  Basis Set: (AUG-CC-PVTZ AUX)
    Blend: AUG-CC-PVTZ-JKFIT
    Number of shells: 530
    Number of basis function: 1812
    Number of Cartesian functions: 2253
    Spherical Harmonics?: true
    Max angular momentum: 4

  Minimum eigenvalue in the overlap matrix is 5.3579661307E-07.
  Using Symmetric Orthogonalization.

  SCF Guess: Orbitals guess was supplied from a previous computation.

  ==> Iterations <==

                           Total Energy        Delta E     RMS |[F,P]|

   @DF-RHF iter   0:  -551.67477592355203   -5.51675e+02   9.86738e-05 
   @DF-RHF iter   1:  -551.67591651367707   -1.14059e-03   3.00608e-05 
   @DF-RHF iter   2:  -551.67598029345220   -6.37798e-05   8.81054e-06 DIIS
   @DF-RHF iter   3:  -551.67599173153576   -1.14381e-05   7.28313e-06 DIIS
   @DF-RHF iter   4:  -551.67599527410869   -3.54257e-06   1.63386e-06 DIIS
   @DF-RHF iter   5:  -551.67599561912846   -3.45020e-07   6.45076e-07 DIIS
   @DF-RHF iter   6:  -551.67599567016350   -5.10350e-08   1.71514e-07 DIIS
   @DF-RHF iter   7:  -551.67599567390437   -3.74087e-09   4.99111e-08 DIIS
   @DF-RHF iter   8:  -551.67599567410980   -2.05432e-10   1.65638e-08 DIIS
   @DF-RHF iter   9:  -551.67599567415823   -4.84306e-11   4.79227e-09 DIIS
   @DF-RHF iter  10:  -551.67599567414663    1.15961e-11   1.58956e-09 DIIS
   @DF-RHF iter  11:  -551.67599567415698   -1.03455e-11   8.25003e-10 DIIS
   @DF-RHF iter  12:  -551.67599567417358   -1.65983e-11   5.06826e-10 DIIS
   @DF-RHF iter  13:  -551.67599567415709    1.64846e-11   2.23698e-10 DIIS
   @DF-RHF iter  14:  -551.67599567415311    3.97904e-12   8.60603e-11 DIIS

  ==> Post-Iterations <==

    Orbital Energies (a.u.)
    -----------------------

    Doubly Occupied:                                                      

       1A    -20.703698     2A    -15.832494     3A    -11.483499  
       4A    -11.483434     5A    -11.445373     6A    -11.434491  
       7A    -11.413899     8A    -11.413608     9A    -11.380461  
      10A    -11.378676    11A    -11.371434    12A    -11.357808  
      13A    -11.354153    14A     -1.518184    15A     -1.510537  
      16A     -1.320726    17A     -1.264140    18A     -1.236500  
      19A     -1.154750    20A     -1.151706    21A     -1.067923  
      22A     -1.054130    23A     -0.976425    24A     -0.961569  
      25A     -0.950140    26A     -0.870557    27A     -0.859083  
      28A     -0.853829    29A     -0.821743    30A     -0.798175  
      31A     -0.781340    32A     -0.772887    33A     -0.757057  
      34A     -0.732548    35A     -0.720421    36A     -0.706310  
      37A     -0.704912    38A     -0.683100    39A     -0.654283  
      40A     -0.637807    41A     -0.619895    42A     -0.570400  
      43A     -0.537002    44A     -0.470282    45A     -0.437497  

    Virtual:                                                              

      46A     -0.104818    47A     -0.084364    48A     -0.063372  
      49A     -0.062828    50A     -0.059382    51A     -0.049143  
      52A     -0.043753    53A     -0.039354    54A     -0.034655  
      55A     -0.028352    56A     -0.025820    57A     -0.023912  
      58A     -0.016854    59A     -0.010218    60A     -0.006443  
      61A     -0.001237    62A      0.003366    63A      0.005908  
      64A      0.009139    65A      0.015397    66A      0.017270  
      67A      0.020856    68A      0.024184    69A      0.024771  
      70A      0.028532    71A      0.032101    72A      0.037017  
      73A      0.038559    74A      0.040073    75A      0.044940  
      76A      0.049227    77A      0.055714    78A      0.058144  
      79A      0.060028    80A      0.066550    81A      0.068166  
      82A      0.072684    83A      0.074453    84A      0.078546  
      85A      0.083912    86A      0.086264    87A      0.088181  
      88A      0.095503    89A      0.098435    90A      0.108080  
      91A      0.110488    92A      0.114662    93A      0.121414  
      94A      0.122786    95A      0.124706    96A      0.128241  
      97A      0.132328    98A      0.136868    99A      0.139935  
     100A      0.144512   101A      0.152178   102A      0.157909  
     103A      0.161143   104A      0.163582   105A      0.166813  
     106A      0.168304   107A      0.171418   108A      0.173284  
     109A      0.178403   110A      0.181828   111A      0.187823  
     112A      0.190118   113A      0.192704   114A      0.197240  
     115A      0.204107   116A      0.206213   117A      0.210530  
     118A      0.212965   119A      0.217684   120A      0.219626  
     121A      0.224024   122A      0.228145   123A      0.231243  
     124A      0.232947   125A      0.234117   126A      0.239557  
     127A      0.240890   128A      0.249820   129A      0.251596  
     130A      0.258367   131A      0.258517   132A      0.274400  
     133A      0.277575   134A      0.279922   135A      0.280579  
     136A      0.286446   137A      0.287275   138A      0.293355  
     139A      0.300395   140A      0.308811   141A      0.311905  
     142A      0.312268   143A      0.315515   144A      0.318452  
     145A      0.322662   146A      0.324713   147A      0.330657  
     148A      0.334273   149A      0.336089   150A      0.339673  
     151A      0.342589   152A      0.343988   153A      0.348926  
     154A      0.350649   155A      0.355407   156A      0.360831  
     157A      0.365581   158A      0.368556   159A      0.371685  
     160A      0.374204   161A      0.375638   162A      0.378758  
     163A      0.383039   164A      0.387436   165A      0.389314  
     166A      0.393955   167A      0.398958   168A      0.400901  
     169A      0.403870   170A      0.407928   171A      0.411012  
     172A      0.414528   173A      0.416933   174A      0.420231  
     175A      0.424374   176A      0.429002   177A      0.431257  
     178A      0.437246   179A      0.439389   180A      0.443288  
     181A      0.448260   182A      0.453348   183A      0.458881  
     184A      0.462779   185A      0.471322   186A      0.474798  
     187A      0.482206   188A      0.488238   189A      0.494711  
     190A      0.500358   191A      0.506810   192A      0.511276  
     193A      0.517920   194A      0.528420   195A      0.529735  
     196A      0.538379   197A      0.542795   198A      0.549710  
     199A      0.551911   200A      0.564125   201A      0.571289  
     202A      0.574115   203A      0.576884   204A      0.581405  
     205A      0.585389   206A      0.587454   207A      0.593663  
     208A      0.601094   209A      0.606973   210A      0.612158  
     211A      0.618462   212A      0.623256   213A      0.627085  
     214A      0.631989   215A      0.636829   216A      0.643409  
     217A      0.647063   218A      0.649990   219A      0.655196  
     220A      0.667270   221A      0.677087   222A      0.681037  
     223A      0.693673   224A      0.698895   225A      0.700908  
     226A      0.705135   227A      0.707435   228A      0.712122  
     229A      0.715512   230A      0.718822   231A      0.725139  
     232A      0.730396   233A      0.735555   234A      0.738671  
     235A      0.740603   236A      0.746171   237A      0.757386  
     238A      0.759112   239A      0.764114   240A      0.770645  
     241A      0.774938   242A      0.777811   243A      0.781822  
     244A      0.784242   245A      0.789618   246A      0.794248  
     247A      0.796157   248A      0.803556   249A      0.806215  
     250A      0.811099   251A      0.814368   252A      0.817290  
     253A      0.827442   254A      0.828874   255A      0.836874  
[...]
      97A      0.130516    98A      0.133916    99A      0.138305  
     100A      0.142053   101A      0.142979   102A      0.147292  
     103A      0.158049   104A      0.161131   105A      0.164869  
     106A      0.166689   107A      0.167519   108A      0.173182  
     109A      0.178209   110A      0.181294   111A      0.185928  
     112A      0.187330   113A      0.192209   114A      0.193577  
     115A      0.199774   116A      0.205216   117A      0.210748  
     118A      0.211015   119A      0.219235   120A      0.223775  
     121A      0.226684   122A      0.228461   123A      0.229607  
     124A      0.232074   125A      0.237041   126A      0.239456  
     127A      0.242690   128A      0.247257   129A      0.250056  
     130A      0.252597   131A      0.257444   132A      0.263963  
     133A      0.274481   134A      0.279549   135A      0.280707  
     136A      0.284058   137A      0.284255   138A      0.288303  
     139A      0.291235   140A      0.300298   141A      0.303009  
     142A      0.307084   143A      0.311047   144A      0.316393  
     145A      0.321934   146A      0.324016   147A      0.325788  
     148A      0.329520   149A      0.332312   150A      0.336123  
     151A      0.342759   152A      0.346855   153A      0.348450  
     154A      0.354571   155A      0.356452   156A      0.358456  
     157A      0.360827   158A      0.363290   159A      0.367522  
     160A      0.373551   161A      0.376871   162A      0.378043  
     163A      0.380264   164A      0.383865   165A      0.391207  
     166A      0.393642   167A      0.395892   168A      0.400734  
     169A      0.406456   170A      0.406628   171A      0.411578  
     172A      0.414158   173A      0.419916   174A      0.421951  
     175A      0.425247   176A      0.428997   177A      0.429830  
     178A      0.433532   179A      0.435968   180A      0.440166  
     181A      0.444442   182A      0.451036   183A      0.453163  
     184A      0.465721   185A      0.469476   186A      0.473568  
     187A      0.478505   188A      0.483591   189A      0.489124  
     190A      0.494562   191A      0.502531   192A      0.509022  
     193A      0.511368   194A      0.512690   195A      0.520718  
     196A      0.526091   197A      0.535008   198A      0.538094  
     199A      0.548632   200A      0.553474   201A      0.564218  
     202A      0.565374   203A      0.570617   204A      0.574413  
     205A      0.580136   206A      0.583754   207A      0.590626  
     208A      0.592278   209A      0.599087   210A      0.603376  
     211A      0.613567   212A      0.619353   213A      0.623452  
     214A      0.626857   215A      0.637591   216A      0.641741  
     217A      0.643000   218A      0.647798   219A      0.654567  
     220A      0.661858   221A      0.665631   222A      0.671196  
     223A      0.674867   224A      0.683610   225A      0.691382  
     226A      0.691738   227A      0.706765   228A      0.709276  
     229A      0.712804   230A      0.719526   231A      0.725799  
     232A      0.728985   233A      0.731039   234A      0.736568  
     235A      0.746592   236A      0.751040   237A      0.756908  
     238A      0.762413   239A      0.766768   240A      0.773319  
     241A      0.775424   242A      0.780208   243A      0.786118  
     244A      0.789071   245A      0.789638   246A      0.793059  
     247A      0.798447   248A      0.800235   249A      0.805817  
     250A      0.812815   251A      0.817408   252A      0.822515  
     253A      0.825351   254A      0.834114   255A      0.835747  
     256A      0.840475   257A      0.845334   258A      0.850992  
     259A      0.855804   260A      0.860847   261A      0.861816  
     262A      0.867553   263A      0.878035   264A      0.878538  
     265A      0.879399   266A      0.882498   267A      0.890888  
     268A      0.892393   269A      0.898339   270A      0.903728  
     271A      0.907262   272A      0.912641   273A      0.913667  
     274A      0.919189   275A      0.919976   276A      0.921869  
     277A      0.935481   278A      0.942735   279A      0.944283  
     280A      0.948825   281A      0.950701   282A      0.955170  
     283A      0.961825   284A      0.967280   285A      0.970942  
     286A      0.976918   287A      0.979616   288A      0.987796  
     289A      0.988345   290A      0.991287   291A      0.995491  
     292A      0.998737   293A      1.003677   294A      1.010041  
     295A      1.011608   296A      1.012088   297A      1.014320  
     298A      1.021108   299A      1.029390   300A      1.032293  
     301A      1.038178   302A      1.041849   303A      1.048454  
     304A      1.052585   305A      1.058150   306A      1.061623  
     307A      1.069546   308A      1.070237   309A      1.075708  
     310A      1.079265   311A      1.085758   312A      1.094887  
     313A      1.097344   314A      1.102078   315A      1.105662  
     316A      1.117093   317A      1.122650   318A      1.126825  
     319A      1.129041   320A      1.131849   321A      1.140854  
     322A      1.144956   323A      1.146573   324A      1.159991  
     325A      1.162113   326A      1.166894   327A      1.174559  
     328A      1.176032   329A      1.182886   330A      1.190742  
     331A      1.197296   332A      1.202627   333A      1.213931  
     334A      1.218642   335A      1.227884   336A      1.232928  
     337A      1.236557   338A      1.240160   339A      1.251109  
     340A      1.260550   341A      1.263990   342A      1.275501  
     343A      1.278089   344A      1.281877   345A      1.288760  
     346A      1.294511   347A      1.308372   348A      1.315410  
     349A      1.320470   350A      1.327652   351A      1.333384  
     352A      1.342086   353A      1.343584   354A      1.352871  
     355A      1.355524   356A      1.368364   357A      1.370892  
     358A      1.378381   359A      1.388333   360A      1.395624  
     361A      1.403711   362A      1.408726   363A      1.420620  
     364A      1.426890   365A      1.433413   366A      1.440329  
     367A      1.441649   368A      1.456012   369A      1.467866  
     370A      1.469126   371A      1.476975   372A      1.483715  
     373A      1.489516   374A      1.497566   375A      1.507569  
     376A      1.520246   377A      1.527486   378A      1.534710  
     379A      1.538607   380A      1.549424   381A      1.554863  
     382A      1.561715   383A      1.562649   384A      1.571693  
     385A      1.581630   386A      1.585598   387A      1.589890  
     388A      1.598357   389A      1.619478   390A      1.628526  
     391A      1.630054   392A      1.642390   393A      1.646952  
     394A      1.659125   395A      1.666642   396A      1.673146  
     397A      1.685016   398A      1.687919   399A      1.691118  
     400A      1.691271   401A      1.708409   402A      1.712061  
     403A      1.715819   404A      1.725714   405A      1.727617  
     406A      1.743186   407A      1.747453   408A      1.759423  
     409A      1.769678   410A      1.776699   411A      1.782723  
     412A      1.790283   413A      1.796190   414A      1.803080  
     415A      1.812668   416A      1.818021   417A      1.824607  
     418A      1.830182   419A      1.839504   420A      1.848150  
     421A      1.858142   422A      1.866535   423A      1.872566  
     424A      1.886880   425A      1.892637   426A      1.898907  
     427A      1.903364   428A      1.909994   429A      1.916997  
     430A      1.918110   431A      1.925421   432A      1.927010  
     433A      1.939791   434A      1.940957   435A      1.946338  
     436A      1.954046   437A      1.958758   438A      1.962325  
     439A      1.979468   440A      1.986495   441A      1.989701  
     442A      2.000506   443A      2.014593   444A      2.020417  
     445A      2.025970   446A      2.033063   447A      2.047716  
     448A      2.063189   449A      2.069739   450A      2.080848  
     451A      2.085284   452A      2.088329   453A      2.092508  
     454A      2.104304   455A      2.108578   456A      2.136963  
     457A      2.146279   458A      2.157982   459A      2.172720  
     460A      2.176677   461A      2.184278   462A      2.190402  
     463A      2.202329   464A      2.212960   465A      2.223435  
     466A      2.233590   467A      2.237993   468A      2.250413  
     469A      2.259896   470A      2.265055   471A      2.269308  
     472A      2.281596   473A      2.292466   474A      2.297934  
     475A      2.315861   476A      2.328756   477A      2.348216  
     478A      2.351378   479A      2.356113   480A      2.362561  
     481A      2.370920   482A      2.377778   483A      2.380447  
     484A      2.395507   485A      2.410418   486A      2.415051  
     487A      2.430187   488A      2.445661   489A      2.451911  
     490A      2.460175   491A      2.481940   492A      2.494303  
     493A      2.509139   494A      2.519942   495A      2.532288  
     496A      2.553559   497A      2.563940   498A      2.577427  
     499A      2.588092   500A      2.599423   501A      2.610101  
     502A      2.617183   503A      2.640592   504A      2.654829  
     505A      2.667118   506A      2.670032   507A      2.691931  
     508A      2.704925   509A      2.735131   510A      2.754289  
     511A      2.763167   512A      2.769764   513A      2.824605  
     514A      2.836807   515A      2.837785   516A      2.864318  
     517A      2.913082   518A      2.920731   519A      2.935017  
     520A      2.946735   521A      2.973379   522A      2.984080  
     523A      2.991490   524A      3.009462   525A      3.019114  
     526A      3.048785   527A      3.062048   528A      3.073221  
     529A      3.078684   530A      3.089551   531A      3.104211  
     532A      3.122208   533A      3.143513   534A      3.160402  
     535A      3.161596   536A      3.190858   537A      3.198772  
     538A      3.207058   539A      3.230305   540A      3.237859  
     541A      3.254761   542A      3.258421   543A      3.264459  
     544A      3.276733   545A      3.278165   546A      3.296426  
     547A      3.302324   548A      3.315267   549A      3.322221  
     550A      3.342118   551A      3.349569   552A      3.367485  
     553A      3.369104   554A      3.372917   555A      3.379467  
     556A      3.385499   557A      3.397099   558A      3.398665  
     559A      3.413425   560A      3.422645   561A      3.431864  
     562A      3.437503   563A      3.444847   564A      3.451857  
     565A      3.459511   566A      3.467771   567A      3.476119  
     568A      3.492028   569A      3.499292   570A      3.506693  
     571A      3.512307   572A      3.529897   573A      3.538139  
     574A      3.552127   575A      3.558563   576A      3.568504  
     577A      3.581826   578A      3.588527   579A      3.593630  
     580A      3.600417   581A      3.615365   582A      3.627738  
     583A      3.629379   584A      3.637988   585A      3.650862  
     586A      3.654207   587A      3.671671   588A      3.678358  
     589A      3.682107   590A      3.690261   591A      3.698911  
     592A      3.704938   593A      3.709329   594A      3.720088  
     595A      3.724798   596A      3.741316   597A      3.749992  
     598A      3.758748   599A      3.773585   600A      3.776431  
     601A      3.788904   602A      3.798132   603A      3.812150  
     604A      3.820393   605A      3.823308   606A      3.832430  
     607A      3.842224   608A      3.855034   609A      3.857114  
     610A      3.863278   611A      3.867473   612A      3.873796  
     613A      3.887338   614A      3.896721   615A      3.900347  
     616A      3.904542   617A      3.920125   618A      3.927142  
     619A      3.942801   620A      3.948008   621A      3.951023  
     622A      3.955736   623A      3.979793   624A      3.982715  
     625A      3.986333   626A      4.012061   627A      4.024140  
     628A      4.036539   629A      4.046104   630A      4.056447  
     631A      4.059033   632A      4.060469   633A      4.073614  
     634A      4.078156   635A      4.094778   636A      4.101718  
     637A      4.108354   638A      4.114611   639A      4.119774  
     640A      4.131631   641A      4.140459   642A      4.147314  
     643A      4.159751   644A      4.175947   645A      4.177870  
     646A      4.186507   647A      4.204952   648A      4.209523  
     649A      4.218229   650A      4.222614   651A      4.233856  
     652A      4.238917   653A      4.249241   654A      4.254641  
     655A      4.257036   656A      4.269011   657A      4.272177  
     658A      4.283759   659A      4.291118   660A      4.295245  
     661A      4.309028   662A      4.317289   663A      4.335091  
     664A      4.340348   665A      4.348237   666A      4.350391  
     667A      4.364004   668A      4.369633   669A      4.393622  
     670A      4.400592   671A      4.407610   672A      4.415245  
     673A      4.416489   674A      4.435020   675A      4.445274  
     676A      4.447410   677A      4.458171   678A      4.471304  
     679A      4.496437   680A      4.516348   681A      4.530949  
     682A      4.549206   683A      4.553521   684A      4.574669  
     685A      4.588526   686A      4.603675   687A      4.614371  
     688A      4.634615   689A      4.653279   690A      4.654538  
     691A      4.659671   692A      4.670808   693A      4.683088  
     694A      4.687585   695A      4.700721   696A      4.712255  
     697A      4.725577   698A      4.746582   699A      4.751877  
     700A      4.768300   701A      4.776954   702A      4.790977  
     703A      4.806858   704A      4.818502   705A      4.825919  
     706A      4.833088   707A      4.842540   708A      4.864691  
     709A      4.876189   710A      4.891822   711A      4.896799  
     712A      4.923023   713A      4.930696   714A      4.940929  
     715A      4.941846   716A      4.955293   717A      4.958086  
     718A      4.967799   719A      4.973010   720A      4.985337  
     721A      4.992079   722A      5.003175   723A      5.021262  
     724A      5.030628   725A      5.041946   726A      5.047778  
     727A      5.065788   728A      5.075019   729A      5.103594  
     730A      5.109747   731A      5.133594   732A      5.144557  
     733A      5.150044   734A      5.173101   735A      5.183813  
     736A      5.192531   737A      5.221449   738A      5.236780  
     739A      5.252844   740A      5.264477   741A      5.265135  
     742A      5.285003   743A      5.333577   744A      5.344300  
     745A      5.357178   746A      5.362470   747A      5.373266  
     748A      5.389682   749A      5.410007   750A      5.431898  
     751A      5.446572   752A      5.461434   753A      5.470859  
     754A      5.472571   755A      5.514434   756A      5.519977  
     757A      5.539037   758A      5.587289   759A      5.602096  
     760A      5.610932   761A      5.615778   762A      5.624066  
     763A      5.677482   764A      5.705857   765A      5.708872  
     766A      5.709808   767A      5.738555   768A      5.777721  
     769A      5.803659   770A      5.842584   771A      5.883168  
     772A      5.934502   773A      5.959961   774A      6.002973  
     775A      6.020627   776A      6.058598   777A      6.085268  
     778A      6.105807   779A      6.160191   780A      6.210123  
     781A      6.231520   782A      6.239147   783A      6.296598  
     784A      6.345917   785A      6.355201   786A      6.381241  
     787A      6.440078   788A      6.462583   789A      6.490698  
     790A      6.522107   791A      6.539500   792A      6.605455  
     793A      6.625818   794A      6.706725   795A      6.752116  
     796A      6.765152   797A      6.773505   798A      6.844355  
     799A      6.845784   800A      6.864534   801A      6.894523  
     802A      6.945392   803A      6.999552   804A      7.072569  
     805A      7.198561   806A      7.272927   807A      7.370274  
     808A      7.466225   809A      7.477873   810A      7.486215  
     811A      7.564676   812A      7.788381   813A      7.808952  
     814A      8.048193   815A      8.284109   816A     15.744505  
     817A     16.374674   818A     16.577085   819A     16.653886  
     820A     17.040250   821A     18.448112   822A     18.893745  
     823A     19.271486   824A     19.775427   825A     19.918693  
     826A     20.004177   827A     20.574279   828A     21.378485  

    Final Occupation by Irrep:
              A 
    DOCC [    45 ]

  Energy converged.

  @DF-RHF Final Energy:  -551.62990910414896

   => Energetics <=

    Nuclear Repulsion Energy =            709.1928448202348818
    One-Electron Energy =               -2141.3104736716677508
    Two-Electron Energy =                 880.4877197472840180
    DFT Exchange-Correlation Energy =       0.0000000000000000
    Empirical Dispersion Energy =           0.0000000000000000
    PCM Polarization Energy =               0.0000000000000000
    EFP Energy =                            0.0000000000000000
    Total Energy =                       -551.6299091041489646



Properties will be evaluated at   0.000000,   0.000000,   0.000000 Bohr

Properties computed using the SCF density matrix

  Nuclear Dipole Moment: (a.u.)
     X:     2.0246      Y:    -2.9160      Z:    -1.9636

  Electronic Dipole Moment: (a.u.)
     X:     0.8331      Y:     0.4111      Z:    -0.2530

  Dipole Moment: (a.u.)
     X:     2.8577      Y:    -2.5049      Z:    -2.2166     Total:     4.3993

  Dipole Moment: (Debye)
     X:     7.2635      Y:    -6.3668      Z:    -5.6340     Total:    11.1820


*** tstop() called on gpu-2-10.local at Mon Nov 13 08:39:37 2017
Module time:
	user time   =     904.42 seconds =      15.07 minutes
	system time =      42.70 seconds =       0.71 minutes
	total time  =        380 seconds =       6.33 minutes
Total time:
	user time   =  182890.31 seconds =    3048.17 minutes
	system time =    3996.50 seconds =      66.61 minutes
	total time  =      85111 seconds =    1418.52 minutes

  //>>>>>>>>>>>>>>>>>>>>>>>>>>>>>>>>>>>//
  //               DFMP2               //
  //<<<<<<<<<<<<<<<<<<<<<<<<<<<<<<<<<<<//

   => Loading Basis Set <=

    Name: (AUG-CC-PVTZ AUX)
    Role: RIFIT
    Keyword: DF_BASIS_MP2
    atoms 1-11  entry C          line   147 file /cbio/jclab/home/chayas/anaconda/envs/py35/share/psi4/basis/aug-cc-pvtz-ri.gbs 
    atoms 12    entry N          line   205 file /cbio/jclab/home/chayas/anaconda/envs/py35/share/psi4/basis/aug-cc-pvtz-ri.gbs 
    atoms 13    entry O          line   263 file /cbio/jclab/home/chayas/anaconda/envs/py35/share/psi4/basis/aug-cc-pvtz-ri.gbs 
    atoms 14-23 entry H          line    29 file /cbio/jclab/home/chayas/anaconda/envs/py35/share/psi4/basis/aug-cc-pvtz-ri.gbs 

	 --------------------------------------------------------
	                          DF-MP2                         
	      2nd-Order Density-Fitted Moller-Plesset Theory     
	              RMP2 Wavefunction,   8 Threads             
	                                                         
	        Rob Parrish, Justin Turney, Andy Simmonett,      
	           Ed Hohenstein, and C. David Sherrill          
	 --------------------------------------------------------

   => Auxiliary Basis Set <=

  Basis Set: (AUG-CC-PVTZ AUX)
    Blend: AUG-CC-PVTZ-RI
    Number of shells: 504
    Number of basis function: 1838
    Number of Cartesian functions: 2318
    Spherical Harmonics?: true
    Max angular momentum: 4

	 --------------------------------------------------------
	                 NBF =   828, NAUX =  1838
	 --------------------------------------------------------
	   CLASS    FOCC     OCC    AOCC    AVIR     VIR    FVIR
	   PAIRS       0      45      45     783     783       0
	 --------------------------------------------------------

