
    -----------------------------------------------------------------------
          Psi4: An Open-Source Ab Initio Electronic Structure Package
                               Psi4 1.1 release

                         Git: Rev {HEAD} add49b9 


    R. M. Parrish, L. A. Burns, D. G. A. Smith, A. C. Simmonett,
    A. E. DePrince III, E. G. Hohenstein, U. Bozkaya, A. Yu. Sokolov,
    R. Di Remigio, R. M. Richard, J. F. Gonthier, A. M. James,
    H. R. McAlexander, A. Kumar, M. Saitow, X. Wang, B. P. Pritchard,
    P. Verma, H. F. Schaefer III, K. Patkowski, R. A. King, E. F. Valeev,
    F. A. Evangelista, J. M. Turney, T. D. Crawford, and C. D. Sherrill,
    J. Chem. Theory Comput. in press (2017).
    (doi: 10.1021/acs.jctc.7b00174)

    -----------------------------------------------------------------------


    Psi4 started on: Saturday, 11 November 2017 06:14PM

    Process ID:   3841
    PSIDATADIR: /cbio/jclab/home/chayas/anaconda/envs/py35/share/psi4
    Memory:     500.0 MiB
    Threads:    8
    
  ==> Input File <==

--------------------------------------------------------------------------

memory 5 Gb

molecule phepyrFOH_anion {
  symmetry C1
  -1 1 
  C      1.885   -1.036   -0.112
  C      0.807   -0.463   0.561
  C      4.080   -2.202   -1.484
  C      5.075   -2.817   0.617
  C      1.800   -1.079   2.676
  C      5.171   -2.782   -2.110
  C      6.122   -3.370   -0.103
  C      2.921   -1.631   0.608
  C      4.038   -2.224   -0.095
  C      0.764   -0.484   1.955
  C      2.878   -1.652   2.002
  N      6.197   -3.368   -1.452
  O      -0.227   0.043   2.574
  F      3.866   -2.220   2.709
  H      1.904   -1.013   -1.200
  H      0.011   -0.007   -0.025
  H      3.290   -1.747   -2.074
  H      5.076   -2.854   1.702
  H      1.791   -1.109   3.764
  H      5.252   -2.790   -3.192
  H      6.954   -3.846   0.405
  units Angstrom
}

dih_string = "1 8 9 3 0.001"
set optking fixed_dihedral = $dih_string

optimize('MP2/aug-cc-PVTZ')
--------------------------------------------------------------------------

  Memory set to   4.657 GiB by Python driver.
gradient() will perform analytic gradient computation.

*** tstart() called on gpu-1-11.local
*** at Sat Nov 11 18:14:51 2017

    SCF Algorithm Type (re)set to DF.

*** tstart() called on gpu-1-11.local
*** at Sat Nov 11 18:14:51 2017

   => Loading Basis Set <=

    Name: AUG-CC-PVTZ
    Role: ORBITAL
    Keyword: BASIS
    atoms 1-11  entry C          line   221 file /cbio/jclab/home/chayas/anaconda/envs/py35/share/psi4/basis/aug-cc-pvtz.gbs 
    atoms 12    entry N          line   267 file /cbio/jclab/home/chayas/anaconda/envs/py35/share/psi4/basis/aug-cc-pvtz.gbs 
    atoms 13    entry O          line   313 file /cbio/jclab/home/chayas/anaconda/envs/py35/share/psi4/basis/aug-cc-pvtz.gbs 
    atoms 14    entry F          line   359 file /cbio/jclab/home/chayas/anaconda/envs/py35/share/psi4/basis/aug-cc-pvtz.gbs 
    atoms 15-21 entry H          line    34 file /cbio/jclab/home/chayas/anaconda/envs/py35/share/psi4/basis/aug-cc-pvtz.gbs 


         ---------------------------------------------------------
                                   SCF
            by Justin Turney, Rob Parrish, and Andy Simmonett
                              RHF Reference
                        8 Threads,   4768 MiB Core
         ---------------------------------------------------------

  ==> Geometry <==

    Molecular point group: c1
    Full point group: C1

    Geometry (in Angstrom), charge = -1, multiplicity = 1:

       Center              X                  Y                   Z               Mass       
    ------------   -----------------  -----------------  -----------------  -----------------
           C         -1.345790940778     0.766709452604    -0.781287362311    12.000000000000
           C         -2.423790940778     1.339709452604    -0.108287362311    12.000000000000
           C          0.849209059222    -0.399290547396    -2.153287362311    12.000000000000
           C          1.844209059222    -1.014290547396    -0.052287362311    12.000000000000
           C         -1.430790940778     0.723709452604     2.006712637689    12.000000000000
           C          1.940209059222    -0.979290547396    -2.779287362311    12.000000000000
           C          2.891209059222    -1.567290547396    -0.772287362311    12.000000000000
           C         -0.309790940778     0.171709452604    -0.061287362311    12.000000000000
           C          0.807209059222    -0.421290547396    -0.764287362311    12.000000000000
           C         -2.466790940778     1.318709452604     1.285712637689    12.000000000000
           C         -0.352790940778     0.150709452604     1.332712637689    12.000000000000
           N          2.966209059222    -1.565290547396    -2.121287362311    14.003074004780
           O         -3.457790940778     1.845709452604     1.904712637689    15.994914619560
           F          0.635209059222    -0.417290547396     2.039712637689    18.998403224000
           H         -1.326790940778     0.789709452604    -1.869287362311     1.007825032070
           H         -3.219790940778     1.795709452604    -0.694287362311     1.007825032070
           H          0.059209059222     0.055709452604    -2.743287362311     1.007825032070
           H          1.845209059222    -1.051290547396     1.032712637689     1.007825032070
           H         -1.439790940778     0.693709452604     3.094712637689     1.007825032070
           H          2.021209059222    -0.987290547396    -3.861287362311     1.007825032070
           H          3.723209059222    -2.043290547396    -0.264287362311     1.007825032070

  Running in c1 symmetry.

  Rotational constants: A =      0.06334  B =      0.01404  C =      0.01149 [cm^-1]
  Rotational constants: A =   1899.00448  B =    420.94464  C =    344.56613 [MHz]
  Nuclear repulsion =  805.766125867640312

  Charge       = -1
  Multiplicity = 1
  Electrons    = 98
  Nalpha       = 49
  Nbeta        = 49

  ==> Algorithm <==

  SCF Algorithm Type is DF.
  DIIS enabled.
  MOM disabled.
  Fractional occupation disabled.
  Guess Type is SAD.
  Energy threshold   = 1.00e-10
  Density threshold  = 1.00e-10
  Integral threshold = 0.00e+00

  ==> Primary Basis <==

  Basis Set: AUG-CC-PVTZ
    Blend: AUG-CC-PVTZ
    Number of shells: 259
    Number of basis function: 805
    Number of Cartesian functions: 945
    Spherical Harmonics?: true
    Max angular momentum: 3

   => Loading Basis Set <=

    Name: (AUG-CC-PVTZ AUX)
    Role: JKFIT
    Keyword: DF_BASIS_SCF
    atoms 1-11  entry C          line   161 file /cbio/jclab/home/chayas/anaconda/envs/py35/share/psi4/basis/aug-cc-pvtz-jkfit.gbs 
    atoms 12    entry N          line   223 file /cbio/jclab/home/chayas/anaconda/envs/py35/share/psi4/basis/aug-cc-pvtz-jkfit.gbs 
    atoms 13    entry O          line   285 file /cbio/jclab/home/chayas/anaconda/envs/py35/share/psi4/basis/aug-cc-pvtz-jkfit.gbs 
    atoms 14    entry F          line   347 file /cbio/jclab/home/chayas/anaconda/envs/py35/share/psi4/basis/aug-cc-pvtz-jkfit.gbs 
    atoms 15-21 entry H          line    69 file /cbio/jclab/home/chayas/anaconda/envs/py35/share/psi4/basis/aug-cc-pvtz-jkfit.gbs 

  ==> Pre-Iterations <==

   -------------------------------------------------------
    Irrep   Nso     Nmo     Nalpha   Nbeta   Ndocc  Nsocc
   -------------------------------------------------------
     A        805     805       0       0       0       0
   -------------------------------------------------------
    Total     805     805      49      49      49       0
   -------------------------------------------------------

  ==> Integral Setup <==

  ==> DFJK: Density-Fitted J/K Matrices <==

    J tasked:                  Yes
    K tasked:                  Yes
    wK tasked:                  No
    OpenMP threads:              8
    Integrals threads:           8
    Memory (MB):              3576
    Algorithm:                Disk
    Integral Cache:           NONE
    Schwarz Cutoff:          1E-12
    Fitting Condition:       1E-12

   => Auxiliary Basis Set <=

  Basis Set: (AUG-CC-PVTZ AUX)
    Blend: AUG-CC-PVTZ-JKFIT
    Number of shells: 518
    Number of basis function: 1778
    Number of Cartesian functions: 2219
    Spherical Harmonics?: true
    Max angular momentum: 4

  Minimum eigenvalue in the overlap matrix is 3.3922690281E-07.
  Using Symmetric Orthogonalization.

  SCF Guess: Superposition of Atomic Densities via on-the-fly atomic UHF.

  ==> Iterations <==

                           Total Energy        Delta E     RMS |[F,P]|

   @DF-RHF iter   0:  -659.64155995870601   -6.59642e+02   1.57015e-02 
   @DF-RHF iter   1:  -649.13900317787909    1.05026e+01   2.70660e-03 
   @DF-RHF iter   2:  -649.47188380807995   -3.32881e-01   1.60441e-03 DIIS
   @DF-RHF iter   3:  -649.57477184364939   -1.02888e-01   6.33536e-04 DIIS
   @DF-RHF iter   4:  -649.59473740042290   -1.99656e-02   1.65265e-04 DIIS
   @DF-RHF iter   5:  -649.59650463636513   -1.76724e-03   3.36474e-05 DIIS
   @DF-RHF iter   6:  -649.59677782239987   -2.73186e-04   2.44065e-05 DIIS
   @DF-RHF iter   7:  -649.59684503249912   -6.72101e-05   1.14546e-05 DIIS
   @DF-RHF iter   8:  -649.59686164214054   -1.66096e-05   3.18297e-06 DIIS
   @DF-RHF iter   9:  -649.59686545524460   -3.81310e-06   2.19251e-06 DIIS
   @DF-RHF iter  10:  -649.59686636204356   -9.06799e-07   9.57228e-07 DIIS
   @DF-RHF iter  11:  -649.59686660296109   -2.40918e-07   3.74573e-07 DIIS
   @DF-RHF iter  12:  -649.59686663126706   -2.83060e-08   1.52900e-07 DIIS
   @DF-RHF iter  13:  -649.59686663543641   -4.16935e-09   5.66086e-08 DIIS
   @DF-RHF iter  14:  -649.59686663615707   -7.20661e-10   1.65640e-08 DIIS
   @DF-RHF iter  15:  -649.59686663622301   -6.59384e-11   8.10918e-09 DIIS
   @DF-RHF iter  16:  -649.59686663625212   -2.91038e-11   3.36233e-09 DIIS
   @DF-RHF iter  17:  -649.59686663627076   -1.86446e-11   1.26200e-09 DIIS
   @DF-RHF iter  18:  -649.59686663626735    3.41061e-12   6.93559e-10 DIIS
   @DF-RHF iter  19:  -649.59686663625166    1.56888e-11   2.84311e-10 DIIS
   @DF-RHF iter  20:  -649.59686663626064   -8.98126e-12   1.00969e-10 DIIS
   @DF-RHF iter  21:  -649.59686663626644   -5.79803e-12   5.13694e-11 DIIS

  ==> Post-Iterations <==

    Orbital Energies (a.u.)
    -----------------------

    Doubly Occupied:                                                      

       1A    -26.198543     2A    -20.311170     3A    -15.442769  
       4A    -11.199338     5A    -11.163403     6A    -11.159494  
       7A    -11.143951     8A    -11.131871     9A    -11.115785  
      10A    -11.113919    11A    -11.102837    12A    -11.088321  
      13A    -11.071771    14A    -11.071721    15A     -1.524947  
      16A     -1.141895    17A     -1.132819    18A     -1.027030  
      19A     -0.964791    20A     -0.918164    21A     -0.881547  
      22A     -0.850612    23A     -0.753453    24A     -0.735914  
      25A     -0.709789    26A     -0.682248    27A     -0.610616  
      28A     -0.601209    29A     -0.587306    30A     -0.574236  
      31A     -0.545958    32A     -0.522837    33A     -0.500785  
      34A     -0.486721    35A     -0.467530    36A     -0.462434  
      37A     -0.431929    38A     -0.418119    39A     -0.404086  
      40A     -0.389435    41A     -0.378365    42A     -0.358603  
      43A     -0.323875    44A     -0.300419    45A     -0.246670  
      46A     -0.236976    47A     -0.229329    48A     -0.207169  
      49A     -0.117015  

    Virtual:                                                              

      50A      0.098888    51A      0.101648    52A      0.114200  
      53A      0.119637    54A      0.127770    55A      0.134853  
      56A      0.151369    57A      0.155946    58A      0.166745  
      59A      0.176620    60A      0.182987    61A      0.184953  
      62A      0.188033    63A      0.189644    64A      0.192478  
      65A      0.201471    66A      0.203729    67A      0.207120  
      68A      0.211233    69A      0.212359    70A      0.218479  
      71A      0.219486    72A      0.223863    73A      0.224615  
      74A      0.227168    75A      0.237290    76A      0.239354  
      77A      0.240293    78A      0.243875    79A      0.245315  
      80A      0.253140    81A      0.260932    82A      0.263679  
      83A      0.270527    84A      0.271106    85A      0.277092  
      86A      0.279174    87A      0.292507    88A      0.295606  
      89A      0.300947    90A      0.303261    91A      0.311617  
      92A      0.314664    93A      0.319069    94A      0.327007  
      95A      0.332932    96A      0.333524    97A      0.335813  
      98A      0.337847    99A      0.342556   100A      0.343429  
     101A      0.355561   102A      0.361520   103A      0.369725  
     104A      0.371592   105A      0.378438   106A      0.382208  
     107A      0.384462   108A      0.385668   109A      0.385822  
     110A      0.391993   111A      0.395496   112A      0.407195  
     113A      0.412344   114A      0.413716   115A      0.418601  
     116A      0.424792   117A      0.426183   118A      0.432783  
     119A      0.439238   120A      0.444656   121A      0.449346  
     122A      0.453723   123A      0.459927   124A      0.468503  
     125A      0.469432   126A      0.481307   127A      0.485098  
     128A      0.485171   129A      0.489625   130A      0.498516  
     131A      0.509632   132A      0.511714   133A      0.520248  
     134A      0.525841   135A      0.528691   136A      0.536388  
     137A      0.536880   138A      0.543470   139A      0.543608  
     140A      0.552176   141A      0.555582   142A      0.558941  
     143A      0.561445   144A      0.567179   145A      0.570784  
     146A      0.572130   147A      0.575266   148A      0.575398  
     149A      0.578899   150A      0.584553   151A      0.589744  
     152A      0.594289   153A      0.597856   154A      0.598575  
     155A      0.602703   156A      0.604309   157A      0.608189  
     158A      0.610602   159A      0.612128   160A      0.617316  
     161A      0.623674   162A      0.632726   163A      0.640614  
     164A      0.646282   165A      0.647031   166A      0.651243  
     167A      0.652148   168A      0.657133   169A      0.657328  
     170A      0.668253   171A      0.674281   172A      0.679699  
     173A      0.684072   174A      0.686363   175A      0.692241  
     176A      0.697130   177A      0.703957   178A      0.706773  
     179A      0.714223   180A      0.720572   181A      0.726374  
     182A      0.730224   183A      0.731610   184A      0.739529  
     185A      0.750356   186A      0.762780   187A      0.769109  
     188A      0.771159   189A      0.784043   190A      0.787328  
     191A      0.793994   192A      0.795624   193A      0.801847  
     194A      0.804462   195A      0.805613   196A      0.819695  
     197A      0.820932   198A      0.828350   199A      0.830764  
     200A      0.846259   201A      0.854332   202A      0.861444  
     203A      0.863277   204A      0.865785   205A      0.869455  
     206A      0.876324   207A      0.878029   208A      0.885072  
     209A      0.888731   210A      0.901035   211A      0.910989  
     212A      0.915829   213A      0.917370   214A      0.926276  
     215A      0.935940   216A      0.940026   217A      0.947622  
     218A      0.948715   219A      0.961514   220A      0.969695  
     221A      0.974035   222A      0.978095   223A      0.985311  
     224A      0.989085   225A      0.992755   226A      0.996159  
     227A      0.998557   228A      1.008601   229A      1.009192  
     230A      1.016391   231A      1.016882   232A      1.021594  
     233A      1.026569   234A      1.037509   235A      1.042997  
     236A      1.043351   237A      1.057828   238A      1.058129  
     239A      1.062439   240A      1.063387   241A      1.068631  
     242A      1.071711   243A      1.075819   244A      1.078528  
     245A      1.085005   246A      1.088648   247A      1.089405  
     248A      1.097925   249A      1.102783   250A      1.111553  
     251A      1.111818   252A      1.116466   253A      1.119639  
     254A      1.126078   255A      1.127771   256A      1.128026  
     257A      1.130458   258A      1.137011   259A      1.147218  
     260A      1.151416   261A      1.152237   262A      1.157193  
     263A      1.161286   264A      1.164001   265A      1.169363  
     266A      1.178185   267A      1.181356   268A      1.183921  
     269A      1.190710   270A      1.198380   271A      1.206937  
     272A      1.212866   273A      1.220856   274A      1.220992  
     275A      1.225151   276A      1.236111   277A      1.237882  
     278A      1.243633   279A      1.247723   280A      1.255926  
     281A      1.259475   282A      1.276190   283A      1.278472  
     284A      1.284575   285A      1.286979   286A      1.291848  
     287A      1.296243   288A      1.306395   289A      1.308918  
     290A      1.309972   291A      1.316929   292A      1.324578  
     293A      1.326042   294A      1.331531   295A      1.338459  
     296A      1.345499   297A      1.349184   298A      1.351372  
     299A      1.358317   300A      1.367189   301A      1.368492  
     302A      1.369867   303A      1.374926   304A      1.378422  
     305A      1.386650   306A      1.391575   307A      1.400808  
     308A      1.406286   309A      1.417623   310A      1.429555  
     311A      1.431785   312A      1.436507   313A      1.444469  
     314A      1.450111   315A      1.451232   316A      1.459534  
     317A      1.470414   318A      1.480644   319A      1.481088  
     320A      1.484280   321A      1.488543   322A      1.497739  
     323A      1.507676   324A      1.520075   325A      1.530898  
     326A      1.533368   327A      1.538633   328A      1.545405  
     329A      1.556425   330A      1.565592   331A      1.577984  
     332A      1.582061   333A      1.594977   334A      1.611485  
     335A      1.613778   336A      1.618823   337A      1.620194  
     338A      1.624691   339A      1.634339   340A      1.652693  
     341A      1.659560   342A      1.667768   343A      1.669569  
     344A      1.692831   345A      1.697171   346A      1.703083  
     347A      1.713892   348A      1.715718   349A      1.725811  
     350A      1.746816   351A      1.754350   352A      1.758167  
     353A      1.774132   354A      1.778625   355A      1.778803  
     356A      1.787048   357A      1.787628   358A      1.800936  
     359A      1.805184   360A      1.811362   361A      1.825639  
     362A      1.828149   363A      1.837704   364A      1.843433  
     365A      1.847347   366A      1.848382   367A      1.862788  
     368A      1.867841   369A      1.884299   370A      1.892700  
     371A      1.901850   372A      1.904291   373A      1.910739  
     374A      1.915147   375A      1.931367   376A      1.941741  
     377A      1.946523   378A      1.951605   379A      1.958093  
     380A      1.966662   381A      1.976448   382A      1.985519  
     383A      2.003503   384A      2.004464   385A      2.008528  
     386A      2.015606   387A      2.049868   388A      2.053476  
     389A      2.054952   390A      2.069233   391A      2.075593  
     392A      2.083438   393A      2.091232   394A      2.097138  
     395A      2.103070   396A      2.103558   397A      2.121364  
     398A      2.130129   399A      2.137375   400A      2.141045  
     401A      2.141600   402A      2.147949   403A      2.148582  
     404A      2.158775   405A      2.159898   406A      2.169238  
     407A      2.181079   408A      2.190886   409A      2.198250  
     410A      2.198346   411A      2.207223   412A      2.208764  
     413A      2.223647   414A      2.235423   415A      2.244779  
     416A      2.252093   417A      2.261050   418A      2.270757  
     419A      2.274855   420A      2.288251   421A      2.289831  
     422A      2.306595   423A      2.312847   424A      2.326054  
     425A      2.327397   426A      2.336105   427A      2.341527  
     428A      2.343095   429A      2.363238   430A      2.364713  
     431A      2.370943   432A      2.384653   433A      2.394952  
     434A      2.400553   435A      2.413693   436A      2.420195  
     437A      2.423983   438A      2.433480   439A      2.439706  
     440A      2.445852   441A      2.461843   442A      2.472069  
     443A      2.482958   444A      2.497544   445A      2.513327  
     446A      2.531631   447A      2.534612   448A      2.544994  
     449A      2.559451   450A      2.567411   451A      2.569629  
     452A      2.589217   453A      2.594574   454A      2.604389  
     455A      2.605287   456A      2.623104   457A      2.626889  
     458A      2.631742   459A      2.651543   460A      2.652996  
     461A      2.655539   462A      2.677684   463A      2.696836  
     464A      2.722093   465A      2.729147   466A      2.735910  
     467A      2.743836   468A      2.762833   469A      2.775998  
     470A      2.790807   471A      2.792174   472A      2.833319  
     473A      2.848684   474A      2.851389   475A      2.863469  
     476A      2.894841   477A      2.903141   478A      2.911323  
     479A      2.937095   480A      2.939951   481A      2.954865  
     482A      2.958042   483A      2.962753   484A      2.982388  
     485A      3.031939   486A      3.045241   487A      3.051893  
     488A      3.072691   489A      3.113698   490A      3.127222  
     491A      3.143655   492A      3.154268   493A      3.187024  
     494A      3.191183   495A      3.213813   496A      3.227959  
     497A      3.233104   498A      3.250185   499A      3.252022  
     500A      3.268854   501A      3.279042   502A      3.297554  
     503A      3.310605   504A      3.324865   505A      3.329961  
     506A      3.335642   507A      3.363501   508A      3.369450  
     509A      3.381145   510A      3.409507   511A      3.427977  
     512A      3.436999   513A      3.462309   514A      3.469029  
     515A      3.471170   516A      3.478892   517A      3.487949  
     518A      3.493608   519A      3.501507   520A      3.510719  
     521A      3.532957   522A      3.534393   523A      3.542706  
     524A      3.563878   525A      3.564776   526A      3.566637  
     527A      3.571729   528A      3.583224   529A      3.586164  
     530A      3.611774   531A      3.628375   532A      3.639617  
     533A      3.642524   534A      3.645094   535A      3.658582  
     536A      3.663285   537A      3.673076   538A      3.674317  
     539A      3.696151   540A      3.699413   541A      3.706153  
     542A      3.715488   543A      3.739965   544A      3.740632  
     545A      3.746388   546A      3.754682   547A      3.772583  
     548A      3.779198   549A      3.788995   550A      3.797433  
     551A      3.805118   552A      3.808280   553A      3.814023  
     554A      3.829096   555A      3.841488   556A      3.842892  
     557A      3.844309   558A      3.851918   559A      3.863005  
     560A      3.884378   561A      3.891794   562A      3.898076  
     563A      3.902894   564A      3.909158   565A      3.918751  
     566A      3.936371   567A      3.942521   568A      3.954251  
     569A      3.959365   570A      3.967972   571A      3.971385  
     572A      3.976273   573A      3.985708   574A      4.001124  
     575A      4.012996   576A      4.022307   577A      4.041280  
     578A      4.043093   579A      4.055445   580A      4.058792  
     581A      4.071152   582A      4.076923   583A      4.084944  
     584A      4.092226   585A      4.093149   586A      4.102666  
     587A      4.111969   588A      4.120277   589A      4.127028  
     590A      4.139997   591A      4.142558   592A      4.147912  
     593A      4.164895   594A      4.171168   595A      4.179903  
     596A      4.194714   597A      4.207810   598A      4.214770  
     599A      4.224559   600A      4.234640   601A      4.251310  
     602A      4.263181   603A      4.272810   604A      4.274284  
     605A      4.300523   606A      4.309072   607A      4.315873  
     608A      4.316276   609A      4.334128   610A      4.342373  
     611A      4.357285   612A      4.357638   613A      4.370846  
     614A      4.379740   615A      4.389104   616A      4.392583  
     617A      4.396873   618A      4.414228   619A      4.421291  
     620A      4.424990   621A      4.436225   622A      4.445886  
     623A      4.456493   624A      4.469105   625A      4.475530  
     626A      4.476209   627A      4.481678   628A      4.490986  
     629A      4.497892   630A      4.511366   631A      4.516196  
     632A      4.527522   633A      4.541101   634A      4.546983  
     635A      4.563674   636A      4.565223   637A      4.584217  
     638A      4.590841   639A      4.599267   640A      4.628503  
     641A      4.635880   642A      4.638568   643A      4.656017  
     644A      4.684350   645A      4.691812   646A      4.704005  
     647A      4.710010   648A      4.718390   649A      4.731931  
     650A      4.738518   651A      4.752072   652A      4.753943  
     653A      4.766082   654A      4.778153   655A      4.781049  
     656A      4.796274   657A      4.814630   658A      4.827827  
     659A      4.840108   660A      4.851060   661A      4.874772  
     662A      4.875355   663A      4.906482   664A      4.912017  
     665A      4.914956   666A      4.948135   667A      4.948725  
     668A      4.970621   669A      4.987417   670A      4.998478  
     671A      5.014143   672A      5.025338   673A      5.041649  
     674A      5.051632   675A      5.072447   676A      5.102261  
     677A      5.104462   678A      5.115084   679A      5.116962  
     680A      5.124605   681A      5.134461   682A      5.161817  
     683A      5.181820   684A      5.184822   685A      5.205367  
     686A      5.224694   687A      5.237301   688A      5.239051  
     689A      5.259750   690A      5.266871   691A      5.267274  
     692A      5.271811   693A      5.284930   694A      5.287175  
     695A      5.301544   696A      5.302106   697A      5.327195  
     698A      5.328921   699A      5.347998   700A      5.366054  
     701A      5.389713   702A      5.399497   703A      5.441891  
     704A      5.446721   705A      5.470343   706A      5.479136  
     707A      5.485125   708A      5.522853   709A      5.552311  
     710A      5.567803   711A      5.585955   712A      5.600061  
     713A      5.611988   714A      5.656431   715A      5.666719  
     716A      5.666996   717A      5.704436   718A      5.717421  
     719A      5.739541   720A      5.742556   721A      5.776085  
     722A      5.805675   723A      5.856875   724A      5.873440  
     725A      5.889664   726A      5.901408   727A      5.910495  
     728A      5.925884   729A      5.960525   730A      5.965355  
     731A      5.993545   732A      6.008189   733A      6.016028  
     734A      6.034847   735A      6.096073   736A      6.136170  
     737A      6.162973   738A      6.198844   739A      6.300236  
     740A      6.316762   741A      6.357039   742A      6.369726  
     743A      6.400534   744A      6.411625   745A      6.486884  
     746A      6.535747   747A      6.561849   748A      6.592000  
     749A      6.639054   750A      6.667207   751A      6.731107  
     752A      6.774264   753A      6.815673   754A      6.826826  
     755A      6.861312   756A      6.869479   757A      6.886263  
     758A      6.916082   759A      6.930993   760A      6.989587  
     761A      7.011096   762A      7.051678   763A      7.079809  
     764A      7.118913   765A      7.173842   766A      7.214160  
     767A      7.229467   768A      7.301008   769A      7.339974  
     770A      7.344375   771A      7.573303   772A      7.605191  
     773A      7.630273   774A      7.651373   775A      7.912576  
     776A      7.931100   777A      8.018237   778A      8.143232  
     779A      8.215610   780A      9.217108   781A      9.367946  
     782A      9.417694   783A      9.535394   784A      9.554103  
     785A      9.655722   786A      9.762259   787A      9.778216  
     788A      9.838708   789A      9.859372   790A     10.261954  
     791A     10.301371   792A     15.751435   793A     16.099339  
     794A     16.500362   795A     17.133943   796A     17.239881  
     797A     17.787986   798A     18.788040   799A     19.152179  
     800A     20.234710   801A     20.399322   802A     20.987387  
     803A     21.117414   804A     21.259045   805A     21.294315  

    Final Occupation by Irrep:
              A 
    DOCC [    49 ]

  Energy converged.

  @DF-RHF Final Energy:  -649.59686663626644

   => Energetics <=

    Nuclear Repulsion Energy =            805.7661258676403122
    One-Electron Energy =               -2500.6465449268553130
    Two-Electron Energy =                1045.2835524229485600
    DFT Exchange-Correlation Energy =       0.0000000000000000
    Empirical Dispersion Energy =           0.0000000000000000
    PCM Polarization Energy =               0.0000000000000000
    EFP Energy =                            0.0000000000000000
    Total Energy =                       -649.5968666362664408



Properties will be evaluated at   0.000000,   0.000000,   0.000000 Bohr

Properties computed using the SCF density matrix

  Nuclear Dipole Moment: (a.u.)
     X:     0.9341      Y:    -0.2933      Z:    -6.8821

  Electronic Dipole Moment: (a.u.)
     X:     1.3463      Y:    -0.9192      Z:     5.4308

  Dipole Moment: (a.u.)
     X:     2.2804      Y:    -1.2125      Z:    -1.4514     Total:     2.9626

  Dipole Moment: (Debye)
     X:     5.7962      Y:    -3.0818      Z:    -3.6890     Total:     7.5301


*** tstop() called on gpu-1-11.local at Sat Nov 11 18:23:18 2017
Module time:
	user time   =    1181.70 seconds =      19.69 minutes
	system time =      57.71 seconds =       0.96 minutes
	total time  =        507 seconds =       8.45 minutes
Total time:
	user time   =    1181.71 seconds =      19.70 minutes
	system time =      57.71 seconds =       0.96 minutes
	total time  =        507 seconds =       8.45 minutes

  //>>>>>>>>>>>>>>>>>>>>>>>>>>>>>>>>>>>//
  //               DFMP2               //
  //<<<<<<<<<<<<<<<<<<<<<<<<<<<<<<<<<<<//

   => Loading Basis Set <=

    Name: (AUG-CC-PVTZ AUX)
    Role: RIFIT
    Keyword: DF_BASIS_MP2
    atoms 1-11  entry C          line   147 file /cbio/jclab/home/chayas/anaconda/envs/py35/share/psi4/basis/aug-cc-pvtz-ri.gbs 
    atoms 12    entry N          line   205 file /cbio/jclab/home/chayas/anaconda/envs/py35/share/psi4/basis/aug-cc-pvtz-ri.gbs 
    atoms 13    entry O          line   263 file /cbio/jclab/home/chayas/anaconda/envs/py35/share/psi4/basis/aug-cc-pvtz-ri.gbs 
    atoms 14    entry F          line   321 file /cbio/jclab/home/chayas/anaconda/envs/py35/share/psi4/basis/aug-cc-pvtz-ri.gbs 
    atoms 15-21 entry H          line    29 file /cbio/jclab/home/chayas/anaconda/envs/py35/share/psi4/basis/aug-cc-pvtz-ri.gbs 

	 --------------------------------------------------------
	                          DF-MP2                         
	      2nd-Order Density-Fitted Moller-Plesset Theory     
	              RMP2 Wavefunction,   8 Threads             
	                                                         
	        Rob Parrish, Justin Turney, Andy Simmonett,      
	           Ed Hohenstein, and C. David Sherrill          
	 --------------------------------------------------------

   => Auxiliary Basis Set <=

  Basis Set: (AUG-CC-PVTZ AUX)
    Blend: AUG-CC-PVTZ-RI
    Number of shells: 490
    Number of basis function: 1806
    Number of Cartesian functions: 2289
    Spherical Harmonics?: true
    Max angular momentum: 4

	 --------------------------------------------------------
	                 NBF =   805, NAUX =  1806
	 --------------------------------------------------------
	   CLASS    FOCC     OCC    AOCC    AVIR     VIR    FVIR
	   PAIRS       0      49      49     756     756       0
	 --------------------------------------------------------


         ------------------------------------------------------------
                                     CPHF                           
                                  Rob Parrish                       
         ------------------------------------------------------------

  ==> Geometry <==

    Molecular point group: c1
    Full point group: C1

    Geometry (in Angstrom), charge = -1, multiplicity = 1:

       Center              X                  Y                   Z               Mass       
    ------------   -----------------  -----------------  -----------------  -----------------
           C         -1.345790940778     0.766709452604    -0.781287362311    12.000000000000
           C         -2.423790940778     1.339709452604    -0.108287362311    12.000000000000
           C          0.849209059222    -0.399290547396    -2.153287362311    12.000000000000
           C          1.844209059222    -1.014290547396    -0.052287362311    12.000000000000
           C         -1.430790940778     0.723709452604     2.006712637689    12.000000000000
           C          1.940209059222    -0.979290547396    -2.779287362311    12.000000000000
           C          2.891209059222    -1.567290547396    -0.772287362311    12.000000000000
           C         -0.309790940778     0.171709452604    -0.061287362311    12.000000000000
           C          0.807209059222    -0.421290547396    -0.764287362311    12.000000000000
           C         -2.466790940778     1.318709452604     1.285712637689    12.000000000000
           C         -0.352790940778     0.150709452604     1.332712637689    12.000000000000
           N          2.966209059222    -1.565290547396    -2.121287362311    14.003074004780
           O         -3.457790940778     1.845709452604     1.904712637689    15.994914619560
           F          0.635209059222    -0.417290547396     2.039712637689    18.998403224000
           H         -1.326790940778     0.789709452604    -1.869287362311     1.007825032070
           H         -3.219790940778     1.795709452604    -0.694287362311     1.007825032070
           H          0.059209059222     0.055709452604    -2.743287362311     1.007825032070
           H          1.845209059222    -1.051290547396     1.032712637689     1.007825032070
           H         -1.439790940778     0.693709452604     3.094712637689     1.007825032070
           H          2.021209059222    -0.987290547396    -3.861287362311     1.007825032070
           H          3.723209059222    -2.043290547396    -0.264287362311     1.007825032070

  Nuclear repulsion =  805.766125867640199
  Reference energy  = -649.596866636266441

  ==> Basis Set <==

  Basis Set: AUG-CC-PVTZ
    Blend: AUG-CC-PVTZ
    Number of shells: 259
    Number of basis function: 805
    Number of Cartesian functions: 945
    Spherical Harmonics?: true
    Max angular momentum: 3

  ==> CGRSolver (by Rob Parrish) <==

   Number of roots    =         1
   Preconditioning    =    JACOBI
   Convergence cutoff =     1E-06
   Maximum iterations =       100

  ==> CPHFRHamiltonian (by Rob Parrish) <== 

  ==> DFJK: Density-Fitted J/K Matrices <==

    J tasked:                  Yes
    K tasked:                  Yes
    wK tasked:                  No
    OpenMP threads:              8
    Integrals threads:           8
    Memory (MB):              3576
    Algorithm:                Disk
    Integral Cache:           NONE
    Schwarz Cutoff:          1E-12
    Fitting Condition:       1E-12

   => Auxiliary Basis Set <=

  Basis Set: (AUG-CC-PVTZ AUX)
    Blend: AUG-CC-PVTZ-JKFIT
    Number of shells: 518
    Number of basis function: 1778
    Number of Cartesian functions: 2219
    Spherical Harmonics?: true
    Max angular momentum: 4

  ==> CPHF Iterations <==

  => Iterations <=

             Iter  Converged  Remaining    Residual
  CGR           1          0          1   1.362E-01
  CGR           2          0          1   5.127E-02
  CGR           3          0          1   3.107E-02
  CGR           4          0          1   1.164E-02
  CGR           5          0          1   5.566E-03
  CGR           6          0          1   2.783E-03
  CGR           7          0          1   1.090E-03
  CGR           8          0          1   4.176E-04
  CGR           9          0          1   1.357E-04
  CGR          10          0          1   3.916E-05
  CGR          11          0          1   1.494E-05
  CGR          12          0          1   4.072E-06
  CGR          13          0          1   1.704E-06
  CGR          14          1          0   8.651E-07

    CGRSolver converged.

  ==> DFCorrGrad: Density-Fitted Correlated Gradients <==

    OpenMP threads:              8
    Integrals threads:           8
    Memory (MB):              3576
    Schwarz Cutoff:          0E+00
    Fitting Condition:       1E-12

   => Auxiliary Basis Set <=

  Basis Set: (AUG-CC-PVTZ AUX)
    Blend: AUG-CC-PVTZ-JKFIT
    Number of shells: 518
    Number of basis function: 1778
    Number of Cartesian functions: 2219
    Spherical Harmonics?: true
    Max angular momentum: 4

	-----------------------------------------------------------
	 ==================> DF-MP2 Energies <==================== 
	-----------------------------------------------------------
	 Reference Energy          =    -649.5968666362664408 [Eh]
	 Singles Energy            =      -0.0000000000000000 [Eh]
	 Same-Spin Energy          =      -0.6880454459184563 [Eh]
	 Opposite-Spin Energy      =      -2.0294621122564376 [Eh]
	 Correlation Energy        =      -2.7175075581748938 [Eh]
	 Total Energy              =    -652.3143741944413705 [Eh]
	-----------------------------------------------------------
	 ================> DF-SCS-MP2 Energies <================== 
	-----------------------------------------------------------
	 SCS Same-Spin Scale       =       0.3333333333333333 [-]
	 SCS Opposite-Spin Scale   =       1.2000000000000000 [-]
	 SCS Same-Spin Energy      =      -0.2293484819728188 [Eh]
	 SCS Opposite-Spin Energy  =      -2.4353545347077250 [Eh]
	 SCS Correlation Energy    =      -2.6647030166805439 [Eh]
	 SCS Total Energy          =    -652.2615696529469460 [Eh]
	-----------------------------------------------------------


  -Total Gradient:
     Atom            X                  Y                   Z
    ------   -----------------  -----------------  -----------------
       1        0.024173454277    -0.012665056852    -0.014403407574
       2       -0.024177679909     0.012037978219     0.043601558858
       3       -0.014829324049     0.007717384762     0.011226786519
       4       -0.025411556040     0.013890313012     0.009641135119
       5       -0.045795804772     0.025311991575    -0.002606229241
       6       -0.006766953192     0.003802029639    -0.005958244445
       7        0.001885130630    -0.001268516207     0.013110147652
       8       -0.027024814015     0.014442847182     0.012007962326
       9        0.023174479520    -0.012387874423    -0.016013691122
      10        0.049126323420    -0.026126983215    -0.031285937970
      11        0.048220714145    -0.026627253319     0.001874910179
      12        0.004691654762    -0.002547322085    -0.002398061886
      13       -0.004060027734     0.002206532572     0.001606619967
      14        0.005830506678    -0.002347795280    -0.026105342358
      15        0.000574474705    -0.000111854297    -0.009000409451
      16       -0.001805819701     0.001184832096    -0.008810180928
      17       -0.006966676439     0.004010759687    -0.003145810944
      18       -0.006846723023     0.002983772568     0.021036845021
      19        0.003762237297    -0.002293199525     0.006884473490
      20        0.000839749711    -0.000344172832    -0.001318820068
      21        0.001406653704    -0.000868413273     0.000055696854


*** tstop() called on gpu-1-11.local at Sat Nov 11 18:58:20 2017
Module time:
	user time   =    5574.55 seconds =      92.91 minutes
	system time =     134.56 seconds =       2.24 minutes
	total time  =       2609 seconds =      43.48 minutes
Total time:
	user time   =    5574.56 seconds =      92.91 minutes
	system time =     134.56 seconds =       2.24 minutes
	total time  =       2609 seconds =      43.48 minutes

			-----------------------------------------
			 OPTKING 2.0: for geometry optimizations 
			  - R.A. King,  Bethel University        
			-----------------------------------------

	Internal coordinates to be generated automatically.
	Detected frag 1 with atoms:  1 2 3 4 5 6 7 8 9 10 11 12 13 14 15 16 17 18 19 20
	 21
	---Fragment 1 Bond Connectivity---
	 1 : 2 8 15
	 2 : 1 10 16
	 3 : 6 9 17
	 4 : 7 9 18
	 5 : 10 11 19
	 6 : 3 12 20
	 7 : 4 12 21
	 8 : 1 9 11
	 9 : 3 4 8
	 10 : 2 5 13
	 11 : 5 8 14
	 12 : 6 7
	 13 : 10
	 14 : 11
	 15 : 1
	 16 : 2
	 17 : 3
	 18 : 4
	 19 : 5
	 20 : 6
	 21 : 7

	Assuming in current code that numbering for constraints corresponds to unified fragment.
	Fixed dihedral atom list: 
	     1     8     9     3
	---Fragment 1 Geometry and Gradient---
	 C          -2.5431763102        1.4488708889       -1.4764191459
	 C          -4.5803010814        2.5316839631       -0.2046334584
	 C           1.6047725515       -0.7545497820       -4.0691234002
	 C           3.4850500537       -1.9167313538       -0.0988087950
	 C          -2.7038030315        1.3676126652        3.7921373126
	 C           3.6664637625       -1.8505909391       -5.2520919594
	 C           5.4635933148       -2.9617499052       -1.4594116107
	 C          -0.5854200365        0.3244838398       -0.1158163302
	 C           1.5254040539       -0.7961237570       -1.4442938016
	 C          -4.6615593052        2.4919997143        2.4296447708
	 C          -0.6666782602        0.2847995911        2.5184618991
	 N           5.6053227748       -2.9579704530       -4.0086521639
	 O          -6.5342779028        3.4878853863        3.5993852471
	 F           1.2003711591       -0.7885648524        3.8544982750
	 H          -2.5072715137        1.4923345900       -3.5324411784
	 H          -6.0845230832        3.3933990797       -1.3120129723
	 H           0.1118889065        0.1052756084       -5.1840618186
	 H           3.4869397798       -1.9866512207        1.9515440592
	 H          -2.7208105667        1.3109208812        5.8481593452
	 H           3.8195315792       -1.8657087482       -7.2967756351
	 H           7.0358454574       -3.8612595445       -0.4994307352
	             0.0241734543       -0.0126650569       -0.0144034076
	            -0.0241776799        0.0120379782        0.0436015589
	            -0.0148293240        0.0077173848        0.0112267865
	            -0.0254115560        0.0138903130        0.0096411351
	            -0.0457958048        0.0253119916       -0.0026062292
	            -0.0067669532        0.0038020296       -0.0059582444
	             0.0018851306       -0.0012685162        0.0131101477
	            -0.0270248140        0.0144428472        0.0120079623
	             0.0231744795       -0.0123878744       -0.0160136911
	             0.0491263234       -0.0261269832       -0.0312859380
	             0.0482207141       -0.0266272533        0.0018749102
	             0.0046916548       -0.0025473221       -0.0023980619
	            -0.0040600277        0.0022065326        0.0016066200
	             0.0058305067       -0.0023477953       -0.0261053424
	             0.0005744747       -0.0001118543       -0.0090004095
	            -0.0018058197        0.0011848321       -0.0088101809
	            -0.0069666764        0.0040107597       -0.0031458109
	            -0.0068467230        0.0029837726        0.0210368450
	             0.0037622373       -0.0022931995        0.0068844735
	             0.0008397497       -0.0003441728       -0.0013188201
	             0.0014066537       -0.0008684133        0.0000556969

	Previous optimization step data not found.  Starting new optimization.

	---Fragment 1 Intrafragment Coordinates---
	 - Coordinate -           - BOHR/RAD -       - ANG/DEG -
	 R(1,2)           =         2.634350	       1.394038
	 R(1,8)           =         2.635962	       1.394891
	 R(1,15)          =         2.056795	       1.088409
	 R(2,10)          =         2.635830	       1.394821
	 R(2,16)          =         2.057067	       1.088553
	 R(3,6)           =         2.617497	       1.385120
	 R(3,9)           =         2.626358	       1.389809
	 R(3,17)          =         2.052094	       1.085921
	 R(4,7)           =         2.618766	       1.385791
	 R(4,9)           =         2.627985	       1.390670
	 R(4,18)          =         2.051546	       1.085631
	 R(5,10)          =         2.636938	       1.395407
	 R(5,11)          =         2.635263	       1.394521
	 R(5,19)          =         2.056874	       1.088451
	 R(6,12)          =         2.555701	       1.352419
	 R(6,20)          =         2.050461	       1.085057
	 R(7,12)          =         2.553180	       1.351085
	 R(7,21)          =         2.050038	       1.084834
	 R(8,9)           =         2.734263	       1.446909
	 R(8,11)          =         2.635830	       1.394821
	 R(10,13)         =         2.422221	       1.281784
	 R(11,14)         =         2.534359	       1.341125
	 B(1,2,10)        =         2.094553	     120.009056
	 B(1,2,16)        =         2.068903	     118.539404
	 B(1,8,9)         =         2.091392	     119.827938
	 B(1,8,11)        =         2.093692	     119.959722
	 B(2,1,8)         =         2.094940	     120.031219
	 B(2,1,15)        =         2.079908	     119.169966
	 B(2,10,5)        =         2.094306	     119.994870
	 B(2,10,13)       =         2.094719	     120.018581
	 B(3,6,12)        =         2.164094	     123.993481
	 B(3,6,20)        =         2.108959	     120.834459
	 B(3,9,4)         =         2.089668	     119.729175
	 B(3,9,8)         =         2.097194	     120.160389
	 B(4,7,12)        =         2.165310	     124.063142
	 B(4,7,21)        =         2.107422	     120.746360
	 B(4,9,8)         =         2.096322	     120.110388
	 B(5,10,13)       =         2.094160	     119.986548
	 B(5,11,8)        =         2.095181	     120.045019
	 B(5,11,14)       =         2.081414	     119.256220
	 B(6,3,9)         =         2.058794	     117.960191
	 B(6,3,17)        =         2.097764	     120.193039
	 B(6,12,7)        =         2.031204	     116.379429
	 B(7,4,9)         =         2.057299	     117.874568
	 B(7,4,18)        =         2.100132	     120.328728
	 B(8,1,15)        =         2.108336	     120.798746
	 B(8,11,14)       =         2.106591	     120.698759
	 B(9,3,17)        =         2.126627	     121.846741
	 B(9,4,18)        =         2.125752	     121.796617
	 B(9,8,11)        =         2.098101	     120.212327
	 B(10,2,16)       =         2.119728	     121.451467
	 B(10,5,11)       =         2.093699	     119.960108
	 B(10,5,19)       =         2.120101	     121.472852
	 B(11,5,19)       =         2.069385	     118.567038
	 B(12,6,20)       =         2.010131	     115.172023
	 B(12,7,21)       =         2.010452	     115.190425
	 D(1,2,10,5)      =        -0.000325	      -0.018609
	 D(1,2,10,13)     =         3.141392	     179.988520
	 D(1,8,9,3)       =        -0.000287	      -0.016462
	 D(1,8,9,4)       =         3.139927	     179.904572
	 D(1,8,11,5)      =         0.000325	       0.018608
	 D(1,8,11,14)     =        -3.141528	    -179.996269
	 D(2,1,8,9)       =        -3.141211	    -179.978157
	 D(2,1,8,11)      =        -0.000348	      -0.019945
	 D(2,10,5,11)     =         0.000301	       0.017261
	 D(2,10,5,19)     =        -3.141543	    -179.997173
	 D(3,6,12,7)      =        -0.000442	      -0.025353
	 D(3,9,4,7)       =        -0.000702	      -0.040214
	 D(3,9,4,18)      =        -3.140420	    -179.932784
	 D(3,9,8,11)      =        -3.141149	    -179.974568
	 D(4,7,12,6)      =         0.000258	       0.014799
	 D(4,9,3,6)       =         0.000537	       0.030771
	 D(4,9,3,17)      =        -3.139978	    -179.907478
	 D(4,9,8,11)      =        -0.000934	      -0.053534
	 D(5,10,2,16)     =         3.139529	     179.881752
	 D(5,11,8,9)      =         3.141185	     179.976658
	 D(6,3,9,8)       =         3.140757	     179.952108
	 D(6,12,7,21)     =         3.140144	     179.916993
	 D(7,4,9,8)       =        -3.140922	    -179.961590
	 D(7,12,6,20)     =         3.139923	     179.904355
	 D(8,1,2,10)      =         0.000348	       0.019955
	 D(8,1,2,16)      =        -3.139556	    -179.883288
	 D(8,9,3,17)      =         0.000242	       0.013858
	 D(8,9,4,18)      =         0.002545	       0.145840
	 D(8,11,5,10)     =        -0.000301	      -0.017270
	 D(8,11,5,19)     =         3.141536	     179.996748
	 D(9,3,6,12)      =         0.000052	       0.002954
	 D(9,3,6,20)      =        -3.140248	    -179.922956
	 D(9,4,7,12)      =         0.000304	       0.017438
	 D(9,4,7,21)      =        -3.139491	    -179.879582
	 D(9,8,1,15)      =         0.002066	       0.118384
	 D(9,8,11,14)     =        -0.000667	      -0.038219
	 D(10,2,1,15)     =         3.140283	     179.924984
	 D(10,5,11,14)    =         3.141547	     179.997392
	 D(11,5,10,13)    =        -3.141416	    -179.989865
	 D(11,8,1,15)     =        -3.140256	    -179.923403
	 D(12,6,3,17)     =         3.140585	     179.942267
	 D(12,7,4,18)     =         3.140051	     179.911653
	 D(13,10,2,16)    =        -0.001939	      -0.111119
	 D(13,10,5,19)    =        -0.000075	      -0.004300
	 D(14,11,5,19)    =         0.000199	       0.011410
	 D(15,1,2,16)     =         0.000379	       0.021741
	 D(17,3,6,20)     =         0.000285	       0.016356
	 D(18,4,7,21)     =         0.000255	       0.014633
	 R(4,14)          =         4.703313	       2.488886

	Current energy   :      -652.3143741944

	Generating empirical Hessian (Schlegel '84) for each fragment.
	Adding user-defined constraint: Fragment 1; Coordinate 59:
		Value =    -0.000287; Fixed value    =     0.000017
		Force =     0.000152; Force constant =     0.500000
	Removing off-diagonal coupling between coordinate 59 and others.
	Taking RFO optimization step.
	Going to follow RFO solution 1.
	Using RFO vector 1.

	Determining step-restricting scale parameter for RS-RFO.
	Maximum step size allowed    0.10000

	 Iter      |step|        alpha        rfo_root  
	------------------------------------------------
	    0     0.46177       1.00000           1
	    1     0.30278       4.02847           1
	    2     0.20528      12.04911           1
	    3     0.14688      28.63966           1
	    4     0.11552      51.44893           1
	    5     0.10270      67.95221           1
	    6     0.10011      72.13620           1
	    7     0.10000      72.31786           1
	------------------------------------------------
	Norm of target step-size    0.10000
	Projected energy change by RFO approximation:        -0.0094537248

	Back-transformation to cartesian coordinates...
	Successfully converged to displaced geometry.

	--- Internal Coordinate Step in ANG or DEG, aJ/ANG or AJ/DEG ---
	 ---------------------------------------------------------------------------
	   Coordinate                Previous        Force       Change         New 
	   ----------                --------       ------       ------       ------
	    1 R(1,2)          =      1.394038    -0.085621    -0.004765     1.389273
	    2 R(1,8)          =      1.394891     0.089647     0.004908     1.399799
	    3 R(1,15)         =      1.088409    -0.074187    -0.004601     1.083808
	    4 R(2,10)         =      1.394821     0.212907     0.011991     1.406812
	    5 R(2,16)         =      1.088553    -0.054042    -0.003352     1.085201
	    6 R(3,6)          =      1.385120    -0.018720    -0.001087     1.384033
	    7 R(3,9)          =      1.389809     0.099037     0.005718     1.395527
	    8 R(3,17)         =      1.085921    -0.069683    -0.004309     1.081612
	    9 R(4,7)          =      1.385791     0.013502     0.000778     1.386569
	   10 R(4,9)          =      1.390670     0.133694     0.007703     1.398372
	   11 R(4,18)         =      1.085631    -0.172326    -0.010654     1.074977
	   12 R(5,10)         =      1.395407     0.183170     0.010331     1.405738
	   13 R(5,11)         =      1.394521    -0.139622    -0.007800     1.386721
	   14 R(5,19)         =      1.088451    -0.056961    -0.003533     1.084918
	   15 R(6,12)         =      1.352419    -0.124115    -0.006736     1.345683
	   16 R(6,20)         =      1.085057    -0.011373    -0.000703     1.084355
	   17 R(7,12)         =      1.351085    -0.106567    -0.005761     1.345324
	   18 R(7,21)         =      1.084834    -0.012242    -0.000756     1.084077
	   19 R(8,9)          =      1.446909     0.120299     0.007424     1.454333
	   20 R(8,11)         =      1.394821    -0.004598    -0.000167     1.394655
	   21 R(10,13)        =      1.281784    -0.039728    -0.001809     1.279976
	   22 R(11,14)        =      1.341125     0.073853     0.003776     1.344901
	   23 B(1,2,10)       =    120.009056     0.000648     0.557135   120.566191
	   24 B(1,2,16)       =    118.539404     0.000166     0.157987   118.697391
	   25 B(1,8,9)        =    119.827938     0.001411     1.108007   120.935945
	   26 B(1,8,11)       =    119.959722    -0.001783    -1.499879   118.459843
	   27 B(2,1,8)        =    120.031219     0.000963     0.791118   120.822337
	   28 B(2,1,15)       =    119.169966    -0.000522    -0.431180   118.738786
	   29 B(2,10,5)       =    119.994870    -0.001909    -1.507183   118.487687
	   30 B(2,10,13)      =    120.018581     0.001031     0.814801   120.833382
	   31 B(3,6,12)       =    123.993481     0.000321     0.222352   124.215833
	   32 B(3,6,20)       =    120.834459    -0.000223    -0.167316   120.667143
	   33 B(3,9,4)        =    119.729175    -0.001966    -1.540296   118.188879
	   34 B(3,9,8)        =    120.160389     0.000769     0.557791   120.718180
	   35 B(4,7,12)       =    124.063142     0.000638     0.504999   124.568141
	   36 B(4,7,21)       =    120.746360    -0.000376    -0.302658   120.443701
	   37 B(4,9,8)        =    120.110388     0.001197     0.982508   121.092896
	   38 B(5,10,13)      =    119.986548     0.000879     0.692382   120.678930
	   39 B(5,11,8)       =    120.045019     0.001701     1.329352   121.374371
	   40 B(5,11,14)      =    119.256220    -0.000405    -0.345281   118.910939
	   41 B(6,3,9)        =    117.960191     0.000955     0.819340   118.779531
	   42 B(6,3,17)       =    120.193039    -0.000612    -0.529625   119.663414
	   43 B(6,12,7)       =    116.379429    -0.000361    -0.394086   115.985343
	   44 B(7,4,9)        =    117.874568     0.000412     0.387692   118.262259
	   45 B(7,4,18)       =    120.328728    -0.000815    -0.735815   119.592913
	   46 B(8,1,15)       =    120.798746    -0.000442    -0.359931   120.438814
	   47 B(8,11,14)      =    120.698759    -0.001296    -0.984071   119.714688
	   48 B(9,3,17)       =    121.846741    -0.000343    -0.289712   121.557029
	   49 B(9,4,18)       =    121.796617     0.000403     0.348130   122.144747
	   50 B(9,8,11)       =    120.212327     0.000372     0.391873   120.604201
	   51 B(10,2,16)      =    121.451467    -0.000814    -0.715117   120.736350
	   52 B(10,5,11)      =    119.960108     0.000380     0.329458   120.289566
	   53 B(10,5,19)      =    121.472852    -0.000531    -0.468521   121.004332
	   54 B(11,5,19)      =    118.567038     0.000151     0.139063   118.706101
	   55 B(12,6,20)      =    115.172023    -0.000097    -0.055032   115.116991
	   56 B(12,7,21)      =    115.190425    -0.000263    -0.202332   114.988093
	   57 D(1,2,10,5)     =     -0.018609     0.000000     0.000125    -0.018484
	   58 D(1,2,10,13)    =    179.988520    -0.000000    -0.000013   179.988507
	   59 D(1,8,9,3)      =     -0.016462     0.000001     0.003888    -0.012574
	   60 D(1,8,9,4)      =    179.904572     0.000001     0.004576   179.909148
	   61 D(1,8,11,5)     =      0.018608    -0.000001    -0.002531     0.016077
	   62 D(1,8,11,14)    =   -179.996269    -0.000000    -0.001600  -179.997869
	   63 D(2,1,8,9)      =   -179.978157    -0.000000    -0.000217  -179.978375
	   64 D(2,1,8,11)     =     -0.019945     0.000001     0.003012    -0.016932
	   65 D(2,10,5,11)    =      0.017261     0.000000     0.000233     0.017494
	   66 D(2,10,5,19)    =   -179.997173     0.000000     0.000328  -179.996846
	   67 D(3,6,12,7)     =     -0.025353     0.000000     0.000999    -0.024354
	   68 D(3,9,4,7)      =     -0.040214     0.000000     0.001375    -0.038838
	   69 D(3,9,4,18)     =   -179.932784    -0.000000    -0.002020  -179.934803
	   70 D(3,9,8,11)     =   -179.974568     0.000001     0.001378  -179.973190
	   71 D(4,7,12,6)     =      0.014799    -0.000000    -0.001123     0.013675
	   72 D(4,9,3,6)      =      0.030771    -0.000000    -0.001369     0.029402
	   73 D(4,9,3,17)     =   -179.907478    -0.000001    -0.004495  -179.911973
	   74 D(4,9,8,11)     =     -0.053534     0.000000     0.002066    -0.051468
	   75 D(5,10,2,16)    =    179.881752     0.000001     0.003739   179.885492
	   76 D(5,11,8,9)     =    179.976658     0.000000     0.000994   179.977652
	   77 D(6,3,9,8)      =    179.952108     0.000000     0.001243   179.953350
	   78 D(6,12,7,21)    =    179.916993     0.000001     0.004690   179.921683
	   79 D(7,4,9,8)      =   -179.961590    -0.000000    -0.000898  -179.962488
	   80 D(7,12,6,20)    =    179.904355     0.000001     0.004708   179.909063
	   81 D(8,1,2,10)     =      0.019955    -0.000000    -0.001392     0.018563
	   82 D(8,1,2,16)     =   -179.883288    -0.000001    -0.004056  -179.887344
	   83 D(8,9,3,17)     =      0.013858    -0.000000    -0.001883     0.011975
	   84 D(8,9,4,18)     =      0.145840    -0.000001    -0.004293     0.141547
	   85 D(8,11,5,10)    =     -0.017270     0.000000     0.000548    -0.016722
	   86 D(8,11,5,19)    =    179.996748     0.000000     0.000544   179.997291
	   87 D(9,3,6,12)     =      0.002954    -0.000000    -0.000030     0.002925
	   88 D(9,3,6,20)     =   -179.922956    -0.000001    -0.004030  -179.926986
	   89 D(9,4,7,12)     =      0.017438     0.000000     0.000384     0.017822
	   90 D(9,4,7,21)     =   -179.879582    -0.000001    -0.005879  -179.885462
	   91 D(9,8,1,15)     =      0.118384    -0.000001    -0.004737     0.113647
	   92 D(9,8,11,14)    =     -0.038219     0.000000     0.001925    -0.036294
	   93 D(10,2,1,15)    =    179.924984     0.000001     0.003095   179.928079
	   94 D(10,5,11,14)   =    179.997392    -0.000000    -0.000278   179.997114
	   95 D(11,5,10,13)   =   -179.989865     0.000000     0.000379  -179.989486
	   96 D(11,8,1,15)    =   -179.923403    -0.000000    -0.001508  -179.924911
	   97 D(12,6,3,17)    =    179.942267     0.000001     0.003168   179.945435
	   98 D(12,7,4,18)    =    179.911653     0.000001     0.004867   179.916521
	   99 D(13,10,2,16)   =     -0.111119     0.000001     0.003602    -0.107517
	  100 D(13,10,5,19)   =     -0.004300     0.000000     0.000474    -0.003826
	  101 D(14,11,5,19)   =      0.011410    -0.000000    -0.000282     0.011127
	  102 D(15,1,2,16)    =      0.021741     0.000000     0.000431     0.022172
	  103 D(17,3,6,20)    =      0.016356    -0.000000    -0.000832     0.015525
	  104 D(18,4,7,21)    =      0.014633    -0.000000    -0.001396     0.013237
	  105 R(4,14)         =      2.488886     0.247991     0.021685     2.510571
	 ---------------------------------------------------------------------------
	Successfully symmetrized geometry.
	 Forces used to impose fixed constraints are not included.
	  Forces zeroed: 59 

  ==> Convergence Check <==

  Measures of convergence in internal coordinates in au.
  Criteria marked as inactive (o), active & met (*), and active & unmet ( ).
  --------------------------------------------------------------------------------------------- ~
   Step     Total Energy     Delta E     MAX Force     RMS Force      MAX Disp      RMS Disp    ~
  --------------------------------------------------------------------------------------------- ~
    Convergence Criteria    1.00e-06 *    3.00e-04 *             o    1.20e-03 *             o  ~
  --------------------------------------------------------------------------------------------- ~
      1    -652.31437419   -6.52e+02      3.01e-02      9.35e-03 o    4.10e-02      9.76e-03 o  ~
  ---------------------------------------------------------------------------------------------

	Writing optimization data to binary file.
	Structure for next step:
	Cartesian Geometry (in Angstrom)
	    C    -1.3648056642   0.7768189546  -0.7708143290
	    C    -2.4394209006   1.3480320554  -0.1007422833
	    C     0.8712158217  -0.4112259670  -2.1573078513
	    C     1.8595519018  -1.0225079099  -0.0606121058
	    C    -1.4413541556   0.7293647821   2.0118042503
	    C     1.9621291362  -0.9912925969  -2.7809887440
	    C     2.9044463605  -1.5742093386  -0.7861436021
	    C    -0.3165928278   0.1755847570  -0.0642696271
	    C     0.8097561379  -0.4227002337  -0.7631819789
	    C    -2.4953865409   1.3338311931   1.3048840668
	    C    -0.3753161155   0.1632682328   1.3290937190
	    N     2.9844096837  -1.5750994484  -2.1290884397
	    O    -3.4828912037   1.8587735277   1.9274656836
	    F     0.6182010964  -0.4076485208   2.0331790080
	    H    -1.3525230732   0.8034190008  -1.8542262599
	    H    -3.2341315189   1.8032291085  -0.6828865558
	    H     0.0900489211   0.0391357945  -2.7546659377
	    H     1.8767404074  -1.0679965233   1.0132648112
	    H    -1.4428286064   0.6953335595   3.0961873759
	    H     2.0416884737  -0.9985816884  -3.8623961037
	    H     3.7354529101  -2.0496302343  -0.2775897053
			--------------------------
			 OPTKING Finished Execution 
			--------------------------

    Structure for next step:
    Molecular point group: c1
    Full point group: C1

    Geometry (in Angstrom), charge = -1, multiplicity = 1:

    C           -1.360794718050     0.774647046731    -0.771982730188
    C           -2.435409954402     1.345860147482    -0.101910684488
    C            0.875226767844    -0.413397874895    -2.158476252515
    C            1.863562847970    -1.024679817757    -0.061780506984
    C           -1.437343209442     0.727192874264     2.010635849111
    C            1.966140082341    -0.993464504757    -2.782157145236
    C            2.908457306619    -1.576381246472    -0.787312003356
    C           -0.312581881674     0.173412849164    -0.065438028365
    C            0.813767084023    -0.424872141623    -0.764350380089
    C           -2.491375594694     1.331659285208     1.303715665556
    C           -0.371305169388     0.161096324884     1.327925317781
    N            2.988420629893    -1.577271356317    -2.130256840971
    O           -3.478880257529     1.856601619832     1.926297282404
    F            0.622212042542    -0.409820428710     2.032010606773
    H           -1.348512127085     0.801247092930    -1.855394661094
    H           -3.230120572712     1.801057200654    -0.684054957001
    H            0.094059867311     0.036963886657    -2.755834338967
    H            1.880751353528    -1.070168431158     1.012096410009
    H           -1.438817660214     0.693161651645     3.095018974669
    H            2.045699419870    -1.000753596280    -3.863564504942
    H            3.739463856302    -2.051802142204    -0.278758106486

gradient() will perform analytic gradient computation.

*** tstart() called on gpu-1-11.local
*** at Sat Nov 11 18:58:21 2017

    SCF Algorithm Type (re)set to DF.

*** tstart() called on gpu-1-11.local
*** at Sat Nov 11 18:58:21 2017

   => Loading Basis Set <=

    Name: AUG-CC-PVTZ
    Role: ORBITAL
    Keyword: BASIS
    atoms 1-11  entry C          line   221 file /cbio/jclab/home/chayas/anaconda/envs/py35/share/psi4/basis/aug-cc-pvtz.gbs 
    atoms 12    entry N          line   267 file /cbio/jclab/home/chayas/anaconda/envs/py35/share/psi4/basis/aug-cc-pvtz.gbs 
    atoms 13    entry O          line   313 file /cbio/jclab/home/chayas/anaconda/envs/py35/share/psi4/basis/aug-cc-pvtz.gbs 
    atoms 14    entry F          line   359 file /cbio/jclab/home/chayas/anaconda/envs/py35/share/psi4/basis/aug-cc-pvtz.gbs 
    atoms 15-21 entry H          line    34 file /cbio/jclab/home/chayas/anaconda/envs/py35/share/psi4/basis/aug-cc-pvtz.gbs 


         ---------------------------------------------------------
                                   SCF
            by Justin Turney, Rob Parrish, and Andy Simmonett
                              RHF Reference
                        8 Threads,   4768 MiB Core
         ---------------------------------------------------------

  ==> Geometry <==

    Molecular point group: c1
    Full point group: C1

    Geometry (in Angstrom), charge = -1, multiplicity = 1:

       Center              X                  Y                   Z               Mass       
    ------------   -----------------  -----------------  -----------------  -----------------
           C         -1.360794718050     0.774647046731    -0.771982730188    12.000000000000
           C         -2.435409954402     1.345860147482    -0.101910684488    12.000000000000
           C          0.875226767844    -0.413397874895    -2.158476252515    12.000000000000
           C          1.863562847970    -1.024679817757    -0.061780506984    12.000000000000
           C         -1.437343209442     0.727192874264     2.010635849111    12.000000000000
           C          1.966140082341    -0.993464504757    -2.782157145236    12.000000000000
           C          2.908457306619    -1.576381246472    -0.787312003356    12.000000000000
           C         -0.312581881674     0.173412849164    -0.065438028365    12.000000000000
           C          0.813767084023    -0.424872141623    -0.764350380089    12.000000000000
           C         -2.491375594694     1.331659285208     1.303715665556    12.000000000000
           C         -0.371305169388     0.161096324884     1.327925317781    12.000000000000
           N          2.988420629893    -1.577271356317    -2.130256840971    14.003074004780
           O         -3.478880257529     1.856601619832     1.926297282404    15.994914619560
           F          0.622212042542    -0.409820428710     2.032010606773    18.998403224000
           H         -1.348512127085     0.801247092930    -1.855394661094     1.007825032070
           H         -3.230120572712     1.801057200654    -0.684054957001     1.007825032070
           H          0.094059867311     0.036963886657    -2.755834338967     1.007825032070
           H          1.880751353528    -1.070168431158     1.012096410009     1.007825032070
           H         -1.438817660214     0.693161651645     3.095018974669     1.007825032070
           H          2.045699419870    -1.000753596280    -3.863564504942     1.007825032070
           H          3.739463856302    -2.051802142204    -0.278758106486     1.007825032070

  Running in c1 symmetry.

  Rotational constants: A =      0.06392  B =      0.01382  C =      0.01136 [cm^-1]
  Rotational constants: A =   1916.22250  B =    414.27984  C =    340.63578 [MHz]
  Nuclear repulsion =  803.387412088655992

  Charge       = -1
  Multiplicity = 1
  Electrons    = 98
  Nalpha       = 49
  Nbeta        = 49

  ==> Algorithm <==

  SCF Algorithm Type is DF.
  DIIS enabled.
  MOM disabled.
  Fractional occupation disabled.
  Guess Type is READ.
  Energy threshold   = 1.00e-10
  Density threshold  = 1.00e-10
  Integral threshold = 0.00e+00

  ==> Primary Basis <==

  Basis Set: AUG-CC-PVTZ
    Blend: AUG-CC-PVTZ
    Number of shells: 259
    Number of basis function: 805
    Number of Cartesian functions: 945
    Spherical Harmonics?: true
    Max angular momentum: 3

   => Loading Basis Set <=

    Name: (AUG-CC-PVTZ AUX)
    Role: JKFIT
    Keyword: DF_BASIS_SCF
    atoms 1-11  entry C          line   161 file /cbio/jclab/home/chayas/anaconda/envs/py35/share/psi4/basis/aug-cc-pvtz-jkfit.gbs 
    atoms 12    entry N          line   223 file /cbio/jclab/home/chayas/anaconda/envs/py35/share/psi4/basis/aug-cc-pvtz-jkfit.gbs 
    atoms 13    entry O          line   285 file /cbio/jclab/home/chayas/anaconda/envs/py35/share/psi4/basis/aug-cc-pvtz-jkfit.gbs 
    atoms 14    entry F          line   347 file /cbio/jclab/home/chayas/anaconda/envs/py35/share/psi4/basis/aug-cc-pvtz-jkfit.gbs 
    atoms 15-21 entry H          line    69 file /cbio/jclab/home/chayas/anaconda/envs/py35/share/psi4/basis/aug-cc-pvtz-jkfit.gbs 

  Reading orbitals from file 180, no projection.

  ==> Pre-Iterations <==

   -------------------------------------------------------
    Irrep   Nso     Nmo     Nalpha   Nbeta   Ndocc  Nsocc
   -------------------------------------------------------
     A        805     805       0       0       0       0
   -------------------------------------------------------
    Total     805     805      49      49      49       0
   -------------------------------------------------------

  ==> Integral Setup <==

  ==> DFJK: Density-Fitted J/K Matrices <==

    J tasked:                  Yes
    K tasked:                  Yes
    wK tasked:                  No
    OpenMP threads:              8
    Integrals threads:           8
    Memory (MB):              3576
    Algorithm:                Disk
    Integral Cache:           NONE
    Schwarz Cutoff:          1E-12
    Fitting Condition:       1E-12

   => Auxiliary Basis Set <=

  Basis Set: (AUG-CC-PVTZ AUX)
    Blend: AUG-CC-PVTZ-JKFIT
    Number of shells: 518
    Number of basis function: 1778
    Number of Cartesian functions: 2219
    Spherical Harmonics?: true
    Max angular momentum: 4

  Minimum eigenvalue in the overlap matrix is 3.4885741909E-07.
  Using Symmetric Orthogonalization.

  SCF Guess: Orbitals guess was supplied from a previous computation.

  ==> Iterations <==

                           Total Energy        Delta E     RMS |[F,P]|

   @DF-RHF iter   0:  -649.71979477797652   -6.49720e+02   5.50277e-04 
   @DF-RHF iter   1:  -649.60620971500202    1.13585e-01   1.35260e-04 
   @DF-RHF iter   2:  -649.60700095493769   -7.91240e-04   9.15565e-05 DIIS
   @DF-RHF iter   3:  -649.60749847354907   -4.97519e-04   1.66031e-05 DIIS
   @DF-RHF iter   4:  -649.60751088494703   -1.24114e-05   5.25130e-06 DIIS
   @DF-RHF iter   5:  -649.60751317892561   -2.29398e-06   1.46463e-06 DIIS
   @DF-RHF iter   6:  -649.60751362241592   -4.43490e-07   9.42505e-07 DIIS
   @DF-RHF iter   7:  -649.60751378274233   -1.60326e-07   3.78654e-07 DIIS
   @DF-RHF iter   8:  -649.60751383352761   -5.07853e-08   1.99567e-07 DIIS
   @DF-RHF iter   9:  -649.60751384137450   -7.84689e-09   8.08060e-08 DIIS
   @DF-RHF iter  10:  -649.60751384260277   -1.22827e-09   2.64029e-08 DIIS
   @DF-RHF iter  11:  -649.60751384282401   -2.21235e-10   1.04543e-08 DIIS
   @DF-RHF iter  12:  -649.60751384286823   -4.42242e-11   7.12230e-09 DIIS
   @DF-RHF iter  13:  -649.60751384287266   -4.43379e-12   2.66273e-09 DIIS
   @DF-RHF iter  14:  -649.60751384289244   -1.97815e-11   8.89662e-10 DIIS
   @DF-RHF iter  15:  -649.60751384286129    3.11502e-11   3.41967e-10 DIIS
   @DF-RHF iter  16:  -649.60751384285152    9.77707e-12   1.01457e-10 DIIS
   @DF-RHF iter  17:  -649.60751384285163   -1.13687e-13   5.45470e-11 DIIS

  ==> Post-Iterations <==

    Orbital Energies (a.u.)
    -----------------------

    Doubly Occupied:                                                      

       1A    -26.194734     2A    -20.316458     3A    -15.442369  
       4A    -11.198330     5A    -11.162438     6A    -11.158840  
       7A    -11.147964     8A    -11.136979     9A    -11.116095  
      10A    -11.114430    11A    -11.104369    12A    -11.089744  
      13A    -11.072505    14A    -11.071326    15A     -1.519556  
      16A     -1.145051    17A     -1.136312    18A     -1.025120  
      19A     -0.965169    20A     -0.917884    21A     -0.881626  
      22A     -0.851174    23A     -0.751784    24A     -0.736464  
      25A     -0.707529    26A     -0.682453    27A     -0.608169  
      28A     -0.598614    29A     -0.583120    30A     -0.573626  
      31A     -0.546219    32A     -0.521569    33A     -0.503289  
      34A     -0.485134    35A     -0.469748    36A     -0.462726  
      37A     -0.432308    38A     -0.422274    39A     -0.403702  
      40A     -0.389479    41A     -0.380064    42A     -0.362396  
      43A     -0.324718    44A     -0.302028    45A     -0.248560  
      46A     -0.236733    47A     -0.232414    48A     -0.208460  
      49A     -0.118111  

    Virtual:                                                              

      50A      0.098881    51A      0.101733    52A      0.114155  
      53A      0.119731    54A      0.127647    55A      0.134843  
      56A      0.151071    57A      0.156052    58A      0.166825  
      59A      0.176489    60A      0.183225    61A      0.184956  
      62A      0.188300    63A      0.189481    64A      0.192495  
      65A      0.201622    66A      0.203694    67A      0.206385  
      68A      0.211355    69A      0.212420    70A      0.218818  
      71A      0.219381    72A      0.223598    73A      0.223853  
      74A      0.226896    75A      0.236926    76A      0.239244  
      77A      0.240176    78A      0.244240    79A      0.245094  
      80A      0.253043    81A      0.260325    82A      0.263420  
      83A      0.270490    84A      0.270646    85A      0.277271  
      86A      0.277386    87A      0.292774    88A      0.295363  
      89A      0.300526    90A      0.303998    91A      0.312195  
      92A      0.313971    93A      0.318738    94A      0.322500  
      95A      0.332377    96A      0.333745    97A      0.335534  
      98A      0.338118    99A      0.342572   100A      0.344560  
     101A      0.355760   102A      0.361567   103A      0.369075  
     104A      0.371437   105A      0.378764   106A      0.382078  
     107A      0.384457   108A      0.385955   109A      0.386063  
     110A      0.391975   111A      0.395286   112A      0.407125  
     113A      0.411638   114A      0.413826   115A      0.418007  
     116A      0.424795   117A      0.425564   118A      0.433536  
     119A      0.438973   120A      0.444720   121A      0.449146  
     122A      0.453108   123A      0.459455   124A      0.468192  
     125A      0.469520   126A      0.480667   127A      0.484593  
     128A      0.484768   129A      0.488000   130A      0.499442  
     131A      0.509603   132A      0.511420   133A      0.520062  
     134A      0.524285   135A      0.528352   136A      0.536474  
     137A      0.536960   138A      0.544080   139A      0.545150  
     140A      0.551731   141A      0.554630   142A      0.558068  
     143A      0.560388   144A      0.566653   145A      0.568111  
     146A      0.571265   147A      0.574401   148A      0.575300  
     149A      0.579401   150A      0.583204   151A      0.590048  
     152A      0.593947   153A      0.597156   154A      0.598056  
     155A      0.602325   156A      0.602473   157A      0.608202  
     158A      0.609494   159A      0.611887   160A      0.616609  
     161A      0.624169   162A      0.633094   163A      0.641167  
     164A      0.645976   165A      0.646844   166A      0.649371  
     167A      0.650955   168A      0.655903   169A      0.656339  
     170A      0.666636   171A      0.673425   172A      0.679437  
     173A      0.682603   174A      0.685509   175A      0.690878  
     176A      0.696025   177A      0.702846   178A      0.705419  
     179A      0.711301   180A      0.717945   181A      0.723313  
     182A      0.728458   183A      0.731973   184A      0.738049  
     185A      0.749077   186A      0.762191   187A      0.767903  
     188A      0.769706   189A      0.781849   190A      0.787562  
     191A      0.793958   192A      0.795705   193A      0.803706  
     194A      0.804083   195A      0.806863   196A      0.817579  
     197A      0.820926   198A      0.827693   199A      0.828471  
     200A      0.845609   201A      0.852974   202A      0.858739  
     203A      0.859375   204A      0.862180   205A      0.866730  
     206A      0.875658   207A      0.877583   208A      0.881506  
     209A      0.889640   210A      0.899492   211A      0.911255  
     212A      0.914862   213A      0.916792   214A      0.924397  
     215A      0.936559   216A      0.939361   217A      0.945328  
     218A      0.948510   219A      0.958920   220A      0.968602  
     221A      0.975611   222A      0.977063   223A      0.986188  
     224A      0.989211   225A      0.992561   226A      0.998083  
     227A      0.998729   228A      1.008096   229A      1.009062  
     230A      1.015859   231A      1.016256   232A      1.019658  
     233A      1.026592   234A      1.034947   235A      1.041855  
     236A      1.044956   237A      1.054969   238A      1.057844  
     239A      1.061175   240A      1.061327   241A      1.067096  
     242A      1.071758   243A      1.075349   244A      1.076184  
     245A      1.083530   246A      1.087360   247A      1.087457  
     248A      1.096162   249A      1.101981   250A      1.110706  
     251A      1.111397   252A      1.112476   253A      1.118283  
     254A      1.122479   255A      1.124214   256A      1.127131  
     257A      1.127483   258A      1.133853   259A      1.147210  
     260A      1.150208   261A      1.150592   262A      1.155743  
     263A      1.161668   264A      1.164867   265A      1.169917  
     266A      1.176061   267A      1.180005   268A      1.182144  
     269A      1.190807   270A      1.197540   271A      1.204781  
     272A      1.211774   273A      1.217998   274A      1.218956  
     275A      1.223525   276A      1.235009   277A      1.235268  
     278A      1.242880   279A      1.245108   280A      1.256123  
     281A      1.259298   282A      1.274983   283A      1.278100  
     284A      1.285445   285A      1.285458   286A      1.290973  
     287A      1.295088   288A      1.305569   289A      1.305838  
     290A      1.307881   291A      1.316593   292A      1.321115  
     293A      1.322611   294A      1.329644   295A      1.336608  
     296A      1.341802   297A      1.347829   298A      1.348835  
     299A      1.359093   300A      1.363137   301A      1.366093  
     302A      1.368943   303A      1.370817   304A      1.378020  
     305A      1.388128   306A      1.389061   307A      1.399678  
     308A      1.402725   309A      1.413192   310A      1.425942  
     311A      1.427939   312A      1.434372   313A      1.444176  
     314A      1.447906   315A      1.448005   316A      1.458196  
     317A      1.469457   318A      1.478477   319A      1.480633  
     320A      1.482619   321A      1.484351   322A      1.493883  
     323A      1.504468   324A      1.517119   325A      1.528130  
     326A      1.531644   327A      1.535905   328A      1.542637  
     329A      1.553464   330A      1.559640   331A      1.577543  
     332A      1.581955   333A      1.592264   334A      1.606961  
     335A      1.609712   336A      1.612958   337A      1.616058  
     338A      1.617870   339A      1.631266   340A      1.649554  
     341A      1.656087   342A      1.665912   343A      1.668510  
     344A      1.688458   345A      1.692115   346A      1.699723  
     347A      1.713622   348A      1.716909   349A      1.723230  
     350A      1.742847   351A      1.749035   352A      1.758765  
     353A      1.771145   354A      1.776416   355A      1.777500  
[...]
	 R(7,21)          =         2.046564	       1.082995
	 R(8,9)           =         2.728721	       1.443977
	 R(8,11)          =         2.652146	       1.403455
	 R(10,13)         =         2.379128	       1.258980
	 R(11,14)         =         2.592989	       1.372150
	 B(1,2,10)        =         2.141728	     122.711958
	 B(1,2,16)        =         2.093580	     119.953325
	 B(1,8,9)         =         2.119152	     121.418486
	 B(1,8,11)        =         1.965948	     112.640527
	 B(2,1,8)         =         2.166990	     124.159392
	 B(2,1,15)        =         2.043994	     117.112230
	 B(2,10,5)        =         1.972520	     113.017077
	 B(2,10,13)       =         2.157016	     123.587904
	 B(3,6,12)        =         2.176017	     124.676606
	 B(3,6,20)        =         2.080749	     119.218140
	 B(3,9,4)         =         1.978378	     113.352729
	 B(3,9,8)         =         2.124429	     121.720825
	 B(4,7,12)        =         2.183251	     125.091058
	 B(4,7,21)        =         2.075204	     118.900417
	 B(4,9,8)         =         2.180378	     124.926446
	 B(5,10,13)       =         2.153649	     123.395018
	 B(5,11,8)        =         2.185741	     125.233716
	 B(5,11,14)       =         2.017663	     115.603561
	 B(6,3,9)         =         2.120068	     121.470949
	 B(6,3,17)        =         2.053688	     117.667652
	 B(6,12,7)        =         1.996782	     114.407201
	 B(7,4,9)         =         2.111874	     121.001457
	 B(7,4,18)        =         2.068679	     118.526576
	 B(8,1,15)        =         2.072201	     118.728378
	 B(8,11,14)       =         2.079782	     119.162723
	 B(9,3,17)        =         2.109429	     120.861399
	 B(9,4,18)        =         2.102632	     120.471967
	 B(9,8,11)        =         2.198085	     125.940986
	 B(10,2,16)       =         2.047877	     117.334717
	 B(10,5,11)       =         2.133444	     122.237329
	 B(10,5,19)       =         2.075929	     118.941983
	 B(11,5,19)       =         2.073812	     118.820688
	 B(12,6,20)       =         2.026419	     116.105254
	 B(12,7,21)       =         2.024731	     116.008526
	 D(1,2,10,5)      =        -0.000028	      -0.001632
	 D(1,2,10,13)     =        -3.141540	    -179.996960
	 D(1,8,9,3)       =         0.000022	       0.001279
	 D(1,8,9,4)       =        -3.141446	    -179.991578
	 D(1,8,11,5)      =        -0.000064	      -0.003647
	 D(1,8,11,14)     =         3.141521	     179.995882
	 D(2,1,8,9)       =         3.141593	     180.000000
	 D(2,1,8,11)      =         0.000087	       0.005002
	 D(2,10,5,11)     =         0.000052	       0.002965
	 D(2,10,5,19)     =        -3.141548	    -179.997414
	 D(3,6,12,7)      =         0.000025	       0.001451
	 D(3,9,4,7)       =         0.000039	       0.002218
	 D(3,9,4,18)      =        -3.141553	    -179.997746
	 D(3,9,8,11)      =         3.141510	     179.995262
	 D(4,7,12,6)      =        -0.000038	      -0.002160
	 D(4,9,3,6)       =        -0.000050	      -0.002875
	 D(4,9,3,17)      =         3.141523	     179.995998
	 D(4,9,8,11)      =         0.000042	       0.002405
	 D(5,10,2,16)     =         3.141564	     179.998361
	 D(5,11,8,9)      =        -3.141559	    -179.998084
	 D(6,3,9,8)       =        -3.141532	    -179.996497
	 D(6,12,7,21)     =         3.141593	     180.000000
	 D(7,4,9,8)       =         3.141516	     179.995600
	 D(7,12,6,20)     =        -3.141530	    -179.996437
	 D(8,1,2,10)      =        -0.000044	      -0.002527
	 D(8,1,2,16)      =         3.141549	     179.997480
	 D(8,9,3,17)      =         0.000041	       0.002377
	 D(8,9,4,18)      =        -0.000076	      -0.004364
	 D(8,11,5,10)     =        -0.000000	      -0.000000
	 D(8,11,5,19)     =         3.141593	     180.000000
	 D(9,3,6,12)      =         0.000020	       0.001133
	 D(9,3,6,20)      =         3.141574	     179.998960
	 D(9,4,7,12)      =         0.000000	       0.000000
	 D(9,4,7,21)      =         3.141560	     179.998145
	 D(9,8,1,15)      =        -0.000054	      -0.003073
	 D(9,8,11,14)     =         0.000025	       0.001446
	 D(10,2,1,15)     =         3.141593	     180.000000
	 D(10,5,11,14)    =         3.141593	     180.000000
	 D(11,5,10,13)    =         3.141563	     179.998303
	 D(11,8,1,15)     =        -3.141554	    -179.997794
	 D(12,6,3,17)     =        -3.141554	    -179.997775
	 D(12,7,4,18)     =         3.141593	     180.000000
	 D(13,10,2,16)    =         0.000053	       0.003033
	 D(13,10,5,19)    =        -0.000036	      -0.002075
	 D(14,11,5,19)    =         0.000000	       0.000000
	 D(15,1,2,16)     =         0.000000	       0.000000
	 D(17,3,6,20)     =         0.000000	       0.000000
	 D(18,4,7,21)     =        -0.000033	      -0.001890
	 R(4,14)          =         5.255403	       2.781039

	Current energy   :      -652.3359094336

	Energy change for the previous step:
		Projected    :        -0.0000015198
		Actual       :        -0.0000010120

	Performing BFGS update.
	Previous computed or guess Hessian on step 1.
	Steps to be used in Hessian update: 9 8
	Adding user-defined constraint: Fragment 1; Coordinate 59:
		Value =     0.000022; Fixed value    =     0.000020
		Force =    -0.000002; Force constant =     0.725000
	Removing off-diagonal coupling between coordinate 59 and others.
	Taking RFO optimization step.
	Going to follow RFO solution 1.
	Using RFO vector 1.
	Norm of target step-size    0.00144
	Projected energy change by RFO approximation:        -0.0000001040

	Back-transformation to cartesian coordinates...
	Could not converge backtransformation.
	Using first guess instead.

	--- Internal Coordinate Step in ANG or DEG, aJ/ANG or AJ/DEG ---
	 ---------------------------------------------------------------------------
	   Coordinate                Previous        Force       Change         New 
	   ----------                --------       ------       ------       ------
	    1 R(1,2)          =      1.370749     0.000081     0.000017     1.370766
	    2 R(1,8)          =      1.413162    -0.000022    -0.000005     1.413157
	    3 R(1,15)         =      1.079137    -0.000060    -0.000011     1.079126
	    4 R(2,10)         =      1.436455     0.000178     0.000021     1.436476
	    5 R(2,16)         =      1.081392    -0.000069    -0.000014     1.081378
	    6 R(3,6)          =      1.380874     0.000335     0.000058     1.380932
	    7 R(3,9)          =      1.407028    -0.000384    -0.000071     1.406957
	    8 R(3,17)         =      1.077177    -0.000060    -0.000011     1.077166
	    9 R(4,7)          =      1.383575    -0.000164    -0.000032     1.383543
	   10 R(4,9)          =      1.406597     0.000483     0.000086     1.406683
	   11 R(4,18)         =      1.073905    -0.000208    -0.000033     1.073872
	   12 R(5,10)         =      1.432239     0.000176     0.000018     1.432257
	   13 R(5,11)         =      1.366393    -0.000009     0.000005     1.366398
	   14 R(5,19)         =      1.079239     0.000001     0.000004     1.079244
	   15 R(6,12)         =      1.339406    -0.000595    -0.000093     1.339313
	   16 R(6,20)         =      1.083245     0.000025     0.000007     1.083253
	   17 R(7,12)         =      1.337618     0.000230     0.000037     1.337654
	   18 R(7,21)         =      1.082995    -0.000023    -0.000005     1.082990
	   19 R(8,9)          =      1.443977     0.000201     0.000049     1.444026
	   20 R(8,11)         =      1.403455     0.000051     0.000014     1.403469
	   21 R(10,13)        =      1.258980    -0.000075    -0.000006     1.258974
	   22 R(11,14)        =      1.372150    -0.000940    -0.000135     1.372015
	   23 B(1,2,10)       =    122.711958    -0.000001    -0.004502   122.707456
	   24 B(1,2,16)       =    119.953325    -0.000002    -0.013805   119.939519
	   25 B(1,8,9)        =    121.418486    -0.000001    -0.006869   121.411617
	   26 B(1,8,11)       =    112.640527     0.000000    -0.000238   112.640289
	   27 B(2,1,8)        =    124.159392     0.000002     0.007984   124.167376
	   28 B(2,1,15)       =    117.112230    -0.000001    -0.002609   117.109621
	   29 B(2,10,5)       =    113.017077    -0.000002    -0.006476   113.010602
	   30 B(2,10,13)      =    123.587904     0.000002     0.007822   123.595726
	   31 B(3,6,12)       =    124.676606     0.000000     0.000978   124.677584
	   32 B(3,6,20)       =    119.218140    -0.000001    -0.004908   119.213233
	   33 B(3,9,4)        =    113.352729    -0.000000     0.000541   113.353270
	   34 B(3,9,8)        =    121.720825     0.000002     0.005800   121.726625
	   35 B(4,7,12)       =    125.091058    -0.000000    -0.001893   125.089165
	   36 B(4,7,21)       =    118.900417     0.000001     0.006682   118.907098
	   37 B(4,9,8)        =    124.926446    -0.000001    -0.006343   124.920103
	   38 B(5,10,13)      =    123.395018    -0.000000    -0.001347   123.393671
	   39 B(5,11,8)       =    125.233716    -0.000002    -0.010387   125.223329
	   40 B(5,11,14)      =    115.603561     0.000002     0.005082   115.608643
	   41 B(6,3,9)        =    121.470949     0.000000    -0.000755   121.470194
	   42 B(6,3,17)       =    117.667652    -0.000001    -0.003829   117.663823
	   43 B(6,12,7)       =    114.407201     0.000001     0.002413   114.409614
	   44 B(7,4,9)        =    121.001457    -0.000001    -0.001285   121.000172
	   45 B(7,4,18)       =    118.526576     0.000000     0.003065   118.529641
	   46 B(8,1,15)       =    118.728378    -0.000001    -0.005376   118.723003
	   47 B(8,11,14)      =    119.162723     0.000000     0.005305   119.168028
	   48 B(9,3,17)       =    120.861399     0.000000     0.004584   120.865983
	   49 B(9,4,18)       =    120.471967     0.000000    -0.001780   120.470187
	   50 B(9,8,11)       =    125.940986     0.000001     0.007106   125.948091
	   51 B(10,2,16)      =    117.334717     0.000003     0.018307   117.353025
	   52 B(10,5,11)      =    122.237329     0.000003     0.013617   122.250947
	   53 B(10,5,19)      =    118.941983    -0.000001    -0.005690   118.936292
	   54 B(11,5,19)      =    118.820688    -0.000001    -0.007927   118.812761
	   55 B(12,6,20)      =    116.105254     0.000000     0.003929   116.109183
	   56 B(12,7,21)      =    116.008526    -0.000001    -0.004789   116.003737
	   57 D(1,2,10,5)     =     -0.001632     0.000000     0.007319     0.005687
	   58 D(1,2,10,13)    =   -179.996960    -0.000000    -0.006425  -180.003385
	   59 D(1,8,9,3)      =      0.001279    -0.000000    -0.000016     0.001264
	   60 D(1,8,9,4)      =   -179.991578    -0.000000    -0.023999  -180.015577
	   61 D(1,8,11,5)     =     -0.003647     0.000000     0.012239     0.008592
	   62 D(1,8,11,14)    =    179.995882     0.000000     0.014796   180.010678
	   63 D(2,1,8,9)      =    180.000000     0.000000     0.005987   180.005987
	   64 D(2,1,8,11)     =      0.005002    -0.000000    -0.013240    -0.008238
	   65 D(2,10,5,11)    =      0.002965    -0.000000    -0.008386    -0.005421
	   66 D(2,10,5,19)    =   -179.997414    -0.000000    -0.007621  -180.005034
	   67 D(3,6,12,7)     =      0.001451    -0.000000    -0.003635    -0.002184
	   68 D(3,9,4,7)      =      0.002218    -0.000000    -0.007332    -0.005114
	   69 D(3,9,4,18)     =   -179.997746    -0.000000    -0.006432  -180.004177
	   70 D(3,9,8,11)     =    179.995262     0.000000     0.022219   180.017481
	   71 D(4,7,12,6)     =     -0.002160     0.000000     0.005211     0.003050
	   72 D(4,9,3,6)      =     -0.002875     0.000000     0.008803     0.005927
	   73 D(4,9,3,17)     =    179.995998     0.000000     0.011023   180.007022
	   74 D(4,9,8,11)     =      0.002405    -0.000000    -0.002405     0.000000
	   75 D(5,10,2,16)    =    179.998361     0.000000     0.005747   180.004108
	   76 D(5,11,8,9)     =   -179.998084    -0.000000    -0.008321  -180.006405
	   77 D(6,3,9,8)      =   -179.996497    -0.000000    -0.012617  -180.009114
	   78 D(6,12,7,21)    =    180.000000     0.000000     0.000858   180.000858
	   79 D(7,4,9,8)      =    179.995600     0.000000     0.014888   180.010489
	   80 D(7,12,6,20)    =   -179.996437    -0.000000    -0.009709  -180.006146
	   81 D(8,1,2,10)     =     -0.002527     0.000000     0.003829     0.001303
	   82 D(8,1,2,16)     =    179.997480     0.000000     0.005441   180.002921
	   83 D(8,9,3,17)     =      0.002377    -0.000000    -0.010396    -0.008019
	   84 D(8,9,4,18)     =     -0.004364     0.000000     0.015789     0.011425
	   85 D(8,11,5,10)    =      0.000000    -0.000000    -0.001902    -0.001902
	   86 D(8,11,5,19)    =    180.000000    -0.000000    -0.002289   179.997711
	   87 D(9,3,6,12)     =      0.001133    -0.000000    -0.003620    -0.002487
	   88 D(9,3,6,20)     =    179.998960     0.000000     0.002630   180.001589
	   89 D(9,4,7,12)     =      0.000000     0.000000     0.000000     0.000000
	   90 D(9,4,7,21)     =    179.998145     0.000000     0.004851   180.002997
	   91 D(9,8,1,15)     =     -0.003073     0.000000     0.011601     0.008528
	   92 D(9,8,11,14)    =      0.001446    -0.000000    -0.005764    -0.004319
	   93 D(10,2,1,15)    =    180.000000    -0.000000    -0.001201   179.998799
	   94 D(10,5,11,14)   =    180.000000    -0.000000    -0.003922   179.996078
	   95 D(11,5,10,13)   =    179.998303     0.000000     0.005327   180.003630
	   96 D(11,8,1,15)    =   -179.997794    -0.000000    -0.007903  -180.005697
	   97 D(12,6,3,17)    =   -179.997775    -0.000000    -0.005773  -180.003548
	   98 D(12,7,4,18)    =    180.000000    -0.000000     0.000000   180.000000
	   99 D(13,10,2,16)   =      0.003033    -0.000000    -0.007997    -0.004964
	  100 D(13,10,5,19)   =     -0.002075     0.000000     0.006092     0.004017
	  101 D(14,11,5,19)   =      0.000000    -0.000000    -0.004309    -0.004309
	  102 D(15,1,2,16)    =      0.000000     0.000000     0.000000     0.000000
	  103 D(17,3,6,20)    =      0.000000     0.000000     0.000000     0.000000
	  104 D(18,4,7,21)    =     -0.001890     0.000000     0.003968     0.002078
	  105 R(4,14)         =      2.781039     0.000112     0.000291     2.781331
	 ---------------------------------------------------------------------------
	Successfully symmetrized geometry.
	 Forces used to impose fixed constraints are not included.
	  Forces zeroed: 59 

  ==> Convergence Check <==

  Measures of convergence in internal coordinates in au.
  Criteria marked as inactive (o), active & met (*), and active & unmet ( ).
  ---------------------------------------------------------------------------------------------
   Step     Total Energy     Delta E     MAX Force     RMS Force      MAX Disp      RMS Disp   
  ---------------------------------------------------------------------------------------------
    Convergence Criteria    1.00e-06 *    3.00e-04 *             o    1.20e-03 *             o
  ---------------------------------------------------------------------------------------------
     10    -652.33590943   -1.01e-06      1.14e-04 *    1.94e-05 o    5.50e-04 *    1.41e-04 o  ~
  ---------------------------------------------------------------------------------------------


  **** Optimization is complete! (in 10 steps) ****

  ==> Optimization Summary <==

  Measures of convergence in internal coordinates in au.
  --------------------------------------------------------------------------------------------------------------- ~
   Step         Total Energy             Delta E       MAX Force       RMS Force        MAX Disp        RMS Disp  ~
  --------------------------------------------------------------------------------------------------------------- ~
      1    -652.314374194441   -652.314374194441      0.03010072      0.00934733      0.04097792      0.00975898  ~
      2    -652.322401354724     -0.008027160283      0.02546316      0.00654886      0.04828214      0.00975898  ~
      3    -652.327938035121     -0.005536680397      0.02087448      0.00438945      0.06109920      0.00975918  ~
      4    -652.331513062508     -0.003575027387      0.01649600      0.00272038      0.07727100      0.00975901  ~
      5    -652.333643976404     -0.002130913896      0.01224270      0.00156744      0.09072082      0.00975951  ~
      6    -652.334857539612     -0.001213563208      0.00811150      0.00091354      0.09459296      0.00975900  ~
      7    -652.335549767749     -0.000692228137      0.00451469      0.00051016      0.09481355      0.00976045  ~
      8    -652.335870961619     -0.000321193870      0.00136569      0.00019023      0.03946817      0.00409221  ~
      9    -652.335908421585     -0.000037459966      0.00024938      0.00005432      0.00486406      0.00053472  ~
     10    -652.335909433593     -0.000001012008      0.00011410      0.00001941      0.00055005      0.00014053  ~
  --------------------------------------------------------------------------------------------------------------- ~

	Writing optimization data to binary file.
	Final energy is   -652.3359094335930
	Final (previous) structure:
	Cartesian Geometry (in Angstrom)
	    C    -1.3329029514   0.7580039231  -0.7261293711
	    C    -2.4157137004   1.3349165766  -0.1148641555
	    C     0.9223609175  -0.4388949498  -2.1439402073
	    C     1.9500914441  -1.0705494228  -0.1260117098
	    C    -1.4864174694   0.7540459957   2.0117712476
	    C     1.9893839743  -1.0053369280  -2.8128330144
	    C     2.9748139164  -1.6108611677  -0.8825080343
	    C    -0.2634722211   0.1463832458  -0.0338399674
	    C     0.8497399398  -0.4442633196  -0.7387975092
	    C    -2.5714699726   1.3746001317   1.3125702607
	    C    -0.4260667813   0.1908686006   1.3594549050
	    N     3.0325507467  -1.5994519372  -2.2188301859
	    O    -3.5586158988   1.8997907723   1.8911451714
	    F     0.5368058386  -0.3657457318   2.1631051268
	    H    -1.3079745790   0.7791408609  -1.8047709142
	    H    -3.1968616029   1.7846742124  -0.7123037000
	    H     0.1423585370   0.0100730788  -2.7358307221
	    H     2.0114464236  -1.1389754692   0.9439533089
	    H    -1.5060047443   0.7299130789   3.0905630244
	    H     2.0080096350  -0.9806432830  -3.8956368267
	    H     3.8058203652  -2.0852463169  -0.3752950577
	Saving final (previous) structure.
			--------------------------
			 OPTKING Finished Execution 
			--------------------------

    Final optimized geometry and variables:
    Molecular point group: c1
    Full point group: C1

    Geometry (in Angstrom), charge = -1, multiplicity = 1:

    C           -1.332902951405     0.758003923143    -0.726129371077
    C           -2.415713700433     1.334916576632    -0.114864155501
    C            0.922360917529    -0.438894949840    -2.143940207307
    C            1.950091444083    -1.070549422778    -0.126011709824
    C           -1.486417469436     0.754045995705     2.011771247585
    C            1.989383974261    -1.005336928043    -2.812833014354
    C            2.974813916352    -1.610861167677    -0.882508034264
    C           -0.263472221110     0.146383245820    -0.033839967424
    C            0.849739939824    -0.444263319642    -0.738797509191
    C           -2.571469972589     1.374600131744     1.312570260664
    C           -0.426066781285     0.190868600629     1.359454905034
    N            3.032550746674    -1.599451937213    -2.218830185904
    O           -3.558615898762     1.899790772281     1.891145171435
    F            0.536805838638    -0.365745731813     2.163105126772
    H           -1.307974578953     0.779140860938    -1.804770914218
    H           -3.196861602890     1.784674212357    -0.712303700000
    H            0.142358536953     0.010073078828    -2.735830722053
    H            2.011446423563    -1.138975469243     0.943953308859
    H           -1.506004744273     0.729913078866     3.090563024353
    H            2.008009635020    -0.980643283025    -3.895636826671
    H            3.805820365164    -2.085246316947    -0.375295057729

	Cleaning optimization helper files.

*** Psi4 exiting successfully. Buy a developer a beer!
