
    -----------------------------------------------------------------------
          Psi4: An Open-Source Ab Initio Electronic Structure Package
                               Psi4 1.1 release

                         Git: Rev {HEAD} add49b9 


    R. M. Parrish, L. A. Burns, D. G. A. Smith, A. C. Simmonett,
    A. E. DePrince III, E. G. Hohenstein, U. Bozkaya, A. Yu. Sokolov,
    R. Di Remigio, R. M. Richard, J. F. Gonthier, A. M. James,
    H. R. McAlexander, A. Kumar, M. Saitow, X. Wang, B. P. Pritchard,
    P. Verma, H. F. Schaefer III, K. Patkowski, R. A. King, E. F. Valeev,
    F. A. Evangelista, J. M. Turney, T. D. Crawford, and C. D. Sherrill,
    J. Chem. Theory Comput. in press (2017).
    (doi: 10.1021/acs.jctc.7b00174)

    -----------------------------------------------------------------------


    Psi4 started on: Sunday, 12 November 2017 07:01AM

    Process ID:  20312
    PSIDATADIR: /cbio/jclab/home/chayas/anaconda/envs/py35/share/psi4
    Memory:     500.0 MiB
    Threads:    8
    
  ==> Input File <==

--------------------------------------------------------------------------

memory 5 Gb

molecule phepyrOH_cation {
  symmetry C1
  1 1 
  C      1.885   -1.036   -0.112
  C      2.878   -1.652   2.002
  C      0.807   -0.463   0.561
  C      1.800   -1.079   2.676
  C      5.340   -1.983   0.343
  C      3.818   -3.040   -1.196
  C      6.393   -2.566   -0.346
  C      4.910   -3.596   -1.847
  C      2.921   -1.631   0.608
  C      4.040   -2.225   -0.090
  C      0.764   -0.484   1.955
  N      6.151   -3.346   -1.408
  O      -0.288   0.076   2.612
  H      1.904   -1.012   -1.199
  H      3.678   -2.112   2.578
  H      0.003   -0.001   -0.006
  H      1.772   -1.098   3.762
  H      5.542   -1.352   1.204
  H      2.814   -3.246   -1.557
  H      7.433   -2.434   -0.081
  H      4.833   -4.240   -2.712
  H      6.940   -3.764   -1.901
  H      -0.175   -0.018   3.571
  units Angstrom
}

dih_string = "1 9 10 5 135"
set optking fixed_dihedral = $dih_string

optimize('MP2/aug-cc-PVTZ')
--------------------------------------------------------------------------

  Memory set to   4.657 GiB by Python driver.
gradient() will perform analytic gradient computation.

*** tstart() called on gpu-1-14.local
*** at Sun Nov 12 07:01:07 2017

    SCF Algorithm Type (re)set to DF.

*** tstart() called on gpu-1-14.local
*** at Sun Nov 12 07:01:07 2017

   => Loading Basis Set <=

    Name: AUG-CC-PVTZ
    Role: ORBITAL
    Keyword: BASIS
    atoms 1-11  entry C          line   221 file /cbio/jclab/home/chayas/anaconda/envs/py35/share/psi4/basis/aug-cc-pvtz.gbs 
    atoms 12    entry N          line   267 file /cbio/jclab/home/chayas/anaconda/envs/py35/share/psi4/basis/aug-cc-pvtz.gbs 
    atoms 13    entry O          line   313 file /cbio/jclab/home/chayas/anaconda/envs/py35/share/psi4/basis/aug-cc-pvtz.gbs 
    atoms 14-23 entry H          line    34 file /cbio/jclab/home/chayas/anaconda/envs/py35/share/psi4/basis/aug-cc-pvtz.gbs 


         ---------------------------------------------------------
                                   SCF
            by Justin Turney, Rob Parrish, and Andy Simmonett
                              RHF Reference
                        8 Threads,   4768 MiB Core
         ---------------------------------------------------------

  ==> Geometry <==

    Molecular point group: c1
    Full point group: C1

    Geometry (in Angstrom), charge = 1, multiplicity = 1:

       Center              X                  Y                   Z               Mass       
    ------------   -----------------  -----------------  -----------------  -----------------
           C         -1.271823097933     0.719771262229    -0.579223255650    12.000000000000
           C         -0.278823097933     0.103771262229     1.534776744350    12.000000000000
           C         -2.349823097933     1.292771262229     0.093776744350    12.000000000000
           C         -1.356823097933     0.676771262229     2.208776744350    12.000000000000
           C          2.183176902067    -0.227228737771    -0.124223255650    12.000000000000
           C          0.661176902067    -1.284228737771    -1.663223255650    12.000000000000
           C          3.236176902067    -0.810228737771    -0.813223255650    12.000000000000
           C          1.753176902067    -1.840228737771    -2.314223255650    12.000000000000
           C         -0.235823097933     0.124771262229     0.140776744350    12.000000000000
           C          0.883176902067    -0.469228737771    -0.557223255650    12.000000000000
           C         -2.392823097933     1.271771262229     1.487776744350    12.000000000000
           N          2.994176902067    -1.590228737771    -1.875223255650    14.003074004780
           O         -3.444823097933     1.831771262229     2.144776744350    15.994914619560
           H         -1.252823097933     0.743771262229    -1.666223255650     1.007825032070
           H          0.521176902067    -0.356228737771     2.110776744350     1.007825032070
           H         -3.153823097933     1.754771262229    -0.473223255650     1.007825032070
           H         -1.384823097933     0.657771262229     3.294776744350     1.007825032070
           H          2.385176902067     0.403771262229     0.736776744350     1.007825032070
           H         -0.342823097933    -1.490228737771    -2.024223255650     1.007825032070
           H          4.276176902067    -0.678228737771    -0.548223255650     1.007825032070
           H          1.676176902067    -2.484228737771    -3.179223255650     1.007825032070
           H          3.783176902067    -2.008228737771    -2.368223255650     1.007825032070
           H         -3.331823097933     1.737771262229     3.103776744350     1.007825032070

  Running in c1 symmetry.

  Rotational constants: A =      0.09611  B =      0.01321  C =      0.01204 [cm^-1]
  Rotational constants: A =   2881.24401  B =    396.06826  C =    360.96985 [MHz]
  Nuclear repulsion =  712.719738078404703

  Charge       = 1
  Multiplicity = 1
  Electrons    = 90
  Nalpha       = 45
  Nbeta        = 45

  ==> Algorithm <==

  SCF Algorithm Type is DF.
  DIIS enabled.
  MOM disabled.
  Fractional occupation disabled.
  Guess Type is SAD.
  Energy threshold   = 1.00e-10
  Density threshold  = 1.00e-10
  Integral threshold = 0.00e+00

  ==> Primary Basis <==

  Basis Set: AUG-CC-PVTZ
    Blend: AUG-CC-PVTZ
    Number of shells: 272
    Number of basis function: 828
    Number of Cartesian functions: 965
    Spherical Harmonics?: true
    Max angular momentum: 3

   => Loading Basis Set <=

    Name: (AUG-CC-PVTZ AUX)
    Role: JKFIT
    Keyword: DF_BASIS_SCF
    atoms 1-11  entry C          line   161 file /cbio/jclab/home/chayas/anaconda/envs/py35/share/psi4/basis/aug-cc-pvtz-jkfit.gbs 
    atoms 12    entry N          line   223 file /cbio/jclab/home/chayas/anaconda/envs/py35/share/psi4/basis/aug-cc-pvtz-jkfit.gbs 
    atoms 13    entry O          line   285 file /cbio/jclab/home/chayas/anaconda/envs/py35/share/psi4/basis/aug-cc-pvtz-jkfit.gbs 
    atoms 14-23 entry H          line    69 file /cbio/jclab/home/chayas/anaconda/envs/py35/share/psi4/basis/aug-cc-pvtz-jkfit.gbs 

  ==> Pre-Iterations <==

   -------------------------------------------------------
    Irrep   Nso     Nmo     Nalpha   Nbeta   Ndocc  Nsocc
   -------------------------------------------------------
     A        828     828       0       0       0       0
   -------------------------------------------------------
    Total     828     828      45      45      45       0
   -------------------------------------------------------

  ==> Integral Setup <==

  ==> DFJK: Density-Fitted J/K Matrices <==

    J tasked:                  Yes
    K tasked:                  Yes
    wK tasked:                  No
    OpenMP threads:              8
    Integrals threads:           8
    Memory (MB):              3576
    Algorithm:                Disk
    Integral Cache:           NONE
    Schwarz Cutoff:          1E-12
    Fitting Condition:       1E-12

   => Auxiliary Basis Set <=

  Basis Set: (AUG-CC-PVTZ AUX)
    Blend: AUG-CC-PVTZ-JKFIT
    Number of shells: 530
    Number of basis function: 1812
    Number of Cartesian functions: 2253
    Spherical Harmonics?: true
    Max angular momentum: 4

  Minimum eigenvalue in the overlap matrix is 5.5484070960E-07.
  Using Symmetric Orthogonalization.

  SCF Guess: Superposition of Atomic Densities via on-the-fly atomic UHF.

  ==> Iterations <==

                           Total Energy        Delta E     RMS |[F,P]|

   @DF-RHF iter   0:  -552.54125260684907   -5.52541e+02   2.16404e-02 
   @DF-RHF iter   1:  -551.18448671243334    1.35677e+00   2.06100e-03 
   @DF-RHF iter   2:  -551.55471969597238   -3.70233e-01   1.10972e-03 DIIS
   @DF-RHF iter   3:  -551.65635812181802   -1.01638e-01   3.57710e-04 DIIS
   @DF-RHF iter   4:  -551.67276457715491   -1.64065e-02   1.43808e-04 DIIS
   @DF-RHF iter   5:  -551.67530872147086   -2.54414e-03   3.72817e-05 DIIS
   @DF-RHF iter   6:  -551.67566469793690   -3.55976e-04   1.67674e-05 DIIS
   @DF-RHF iter   7:  -551.67574822485585   -8.35269e-05   7.12788e-06 DIIS
   @DF-RHF iter   8:  -551.67576375088322   -1.55260e-05   3.42446e-06 DIIS
   @DF-RHF iter   9:  -551.67576685537449   -3.10449e-06   1.71321e-06 DIIS
   @DF-RHF iter  10:  -551.67576767139940   -8.16025e-07   7.18686e-07 DIIS
   @DF-RHF iter  11:  -551.67576780124080   -1.29841e-07   2.14701e-07 DIIS
   @DF-RHF iter  12:  -551.67576780931745   -8.07665e-09   5.75402e-08 DIIS
   @DF-RHF iter  13:  -551.67576781056505   -1.24760e-09   2.45702e-08 DIIS
   @DF-RHF iter  14:  -551.67576781093135   -3.66299e-10   1.33185e-08 DIIS
   @DF-RHF iter  15:  -551.67576781099547   -6.41194e-11   5.49642e-09 DIIS
   @DF-RHF iter  16:  -551.67576781100342   -7.95808e-12   2.10721e-09 DIIS
   @DF-RHF iter  17:  -551.67576781101025   -6.82121e-12   8.29380e-10 DIIS
   @DF-RHF iter  18:  -551.67576781102082   -1.05729e-11   3.82726e-10 DIIS
   @DF-RHF iter  19:  -551.67576781102593   -5.11591e-12   1.43371e-10 DIIS
   @DF-RHF iter  20:  -551.67576781102002    5.91172e-12   6.66876e-11 DIIS

  ==> Post-Iterations <==

    Orbital Energies (a.u.)
    -----------------------

    Doubly Occupied:                                                      

       1A    -20.699737     2A    -15.836914     3A    -11.485749  
       4A    -11.485713     5A    -11.446311     6A    -11.429725  
       7A    -11.416300     8A    -11.416262     9A    -11.377000  
      10A    -11.375357    11A    -11.369807    12A    -11.355233  
      13A    -11.351689    14A     -1.514827    15A     -1.513756  
      16A     -1.320244    17A     -1.263081    18A     -1.238975  
      19A     -1.153665    20A     -1.148141    21A     -1.068873  
      22A     -1.054661    23A     -0.974009    24A     -0.963917  
      25A     -0.948167    26A     -0.871169    27A     -0.858525  
      28A     -0.852001    29A     -0.821262    30A     -0.798941  
      31A     -0.785031    32A     -0.774060    33A     -0.753489  
      34A     -0.730471    35A     -0.718839    36A     -0.709155  
      37A     -0.701146    38A     -0.683622    39A     -0.651478  
      40A     -0.628083    41A     -0.616941    42A     -0.571855  
      43A     -0.538566    44A     -0.467601    45A     -0.436869  

    Virtual:                                                              

      46A     -0.103575    47A     -0.085592    48A     -0.064236  
      49A     -0.063039    50A     -0.059232    51A     -0.051054  
      52A     -0.042917    53A     -0.039417    54A     -0.037045  
      55A     -0.029945    56A     -0.024289    57A     -0.023717  
      58A     -0.015551    59A     -0.010462    60A     -0.005812  
      61A     -0.001848    62A      0.000883    63A      0.007213  
      64A      0.009070    65A      0.012959    66A      0.014849  
      67A      0.020646    68A      0.021017    69A      0.025047  
      70A      0.029878    71A      0.032263    72A      0.036705  
      73A      0.038448    74A      0.041769    75A      0.042537  
      76A      0.048943    77A      0.051727    78A      0.054863  
      79A      0.057585    80A      0.064229    81A      0.065983  
      82A      0.071771    83A      0.074501    84A      0.079765  
      85A      0.083051    86A      0.085287    87A      0.091141  
      88A      0.095294    89A      0.097085    90A      0.107545  
      91A      0.110412    92A      0.116731    93A      0.117732  
      94A      0.120462    95A      0.125799    96A      0.130424  
      97A      0.132195    98A      0.136330    99A      0.137285  
     100A      0.143635   101A      0.153145   102A      0.159252  
     103A      0.160689   104A      0.164581   105A      0.165958  
     106A      0.168319   107A      0.171734   108A      0.174740  
     109A      0.175425   110A      0.178884   111A      0.182203  
     112A      0.191476   113A      0.192824   114A      0.196390  
     115A      0.200451   116A      0.202391   117A      0.208334  
     118A      0.213776   119A      0.215948   120A      0.218289  
     121A      0.223994   122A      0.227264   123A      0.228083  
     124A      0.230761   125A      0.237678   126A      0.239329  
     127A      0.242413   128A      0.248957   129A      0.252579  
     130A      0.255512   131A      0.260140   132A      0.268647  
     133A      0.277165   134A      0.279433   135A      0.282067  
     136A      0.284490   137A      0.288271   138A      0.291331  
     139A      0.299504   140A      0.308393   141A      0.311029  
     142A      0.314272   143A      0.317210   144A      0.319379  
     145A      0.321098   146A      0.323524   147A      0.326508  
     148A      0.330834   149A      0.335719   150A      0.340636  
     151A      0.341839   152A      0.346076   153A      0.348841  
     154A      0.353457   155A      0.354086   156A      0.357556  
     157A      0.362627   158A      0.366710   159A      0.367728  
     160A      0.371057   161A      0.375548   162A      0.377426  
     163A      0.381948   164A      0.385556   165A      0.390718  
     166A      0.394108   167A      0.399270   168A      0.400373  
     169A      0.402261   170A      0.404695   171A      0.410833  
     172A      0.412360   173A      0.416865   174A      0.419411  
     175A      0.424187   176A      0.426646   177A      0.429578  
     178A      0.437016   179A      0.441872   180A      0.443197  
     181A      0.446241   182A      0.454145   183A      0.459360  
     184A      0.464851   185A      0.467751   186A      0.475267  
     187A      0.476748   188A      0.480492   189A      0.489610  
     190A      0.493839   191A      0.496568   192A      0.503853  
     193A      0.521624   194A      0.526247   195A      0.528279  
     196A      0.540178   197A      0.543274   198A      0.545257  
     199A      0.553809   200A      0.566209   201A      0.573435  
     202A      0.575015   203A      0.576510   204A      0.580517  
     205A      0.581188   206A      0.586095   207A      0.594214  
     208A      0.597809   209A      0.603587   210A      0.612136  
     211A      0.617987   212A      0.619404   213A      0.624784  
     214A      0.630488   215A      0.632233   216A      0.635053  
     217A      0.637865   218A      0.644168   219A      0.658117  
     220A      0.662475   221A      0.667368   222A      0.680769  
     223A      0.686572   224A      0.695726   225A      0.696572  
     226A      0.701986   227A      0.705039   228A      0.708262  
     229A      0.713686   230A      0.720361   231A      0.723181  
     232A      0.726526   233A      0.735574   234A      0.736418  
     235A      0.741446   236A      0.748676   237A      0.753501  
     238A      0.757914   239A      0.767590   240A      0.769607  
     241A      0.773443   242A      0.778560   243A      0.782879  
     244A      0.788946   245A      0.789777   246A      0.791836  
     247A      0.795566   248A      0.798922   249A      0.806315  
     250A      0.806718   251A      0.812255   252A      0.815812  
     253A      0.821268   254A      0.829274   255A      0.831654  
     256A      0.840508   257A      0.846070   258A      0.848543  
     259A      0.857556   260A      0.862536   261A      0.867184  
     262A      0.872891   263A      0.874630   264A      0.877859  
     265A      0.879979   266A      0.882685   267A      0.889035  
     268A      0.895720   269A      0.905229   270A      0.911095  
     271A      0.912652   272A      0.915282   273A      0.921261  
     274A      0.925285   275A      0.928819   276A      0.932685  
     277A      0.934829   278A      0.943318   279A      0.945265  
     280A      0.949721   281A      0.952772   282A      0.954362  
     283A      0.957839   284A      0.966704   285A      0.972798  
     286A      0.978083   287A      0.981748   288A      0.986819  
     289A      0.988662   290A      0.992338   291A      0.996480  
     292A      0.999552   293A      1.005990   294A      1.006510  
     295A      1.013789   296A      1.015966   297A      1.022004  
     298A      1.024645   299A      1.032350   300A      1.038114  
     301A      1.042178   302A      1.051325   303A      1.053339  
     304A      1.057970   305A      1.061466   306A      1.070907  
     307A      1.073898   308A      1.075380   309A      1.079579  
     310A      1.089583   311A      1.091749   312A      1.094948  
     313A      1.098962   314A      1.104592   315A      1.109567  
     316A      1.113986   317A      1.119519   318A      1.134682  
     319A      1.135533   320A      1.141912   321A      1.144039  
     322A      1.148519   323A      1.155923   324A      1.157131  
     325A      1.162230   326A      1.168235   327A      1.176723  
     328A      1.186704   329A      1.191075   330A      1.204318  
     331A      1.206058   332A      1.218182   333A      1.220580  
     334A      1.224567   335A      1.229631   336A      1.241571  
     337A      1.244078   338A      1.254228   339A      1.260609  
     340A      1.264140   341A      1.268778   342A      1.281642  
     343A      1.293689   344A      1.297288   345A      1.300190  
     346A      1.305177   347A      1.311413   348A      1.318667  
     349A      1.321477   350A      1.328250   351A      1.334742  
     352A      1.348486   353A      1.358588   354A      1.360850  
     355A      1.365198   356A      1.367646   357A      1.378368  
     358A      1.382233   359A      1.392593   360A      1.395484  
     361A      1.398571   362A      1.405451   363A      1.412737  
     364A      1.419858   365A      1.431552   366A      1.441706  
     367A      1.450028   368A      1.453418   369A      1.459354  
     370A      1.469797   371A      1.478544   372A      1.484519  
     373A      1.492951   374A      1.507425   375A      1.512116  
     376A      1.521189   377A      1.523874   378A      1.527415  
     379A      1.536198   380A      1.547462   381A      1.553580  
     382A      1.558808   383A      1.562618   384A      1.571501  
     385A      1.574536   386A      1.584539   387A      1.595739  
     388A      1.607137   389A      1.613486   390A      1.620274  
     391A      1.625364   392A      1.632995   393A      1.646467  
     394A      1.655494   395A      1.660439   396A      1.671116  
     397A      1.683044   398A      1.689260   399A      1.693568  
     400A      1.702974   401A      1.705486   402A      1.707413  
     403A      1.716095   404A      1.726527   405A      1.736524  
     406A      1.742162   407A      1.748554   408A      1.752672  
     409A      1.764496   410A      1.771598   411A      1.786893  
     412A      1.795511   413A      1.797230   414A      1.808628  
     415A      1.814994   416A      1.815834   417A      1.820810  
     418A      1.828079   419A      1.835281   420A      1.851454  
     421A      1.861085   422A      1.865618   423A      1.872101  
     424A      1.877449   425A      1.881865   426A      1.893272  
     427A      1.898083   428A      1.903563   429A      1.909241  
     430A      1.916583   431A      1.918363   432A      1.921645  
     433A      1.935939   434A      1.947819   435A      1.949992  
     436A      1.959957   437A      1.968132   438A      1.986955  
     439A      1.991151   440A      1.998086   441A      2.010483  
     442A      2.015423   443A      2.029606   444A      2.037181  
     445A      2.042208   446A      2.047533   447A      2.054574  
     448A      2.056128   449A      2.071941   450A      2.081922  
     451A      2.087290   452A      2.095499   453A      2.100403  
     454A      2.112592   455A      2.128708   456A      2.135761  
     457A      2.154670   458A      2.170497   459A      2.180442  
     460A      2.193280   461A      2.198280   462A      2.201992  
     463A      2.210841   464A      2.213358   465A      2.218523  
     466A      2.228749   467A      2.246164   468A      2.257466  
     469A      2.261698   470A      2.264500   471A      2.287976  
     472A      2.297057   473A      2.304152   474A      2.305205  
     475A      2.320979   476A      2.329613   477A      2.332745  
     478A      2.342887   479A      2.362016   480A      2.384421  
     481A      2.387645   482A      2.399989   483A      2.408475  
     484A      2.415611   485A      2.418419   486A      2.421228  
     487A      2.436633   488A      2.447398   489A      2.455107  
     490A      2.478242   491A      2.494785   492A      2.498370  
     493A      2.508809   494A      2.527789   495A      2.543558  
     496A      2.551078   497A      2.566958   498A      2.568965  
     499A      2.586762   500A      2.604858   501A      2.620538  
     502A      2.630488   503A      2.636983   504A      2.641993  
     505A      2.690224   506A      2.699229   507A      2.714019  
     508A      2.724182   509A      2.747024   510A      2.751877  
     511A      2.772989   512A      2.783088   513A      2.800966  
     514A      2.828999   515A      2.836722   516A      2.875188  
     517A      2.884976   518A      2.946627   519A      2.951428  
     520A      2.961190   521A      2.976774   522A      2.981364  
     523A      3.003217   524A      3.011229   525A      3.044709  
     526A      3.060418   527A      3.075407   528A      3.085487  
     529A      3.089710   530A      3.124909   531A      3.125848  
     532A      3.154562   533A      3.162225   534A      3.174158  
     535A      3.185537   536A      3.187674   537A      3.200034  
     538A      3.217577   539A      3.224129   540A      3.238589  
     541A      3.244592   542A      3.257318   543A      3.265846  
     544A      3.280367   545A      3.286477   546A      3.297726  
     547A      3.307336   548A      3.312038   549A      3.328036  
     550A      3.339745   551A      3.350482   552A      3.357441  
     553A      3.365294   554A      3.372034   555A      3.373707  
     556A      3.383721   557A      3.394055   558A      3.407078  
     559A      3.412626   560A      3.416880   561A      3.422219  
     562A      3.426454   563A      3.427896   564A      3.445335  
     565A      3.448687   566A      3.465725   567A      3.474726  
     568A      3.489763   569A      3.501106   570A      3.512128  
     571A      3.515676   572A      3.541773   573A      3.548857  
     574A      3.553024   575A      3.561693   576A      3.563672  
     577A      3.579717   578A      3.582961   579A      3.586395  
     580A      3.613610   581A      3.619009   582A      3.624300  
     583A      3.634965   584A      3.646416   585A      3.653311  
     586A      3.661612   587A      3.678131   588A      3.688421  
     589A      3.697196   590A      3.701992   591A      3.704561  
     592A      3.708286   593A      3.720123   594A      3.722490  
     595A      3.756054   596A      3.760892   597A      3.761512  
     598A      3.771651   599A      3.781015   600A      3.784201  
     601A      3.798868   602A      3.802354   603A      3.814418  
     604A      3.820854   605A      3.835315   606A      3.838489  
     607A      3.854076   608A      3.858182   609A      3.866012  
     610A      3.874329   611A      3.881737   612A      3.882255  
     613A      3.889028   614A      3.897845   615A      3.905006  
     616A      3.923007   617A      3.934327   618A      3.946593  
     619A      3.956169   620A      3.956937   621A      3.964943  
     622A      3.975890   623A      3.987405   624A      4.003679  
     625A      4.005677   626A      4.018913   627A      4.030361  
     628A      4.032964   629A      4.036888   630A      4.048574  
     631A      4.051030   632A      4.063800   633A      4.069029  
     634A      4.074537   635A      4.096648   636A      4.104462  
     637A      4.109925   638A      4.115390   639A      4.130501  
     640A      4.140288   641A      4.153775   642A      4.162115  
     643A      4.176618   644A      4.183758   645A      4.191327  
     646A      4.198565   647A      4.204060   648A      4.215505  
     649A      4.224026   650A      4.230394   651A      4.235134  
     652A      4.239339   653A      4.252833   654A      4.255540  
     655A      4.267166   656A      4.274182   657A      4.277808  
     658A      4.288028   659A      4.296743   660A      4.307899  
     661A      4.310738   662A      4.324378   663A      4.333991  
     664A      4.343037   665A      4.345482   666A      4.360564  
     667A      4.368468   668A      4.372609   669A      4.382630  
     670A      4.393963   671A      4.404901   672A      4.411421  
     673A      4.424159   674A      4.430940   675A      4.437192  
     676A      4.456129   677A      4.472418   678A      4.476357  
     679A      4.493723   680A      4.509424   681A      4.521429  
     682A      4.554450   683A      4.576872   684A      4.578336  
     685A      4.588470   686A      4.600792   687A      4.617131  
     688A      4.626033   689A      4.640985   690A      4.644571  
     691A      4.648041   692A      4.674681   693A      4.688318  
     694A      4.700418   695A      4.720757   696A      4.725937  
     697A      4.741842   698A      4.747862   699A      4.766404  
     700A      4.769501   701A      4.806319   702A      4.814186  
     703A      4.824960   704A      4.835021   705A      4.836912  
     706A      4.841987   707A      4.856267   708A      4.864392  
     709A      4.878777   710A      4.901684   711A      4.918508  
     712A      4.925209   713A      4.926542   714A      4.939165  
     715A      4.950849   716A      4.954647   717A      4.970616  
     718A      4.984231   719A      4.997776   720A      5.005756  
     721A      5.009141   722A      5.022666   723A      5.025388  
     724A      5.044093   725A      5.049112   726A      5.062157  
     727A      5.087254   728A      5.093800   729A      5.112469  
     730A      5.121732   731A      5.139319   732A      5.152254  
     733A      5.170907   734A      5.184813   735A      5.196822  
     736A      5.203630   737A      5.209163   738A      5.217860  
     739A      5.236366   740A      5.265500   741A      5.287815  
     742A      5.295097   743A      5.306282   744A      5.323598  
     745A      5.341948   746A      5.352183   747A      5.357870  
     748A      5.380462   749A      5.390674   750A      5.408231  
     751A      5.433701   752A      5.451963   753A      5.472943  
     754A      5.506087   755A      5.526484   756A      5.551257  
     757A      5.574443   758A      5.587546   759A      5.603973  
     760A      5.611185   761A      5.629215   762A      5.660977  
     763A      5.681507   764A      5.698316   765A      5.724025  
     766A      5.731437   767A      5.774972   768A      5.807501  
     769A      5.840743   770A      5.872690   771A      5.933498  
     772A      5.943578   773A      5.984724   774A      5.986043  
     775A      6.020681   776A      6.024890   777A      6.102073  
     778A      6.125626   779A      6.164516   780A      6.207102  
     781A      6.229725   782A      6.263059   783A      6.301491  
     784A      6.340139   785A      6.378977   786A      6.389786  
     787A      6.409494   788A      6.470335   789A      6.481423  
     790A      6.526168   791A      6.570965   792A      6.647678  
     793A      6.658724   794A      6.748756   795A      6.780206  
     796A      6.797942   797A      6.803783   798A      6.832682  
     799A      6.860278   800A      6.904951   801A      6.949462  
     802A      6.974999   803A      6.981652   804A      7.109780  
     805A      7.164831   806A      7.324743   807A      7.335850  
     808A      7.456340   809A      7.541456   810A      7.591401  
     811A      7.609732   812A      7.657653   813A      7.914682  
     814A      8.292698   815A      8.543587   816A     16.005704  
     817A     16.220934   818A     16.475933   819A     16.613692  
     820A     16.894541   821A     18.772088   822A     19.123392  
     823A     19.355966   824A     19.714452   825A     19.873023  
     826A     20.195466   827A     20.238261   828A     21.859022  

    Final Occupation by Irrep:
              A 
    DOCC [    45 ]

  Energy converged.

  @DF-RHF Final Energy:  -551.67576781102002

   => Energetics <=

    Nuclear Repulsion Energy =            712.7197380784047027
    One-Electron Energy =               -2148.4365778561373190
    Two-Electron Energy =                 884.0410719667127069
    DFT Exchange-Correlation Energy =       0.0000000000000000
    Empirical Dispersion Energy =           0.0000000000000000
    PCM Polarization Energy =               0.0000000000000000
    EFP Energy =                            0.0000000000000000
    Total Energy =                       -551.6757678110200231



Properties will be evaluated at   0.000000,   0.000000,   0.000000 Bohr

Properties computed using the SCF density matrix

  Nuclear Dipole Moment: (a.u.)
     X:     2.9519      Y:    -1.5984      Z:    -0.9341

  Electronic Dipole Moment: (a.u.)
     X:     0.4329      Y:    -0.2217      Z:    -0.5806

  Dipole Moment: (a.u.)
     X:     3.3849      Y:    -1.8201      Z:    -1.5147     Total:     4.1309

  Dipole Moment: (Debye)
     X:     8.6035      Y:    -4.6262      Z:    -3.8500     Total:    10.4997


*** tstop() called on gpu-1-14.local at Sun Nov 12 07:09:38 2017
Module time:
	user time   =    1141.13 seconds =      19.02 minutes
	system time =      51.20 seconds =       0.85 minutes
	total time  =        511 seconds =       8.52 minutes
Total time:
	user time   =    1141.13 seconds =      19.02 minutes
	system time =      51.20 seconds =       0.85 minutes
	total time  =        511 seconds =       8.52 minutes

  //>>>>>>>>>>>>>>>>>>>>>>>>>>>>>>>>>>>//
  //               DFMP2               //
  //<<<<<<<<<<<<<<<<<<<<<<<<<<<<<<<<<<<//

   => Loading Basis Set <=

    Name: (AUG-CC-PVTZ AUX)
    Role: RIFIT
    Keyword: DF_BASIS_MP2
    atoms 1-11  entry C          line   147 file /cbio/jclab/home/chayas/anaconda/envs/py35/share/psi4/basis/aug-cc-pvtz-ri.gbs 
    atoms 12    entry N          line   205 file /cbio/jclab/home/chayas/anaconda/envs/py35/share/psi4/basis/aug-cc-pvtz-ri.gbs 
    atoms 13    entry O          line   263 file /cbio/jclab/home/chayas/anaconda/envs/py35/share/psi4/basis/aug-cc-pvtz-ri.gbs 
    atoms 14-23 entry H          line    29 file /cbio/jclab/home/chayas/anaconda/envs/py35/share/psi4/basis/aug-cc-pvtz-ri.gbs 

	 --------------------------------------------------------
	                          DF-MP2                         
	      2nd-Order Density-Fitted Moller-Plesset Theory     
	              RMP2 Wavefunction,   8 Threads             
	                                                         
	        Rob Parrish, Justin Turney, Andy Simmonett,      
	           Ed Hohenstein, and C. David Sherrill          
	 --------------------------------------------------------

   => Auxiliary Basis Set <=

  Basis Set: (AUG-CC-PVTZ AUX)
    Blend: AUG-CC-PVTZ-RI
    Number of shells: 504
    Number of basis function: 1838
    Number of Cartesian functions: 2318
    Spherical Harmonics?: true
    Max angular momentum: 4

	 --------------------------------------------------------
	                 NBF =   828, NAUX =  1838
	 --------------------------------------------------------
	   CLASS    FOCC     OCC    AOCC    AVIR     VIR    FVIR
	   PAIRS       0      45      45     783     783       0
	 --------------------------------------------------------


         ------------------------------------------------------------
                                     CPHF                           
                                  Rob Parrish                       
         ------------------------------------------------------------

  ==> Geometry <==

    Molecular point group: c1
    Full point group: C1

    Geometry (in Angstrom), charge = 1, multiplicity = 1:

       Center              X                  Y                   Z               Mass       
    ------------   -----------------  -----------------  -----------------  -----------------
           C         -1.271823097933     0.719771262229    -0.579223255650    12.000000000000
           C         -0.278823097933     0.103771262229     1.534776744350    12.000000000000
           C         -2.349823097933     1.292771262229     0.093776744350    12.000000000000
           C         -1.356823097933     0.676771262229     2.208776744350    12.000000000000
           C          2.183176902067    -0.227228737771    -0.124223255650    12.000000000000
           C          0.661176902067    -1.284228737771    -1.663223255650    12.000000000000
           C          3.236176902067    -0.810228737771    -0.813223255650    12.000000000000
           C          1.753176902067    -1.840228737771    -2.314223255650    12.000000000000
           C         -0.235823097933     0.124771262229     0.140776744350    12.000000000000
           C          0.883176902067    -0.469228737771    -0.557223255650    12.000000000000
           C         -2.392823097933     1.271771262229     1.487776744350    12.000000000000
           N          2.994176902067    -1.590228737771    -1.875223255650    14.003074004780
           O         -3.444823097933     1.831771262229     2.144776744350    15.994914619560
           H         -1.252823097933     0.743771262229    -1.666223255650     1.007825032070
           H          0.521176902067    -0.356228737771     2.110776744350     1.007825032070
           H         -3.153823097933     1.754771262229    -0.473223255650     1.007825032070
           H         -1.384823097933     0.657771262229     3.294776744350     1.007825032070
           H          2.385176902067     0.403771262229     0.736776744350     1.007825032070
           H         -0.342823097933    -1.490228737771    -2.024223255650     1.007825032070
           H          4.276176902067    -0.678228737771    -0.548223255650     1.007825032070
           H          1.676176902067    -2.484228737771    -3.179223255650     1.007825032070
           H          3.783176902067    -2.008228737771    -2.368223255650     1.007825032070
           H         -3.331823097933     1.737771262229     3.103776744350     1.007825032070

  Nuclear repulsion =  712.719738078404703
  Reference energy  = -551.675767811020023

  ==> Basis Set <==

  Basis Set: AUG-CC-PVTZ
    Blend: AUG-CC-PVTZ
    Number of shells: 272
    Number of basis function: 828
    Number of Cartesian functions: 965
    Spherical Harmonics?: true
    Max angular momentum: 3

  ==> CGRSolver (by Rob Parrish) <==

   Number of roots    =         1
   Preconditioning    =    JACOBI
   Convergence cutoff =     1E-06
   Maximum iterations =       100

  ==> CPHFRHamiltonian (by Rob Parrish) <== 

  ==> DFJK: Density-Fitted J/K Matrices <==

    J tasked:                  Yes
    K tasked:                  Yes
    wK tasked:                  No
    OpenMP threads:              8
    Integrals threads:           8
    Memory (MB):              3576
    Algorithm:                Disk
    Integral Cache:           NONE
    Schwarz Cutoff:          1E-12
    Fitting Condition:       1E-12

   => Auxiliary Basis Set <=

  Basis Set: (AUG-CC-PVTZ AUX)
    Blend: AUG-CC-PVTZ-JKFIT
    Number of shells: 530
    Number of basis function: 1812
    Number of Cartesian functions: 2253
    Spherical Harmonics?: true
    Max angular momentum: 4

  ==> CPHF Iterations <==

  => Iterations <=

             Iter  Converged  Remaining    Residual
  CGR           1          0          1   1.093E-01
  CGR           2          0          1   4.934E-02
  CGR           3          0          1   2.877E-02
  CGR           4          0          1   9.181E-03
  CGR           5          0          1   4.068E-03
  CGR           6          0          1   2.018E-03
  CGR           7          0          1   6.339E-04
  CGR           8          0          1   2.572E-04
  CGR           9          0          1   1.252E-04
  CGR          10          0          1   4.458E-05
  CGR          11          0          1   1.503E-05
  CGR          12          0          1   5.540E-06
  CGR          13          0          1   1.757E-06
  CGR          14          1          0   5.814E-07

    CGRSolver converged.

  ==> DFCorrGrad: Density-Fitted Correlated Gradients <==

    OpenMP threads:              8
    Integrals threads:           8
    Memory (MB):              3576
    Schwarz Cutoff:          0E+00
    Fitting Condition:       1E-12

   => Auxiliary Basis Set <=

  Basis Set: (AUG-CC-PVTZ AUX)
    Blend: AUG-CC-PVTZ-JKFIT
    Number of shells: 530
    Number of basis function: 1812
    Number of Cartesian functions: 2253
    Spherical Harmonics?: true
    Max angular momentum: 4

	-----------------------------------------------------------
	 ==================> DF-MP2 Energies <==================== 
	-----------------------------------------------------------
	 Reference Energy          =    -551.6757678110200231 [Eh]
	 Singles Energy            =      -0.0000000000000002 [Eh]
	 Same-Spin Energy          =      -0.5963948281033681 [Eh]
	 Opposite-Spin Energy      =      -1.8251076649841991 [Eh]
	 Correlation Energy        =      -2.4215024930875670 [Eh]
	 Total Energy              =    -554.0972703041076102 [Eh]
	-----------------------------------------------------------
	 ================> DF-SCS-MP2 Energies <================== 
	-----------------------------------------------------------
	 SCS Same-Spin Scale       =       0.3333333333333333 [-]
	 SCS Opposite-Spin Scale   =       1.2000000000000000 [-]
	 SCS Same-Spin Energy      =      -0.1987982760344560 [Eh]
	 SCS Opposite-Spin Energy  =      -2.1901291979810389 [Eh]
	 SCS Correlation Energy    =      -2.3889274740154951 [Eh]
	 SCS Total Energy          =    -554.0646952850355547 [Eh]
	-----------------------------------------------------------


  -Total Gradient:
     Atom            X                  Y                   Z
    ------   -----------------  -----------------  -----------------
       1        0.012417638823    -0.000323406397    -0.005410611094
       2        0.004478247210    -0.008632724381    -0.008712855356
       3       -0.000002138567    -0.000460570482     0.006360236891
       4       -0.010457830051     0.005965162823     0.006358699057
       5       -0.015178855441     0.010118729888     0.005710336247
       6       -0.013871121720     0.005449649038     0.012773674137
       7       -0.002061497995    -0.006685089112    -0.011235156475
       8        0.012429536510     0.000870369483     0.004098870851
       9       -0.000001139297    -0.000005017421    -0.000457448595
      10        0.011108133599    -0.005593697510    -0.006880328875
      11        0.002288905229    -0.000927506877    -0.014326493778
      12       -0.000897142439     0.000536843339     0.000797082746
      13       -0.004717922499     0.002304002002     0.008525115414
      14       -0.000651534790    -0.000830097862    -0.005220205927
      15        0.004027430699    -0.001007582045     0.003417380731
      16       -0.003434375568     0.001365243154    -0.005014326049
      17        0.000509844789     0.000264243272     0.004427327507
      18        0.001068091176     0.002750338317     0.005844806525
      19       -0.005940825365    -0.000321698812    -0.002969171382
      20        0.002823499493    -0.000885829894    -0.000095994098
      21        0.001255079687    -0.001252128464    -0.002264537918
      22        0.005213534531    -0.002759761554    -0.003308513611
      23       -0.000405558022     0.000060529496     0.007582113058


*** tstop() called on gpu-1-14.local at Sun Nov 12 07:45:36 2017
Module time:
	user time   =    5430.23 seconds =      90.50 minutes
	system time =     108.23 seconds =       1.80 minutes
	total time  =       2669 seconds =      44.48 minutes
Total time:
	user time   =    5430.23 seconds =      90.50 minutes
	system time =     108.23 seconds =       1.80 minutes
	total time  =       2669 seconds =      44.48 minutes

			-----------------------------------------
			 OPTKING 2.0: for geometry optimizations 
			  - R.A. King,  Bethel University        
			-----------------------------------------

	Internal coordinates to be generated automatically.
	Detected frag 1 with atoms:  1 2 3 4 5 6 7 8 9 10 11 12 13 14 15 16 17 18 19 20
	 21 22 23
	---Fragment 1 Bond Connectivity---
	 1 : 3 9 14
	 2 : 4 9 15
	 3 : 1 11 16
	 4 : 2 11 17
	 5 : 7 10 18
	 6 : 8 10 19
	 7 : 5 12 20
	 8 : 6 12 21
	 9 : 1 2 10
	 10 : 5 6 9
	 11 : 3 4 13
	 12 : 7 8 22
	 13 : 11 23
	 14 : 1
	 15 : 2
	 16 : 3
	 17 : 4
	 18 : 5
	 19 : 6
	 20 : 7
	 21 : 8
	 22 : 12
	 23 : 13

	Assuming in current code that numbering for constraints corresponds to unified fragment.
	Fixed dihedral atom list: 
	     1     9    10     5
	---Fragment 1 Geometry and Gradient---
	 C          -2.4033973446        1.3601705639       -1.0945733230
	 C          -0.5268992946        0.1960992661        2.9003077219
	 C          -4.4405221158        2.4429836381        0.1772123645
	 C          -2.5640240659        1.2789123402        4.1739831355
	 C           4.1256064445       -0.4294000839       -0.2347479325
	 C           1.2494432703       -2.4268406064       -3.1430364510
	 C           6.1154880625       -1.5311104194       -1.5367692381
	 C           3.3130242074       -3.4775283363       -4.3732481635
	 C          -0.4456410709        0.2357835149        0.2660294927
	 C           1.6689624718       -0.8867138081       -1.0529993481
	 C          -4.5217803395        2.4032993893        2.8114905937
	 N           5.6581743383       -3.0050968030       -3.5436583912
	 O          -6.5097722313        3.4615460237        4.0530406630
	 H          -2.3674925480        1.4055239911       -3.1487056294
	 H           0.9848816117       -0.6731747551        3.9887899745
	 H          -5.9598619267        3.3160371115       -0.8942623529
	 H          -2.6169363976        1.2430075437        6.2262257158
	 H           4.5073311234        0.7630171059        1.3923062679
	 H          -0.6478417671       -2.8161241897       -3.8252275850
	 H           8.0808032407       -1.2816665698       -1.0359918129
	 H           3.1675152952       -4.6945119658       -6.0078612685
	 H           7.1491682572       -3.7950023266       -4.4752933747
	 H          -6.2962331783        3.2839117672        5.8652880244
	             0.0124176388       -0.0003234064       -0.0054106111
	             0.0044782472       -0.0086327244       -0.0087128554
	            -0.0000021386       -0.0004605705        0.0063602369
	            -0.0104578301        0.0059651628        0.0063586991
	            -0.0151788554        0.0101187299        0.0057103362
	            -0.0138711217        0.0054496490        0.0127736741
	            -0.0020614980       -0.0066850891       -0.0112351565
	             0.0124295365        0.0008703695        0.0040988709
	            -0.0000011393       -0.0000050174       -0.0004574486
	             0.0111081336       -0.0055936975       -0.0068803289
	             0.0022889052       -0.0009275069       -0.0143264938
	            -0.0008971424        0.0005368433        0.0007970827
	            -0.0047179225        0.0023040020        0.0085251154
	            -0.0006515348       -0.0008300979       -0.0052202059
	             0.0040274307       -0.0010075820        0.0034173807
	            -0.0034343756        0.0013652432       -0.0050143260
	             0.0005098448        0.0002642433        0.0044273275
	             0.0010680912        0.0027503383        0.0058448065
	            -0.0059408254       -0.0003216988       -0.0029691714
	             0.0028234995       -0.0008858299       -0.0000959941
	             0.0012550797       -0.0012521285       -0.0022645379
	             0.0052135345       -0.0027597616       -0.0033085136
	            -0.0004055580        0.0000605295        0.0075821131

	Previous optimization step data not found.  Starting new optimization.

	---Fragment 1 Intrafragment Coordinates---
	 - Coordinate -           - BOHR/RAD -       - ANG/DEG -
	 R(1,3)           =         2.634350	       1.394038
	 R(1,9)           =         2.635962	       1.394891
	 R(1,14)          =         2.054947	       1.087431
	 R(2,4)           =         2.635263	       1.394521
	 R(2,9)           =         2.635830	       1.394821
	 R(2,15)          =         2.055702	       1.087831
	 R(3,11)          =         2.635830	       1.394821
	 R(3,16)          =         2.053941	       1.086899
	 R(4,11)          =         2.636938	       1.395407
	 R(4,17)          =         2.053239	       1.086527
	 R(5,7)           =         2.620812	       1.386874
	 R(5,10)          =         2.629405	       1.391421
	 R(5,18)          =         2.053017	       1.086410
	 R(6,8)           =         2.622162	       1.387588
	 R(6,10)          =         2.629875	       1.391670
	 R(6,19)          =         2.053440	       1.086634
	 R(7,12)          =         2.531675	       1.339704
	 R(7,20)          =         2.043395	       1.081318
	 R(8,12)          =         2.532023	       1.339889
	 R(8,21)          =         2.043081	       1.081152
	 R(9,10)          =         2.733384	       1.446444
	 R(11,13)         =         2.571662	       1.360865
	 R(12,22)         =         1.927422	       1.019948
	 R(13,23)         =         1.833410	       0.970199
	 B(1,3,11)        =         2.094553	     120.009056
	 B(1,3,16)        =         2.088505	     119.662516
	 B(1,9,2)         =         2.093692	     119.959722
	 B(1,9,10)        =         2.095161	     120.043881
	 B(2,4,11)        =         2.093699	     119.960108
	 B(2,4,17)        =         2.089577	     119.723926
	 B(2,9,10)        =         2.094332	     119.996376
	 B(3,1,9)         =         2.094940	     120.031219
	 B(3,1,14)        =         2.079469	     119.144799
	 B(3,11,4)        =         2.094306	     119.994870
	 B(3,11,13)       =         2.094549	     120.008801
	 B(4,2,9)         =         2.095181	     120.045019
	 B(4,2,15)        =         2.078675	     119.099297
	 B(4,11,13)       =         2.094331	     119.996326
	 B(5,7,12)        =         2.096031	     120.093746
	 B(5,7,20)        =         2.161785	     123.861136
	 B(5,10,6)        =         2.092326	     119.881463
	 B(5,10,9)        =         2.095779	     120.079300
	 B(6,8,12)        =         2.094877	     120.027620
	 B(6,8,21)        =         2.162759	     123.916988
	 B(6,10,9)        =         2.095080	     120.039236
	 B(7,5,10)        =         2.073347	     118.794056
	 B(7,5,18)        =         2.090598	     119.782420
	 B(7,12,8)        =         2.136086	     122.388714
	 B(7,12,22)       =         2.073773	     118.818464
	 B(8,6,10)        =         2.073702	     118.814374
	 B(8,6,19)        =         2.088982	     119.689865
	 B(8,12,22)       =         2.073325	     118.792788
	 B(9,1,14)        =         2.108776	     120.823969
	 B(9,2,15)        =         2.109330	     120.855683
	 B(10,5,18)       =         2.119240	     121.423493
	 B(10,6,19)       =         2.120500	     121.495695
	 B(11,3,16)       =         2.100127	     120.328425
	 B(11,4,17)       =         2.099910	     120.315955
	 B(11,13,23)      =         1.925489	     110.322421
	 B(12,7,20)       =         2.025369	     116.045116
	 B(12,8,21)       =         2.025548	     116.055336
	 D(1,3,11,4)      =        -0.000325	      -0.018609
	 D(1,3,11,13)     =         3.140978	     179.964785
	 D(1,9,2,4)       =         0.000325	       0.018608
	 D(1,9,2,15)      =        -3.141497	    -179.994534
	 D(1,9,10,5)      =         2.355721	     134.972862
	 D(1,9,10,6)      =        -0.786093	     -45.039815
	 D(2,4,11,3)      =         0.000301	       0.017261
	 D(2,4,11,13)     =        -3.141002	    -179.966135
	 D(2,9,1,3)       =        -0.000348	      -0.019945
	 D(2,9,1,14)      =        -3.141221	    -179.978731
	 D(2,9,10,5)      =        -0.784955	     -44.974635
	 D(2,9,10,6)      =         2.356416	     135.012688
	 D(3,1,9,10)      =        -3.141025	    -179.967461
	 D(3,11,4,17)     =         3.141223	     179.978848
	 D(3,11,13,23)    =         3.140828	     179.956172
	 D(4,2,9,10)      =         3.141002	     179.966149
	 D(4,11,3,16)     =         3.141593	     180.000000
	 D(4,11,13,23)    =        -0.001055	      -0.060434
	 D(5,7,12,8)      =        -0.000095	      -0.005448
	 D(5,7,12,22)     =         3.140327	     179.927499
	 D(5,10,6,8)      =        -0.000918	      -0.052623
	 D(5,10,6,19)     =        -3.140875	    -179.958885
	 D(6,8,12,7)      =        -0.000581	      -0.033310
	 D(6,8,12,22)     =        -3.141004	    -179.966274
	 D(6,10,5,7)      =         0.000267	       0.015291
	 D(6,10,5,18)     =        -3.140206	    -179.920573
	 D(7,5,10,9)      =        -3.141547	    -179.997365
	 D(7,12,8,21)     =        -3.140716	    -179.949797
	 D(8,6,10,9)      =         3.140895	     179.960028
	 D(8,12,7,20)     =         3.141226	     179.978972
	 D(9,1,3,11)      =         0.000348	       0.019955
	 D(9,1,3,16)      =        -3.141571	    -179.998735
	 D(9,2,4,11)      =        -0.000301	      -0.017270
	 D(9,2,4,17)      =        -3.141228	    -179.979086
	 D(9,10,5,18)     =         0.001165	       0.066771
	 D(9,10,6,19)     =         0.000938	       0.053766
	 D(10,5,7,12)     =         0.000250	       0.014297
	 D(10,5,7,20)     =        -3.141049	    -179.968845
	 D(10,6,8,12)     =         0.001078	       0.061738
	 D(10,6,8,21)     =         3.141092	     179.971328
	 D(10,9,1,14)     =         0.001287	       0.073752
	 D(10,9,2,15)     =        -0.000820	      -0.046992
	 D(11,3,1,14)     =         3.141234	     179.979432
	 D(11,4,2,15)     =         3.141517	     179.995641
	 D(12,7,5,18)     =         3.140742	     179.951239
	 D(12,8,6,19)     =         3.141064	     179.969731
	 D(13,11,3,16)    =        -0.000286	      -0.016400
	 D(13,11,4,17)    =        -0.000079	      -0.004548
	 D(14,1,3,16)     =        -0.000685	      -0.039257
	 D(15,2,4,17)     =         0.000590	       0.033826
	 D(18,5,7,20)     =        -0.000557	      -0.031904
	 D(19,6,8,21)     =        -0.002106	      -0.120679
	 D(20,7,12,22)    =        -0.001537	      -0.088082
	 D(21,8,12,22)    =         0.002046	       0.117240

	Current energy   :      -554.0972703041

	Generating empirical Hessian (Schlegel '84) for each fragment.
	Adding user-defined constraint: Fragment 1; Coordinate 66:
		Value =     2.355721; Fixed value    =     2.356194
		Force =     0.000237; Force constant =     0.500000
	Removing off-diagonal coupling between coordinate 66 and others.
	Taking RFO optimization step.
	Going to follow RFO solution 1.
	Using RFO vector 1.

	Determining step-restricting scale parameter for RS-RFO.
	Maximum step size allowed    0.10000

	 Iter      |step|        alpha        rfo_root  
	------------------------------------------------
	    0     0.22942       1.00000           1
	    1     0.16478       4.13471           1
	    2     0.13013      10.30600           1
	    3     0.11046      19.80994           1
	    4     0.10176      27.16863           1
	    5     0.10006      28.93559           1
	    6     0.10000      29.00086           1
	------------------------------------------------
	Norm of target step-size    0.10000
	Projected energy change by RFO approximation:        -0.0044091949

	Back-transformation to cartesian coordinates...
	Could not converge backtransformation.
	Using first guess instead.

	--- Internal Coordinate Step in ANG or DEG, aJ/ANG or AJ/DEG ---
	 ---------------------------------------------------------------------------
	   Coordinate                Previous        Force       Change         New 
	   ----------                --------       ------       ------       ------
	    1 R(1,3)          =      1.394038    -0.093768    -0.010341     1.383697
	    2 R(1,9)          =      1.394891     0.004587     0.000612     1.395503
	    3 R(1,14)         =      1.087431    -0.042746    -0.005840     1.081591
	    4 R(2,4)          =      1.394521    -0.093927    -0.010268     1.384253
	    5 R(2,9)          =      1.394821    -0.005470    -0.000442     1.394379
	    6 R(2,15)         =      1.087831    -0.042819    -0.005857     1.081974
	    7 R(3,11)         =      1.394821    -0.055730    -0.006249     1.388572
	    8 R(3,16)         =      1.086899    -0.047262    -0.006406     1.080492
	    9 R(4,11)         =      1.395407    -0.007079    -0.000847     1.394561
	   10 R(4,17)         =      1.086527    -0.036311    -0.004949     1.081578
	   11 R(5,7)          =      1.386874    -0.099551    -0.010658     1.376215
	   12 R(5,10)         =      1.391421     0.048300     0.005393     1.396814
	   13 R(5,18)         =      1.086410    -0.052960    -0.007207     1.079202
	   14 R(6,8)          =      1.387588    -0.103989    -0.011161     1.376427
	   15 R(6,10)         =      1.391670     0.046395     0.005154     1.396824
	   16 R(6,19)         =      1.086634    -0.053852    -0.007344     1.079289
	   17 R(7,12)         =      1.339704     0.024021     0.002292     1.341996
	   18 R(7,20)         =      1.081318    -0.021289    -0.002857     1.078461
	   19 R(8,12)         =      1.339889     0.023534     0.002181     1.342070
	   20 R(8,21)         =      1.081152    -0.020335    -0.002692     1.078461
	   21 R(9,10)         =      1.446444     0.043185     0.005487     1.451931
	   22 R(11,13)        =      1.360865    -0.104714    -0.009585     1.351279
	   23 R(12,22)        =      1.019948    -0.055720    -0.006350     1.013598
	   24 R(13,23)        =      0.970199    -0.061308    -0.005739     0.964460
	   25 B(1,3,11)       =    120.009056    -0.000067    -0.189684   119.819372
	   26 B(1,3,16)       =    119.662516     0.000217     0.594197   120.256713
	   27 B(1,9,2)        =    119.959722    -0.000256    -0.494443   119.465279
	   28 B(1,9,10)       =    120.043881     0.000122     0.234678   120.278559
	   29 B(2,4,11)       =    119.960108     0.000051     0.104623   120.064731
	   30 B(2,4,17)       =    119.723926     0.000004     0.028111   119.752037
	   31 B(2,9,10)       =    119.996376     0.000135     0.258950   120.255326
	   32 B(3,1,9)        =    120.031219     0.000208     0.458465   120.489684
	   33 B(3,1,14)       =    119.144799    -0.000089    -0.189923   118.954876
	   34 B(3,11,4)       =    119.994870     0.000050     0.062840   120.057710
	   35 B(3,11,13)      =    120.008801    -0.001034    -2.106247   117.902555
	   36 B(4,2,9)        =    120.045019     0.000014     0.057030   120.102049
	   37 B(4,2,15)       =    119.099297     0.000052     0.129164   119.228461
	   38 B(4,11,13)      =    119.996326     0.000984     2.043398   122.039724
	   39 B(5,7,12)       =    120.093746    -0.000281    -0.640081   119.453665
	   40 B(5,7,20)       =    123.861136     0.000035     0.037168   123.898304
	   41 B(5,10,6)       =    119.881463    -0.000612    -1.259895   118.621568
	   42 B(5,10,9)       =    120.079300     0.000317     0.650882   120.730181
	   43 B(6,8,12)       =    120.027620    -0.000256    -0.598192   119.429427
	   44 B(6,8,21)       =    123.916988     0.000018     0.002961   123.919949
	   45 B(6,10,9)       =    120.039236     0.000296     0.608356   120.647591
	   46 B(7,5,10)       =    118.794056     0.000443     0.971109   119.765165
	   47 B(7,5,18)       =    119.782420    -0.000227    -0.503469   119.278951
	   48 B(7,12,8)       =    122.388714     0.000264     0.564326   122.953040
	   49 B(7,12,22)      =    118.818464    -0.000134    -0.286346   118.532118
	   50 B(8,6,10)       =    118.814374     0.000442     0.962595   119.776969
	   51 B(8,6,19)       =    119.689865    -0.000213    -0.463233   119.226632
	   52 B(8,12,22)      =    118.792788    -0.000130    -0.278018   118.514771
	   53 B(9,1,14)       =    120.823969    -0.000119    -0.269561   120.554408
	   54 B(9,2,15)       =    120.855683    -0.000065    -0.187910   120.667773
	   55 B(10,5,18)      =    121.423493    -0.000216    -0.467813   120.955680
	   56 B(10,6,19)      =    121.495695    -0.000228    -0.499464   120.996231
	   57 B(11,3,16)      =    120.328425    -0.000150    -0.404519   119.923906
	   58 B(11,4,17)      =    120.315955    -0.000055    -0.132746   120.183209
	   59 B(11,13,23)     =    110.322421    -0.000210    -0.574045   109.748376
	   60 B(12,7,20)      =    116.045116     0.000246     0.602612   116.647728
	   61 B(12,8,21)      =    116.055336     0.000238     0.594871   116.650207
	   62 D(1,3,11,4)     =     -0.018609     0.000007     0.170052     0.151443
	   63 D(1,3,11,13)    =    179.964785     0.000007     0.148744   180.113530
	   64 D(1,9,2,4)      =      0.018608     0.000009     0.291491     0.310098
	   65 D(1,9,2,15)     =   -179.994534    -0.000010    -0.175655  -180.170189
	   66 D(1,9,10,5)     =    134.972862     0.000027     0.272671   135.245533
	   67 D(1,9,10,6)     =    -45.039815     0.000033     0.584809   -44.455006
	   68 D(2,4,11,3)     =      0.017261     0.000006     0.124068     0.141330
	   69 D(2,4,11,13)    =   -179.966135     0.000006     0.146991  -179.819144
	   70 D(2,9,1,3)      =     -0.019945     0.000003     0.003208    -0.016737
	   71 D(2,9,1,14)     =   -179.978731    -0.000015    -0.411386  -180.390117
	   72 D(2,9,10,5)     =    -44.974635     0.000032     0.554516   -44.420119
	   73 D(2,9,10,6)     =    135.012688     0.000039     0.866653   135.879342
	   74 D(3,1,9,10)     =   -179.967461     0.000008     0.282436  -179.685025
	   75 D(3,11,4,17)    =    179.978848     0.000005     0.106611   180.085459
	   76 D(3,11,13,23)   =    179.956172    -0.000001    -0.019948   179.936224
	   77 D(4,2,9,10)     =    179.966149     0.000004     0.012316   179.978465
	   78 D(4,11,3,16)    =    180.000000     0.000007     0.184676   180.184676
	   79 D(4,11,13,23)   =     -0.060434    -0.000001    -0.042053    -0.102487
	   80 D(5,7,12,8)     =     -0.005448    -0.000001    -0.002695    -0.008144
	   81 D(5,7,12,22)    =    179.927499    -0.000001    -0.034069   179.893430
	   82 D(5,10,6,8)     =     -0.052623     0.000002     0.105837     0.053214
	   83 D(5,10,6,19)    =   -179.958885    -0.000008    -0.138466  -180.097351
	   84 D(6,8,12,7)     =     -0.033310    -0.000001    -0.045676    -0.078986
	   85 D(6,8,12,22)    =   -179.966274    -0.000001    -0.014302  -179.980576
	   86 D(6,10,5,7)     =      0.015291    -0.000004    -0.154311    -0.139020
	   87 D(6,10,5,18)    =   -179.920573    -0.000014    -0.384072  -180.304645
	   88 D(7,5,10,9)     =   -179.997365     0.000003     0.151841  -179.845524
	   89 D(7,12,8,21)    =   -179.949797     0.000005     0.096600  -179.853197
	   90 D(8,6,10,9)     =    179.960028    -0.000005    -0.200060   179.759968
	   91 D(8,12,7,20)    =    179.978972     0.000008     0.205411   180.184383
	   92 D(9,1,3,11)     =      0.019955    -0.000011    -0.233091    -0.213137
	   93 D(9,1,3,16)     =   -179.998735    -0.000011    -0.247747  -180.246482
	   94 D(9,2,4,11)     =     -0.017270    -0.000014    -0.355236    -0.372506
	   95 D(9,2,4,17)     =   -179.979086    -0.000013    -0.337792  -180.316878
	   96 D(9,10,5,18)    =      0.066771    -0.000007    -0.077920    -0.011149
	   97 D(9,10,6,19)    =      0.053766    -0.000015    -0.444362    -0.390596
	   98 D(10,5,7,12)    =      0.014297     0.000003     0.104038     0.118335
	   99 D(10,5,7,20)    =   -179.968845    -0.000006    -0.120133  -180.088978
	  100 D(10,6,8,12)    =      0.061738     0.000001    -0.007703     0.054035
	  101 D(10,6,8,21)    =    179.971328    -0.000006    -0.160482   179.810846
	  102 D(10,9,1,14)    =      0.073752    -0.000009    -0.132158    -0.058406
	  103 D(10,9,2,15)    =     -0.046992    -0.000015    -0.454829    -0.501822
	  104 D(11,3,1,14)    =    179.979432     0.000006     0.174900   180.154332
	  105 D(11,4,2,15)    =    179.995641     0.000005     0.105238   180.100879
	  106 D(12,7,5,18)    =    179.951239     0.000013     0.329933   180.281172
	  107 D(12,8,6,19)    =    179.969731     0.000011     0.232195   180.201926
	  108 D(13,11,3,16)   =     -0.016400     0.000007     0.163162     0.146763
	  109 D(13,11,4,17)   =     -0.004548     0.000005     0.129533     0.124986
	  110 D(14,1,3,16)    =     -0.039257     0.000006     0.160244     0.120987
	  111 D(15,2,4,17)    =      0.033826     0.000006     0.122682     0.156508
	  112 D(18,5,7,20)    =     -0.031904     0.000004     0.105762     0.073859
	  113 D(19,6,8,21)    =     -0.120679     0.000004     0.079417    -0.041262
	  114 D(20,7,12,22)   =     -0.088082     0.000007     0.174038     0.085956
	  115 D(21,8,12,22)   =      0.117240     0.000006     0.127974     0.245214
	 ---------------------------------------------------------------------------
	Successfully symmetrized geometry.
	 Forces used to impose fixed constraints are not included.
	  Forces zeroed: 66 

  ==> Convergence Check <==

  Measures of convergence in internal coordinates in au.
  Criteria marked as inactive (o), active & met (*), and active & unmet ( ).
  --------------------------------------------------------------------------------------------- ~
   Step     Total Energy     Delta E     MAX Force     RMS Force      MAX Disp      RMS Disp    ~
  --------------------------------------------------------------------------------------------- ~
    Convergence Criteria    1.00e-06 *    3.00e-04 *             o    1.20e-03 *             o  ~
  --------------------------------------------------------------------------------------------- ~
      1    -554.09727030   -5.54e+02      1.36e-02      4.04e-03 o    3.68e-02      9.31e-03 o  ~
  ---------------------------------------------------------------------------------------------

	Writing optimization data to binary file.
	Structure for next step:
	Cartesian Geometry (in Angstrom)
	    C    -1.2816939387   0.7140961721  -0.5593672840
	    C    -0.2797587435   0.1087885191   1.5467607860
	    C    -2.3500108339   1.2876918498   0.1071947063
	    C    -1.3508861576   0.6768954424   2.2146656937
	    C     2.1944276985  -0.2417390188  -0.1292508834
	    C     0.6735834378  -1.2857217485  -1.6682705042
	    C     3.2433641742  -0.8127073854  -0.8131339620
	    C     1.7506972598  -1.8361741062  -2.3250657349
	    C    -0.2388944300   0.1203863790   0.1530284992
	    C     0.8832129924  -0.4741188859  -0.5509199690
	    C    -2.3882603786   1.2692675418   1.4951171852
	    N     2.9921513652  -1.5857583903  -1.8809529744
	    O    -3.4506760906   1.8384718320   2.1060472540
	    H    -1.2649306354   0.7385944823  -1.6405506663
	    H     0.5168848076  -0.3486064160   2.1184391706
	    H    -3.1534617064   1.7498765125  -0.4480671787
	    H    -1.3792778960   0.6601789739   3.2957414079
	    H     2.3999001211   0.3831364617   0.7263127350
	    H    -0.3235072224  -1.4919270137  -2.0262584859
	    H     4.2796896314  -0.6771869093  -0.5471592252
	    H     1.6660635984  -2.4735281175  -3.1909145476
	    H     3.7752081352  -1.9979326309  -2.3752360128
	    H    -3.3577564409   1.7587554872   3.0627051105
			--------------------------
			 OPTKING Finished Execution 
			--------------------------

    Structure for next step:
    Molecular point group: c1
    Full point group: C1

    Geometry (in Angstrom), charge = 1, multiplicity = 1:

    C           -1.282617661330     0.715207575236    -0.559152358624
    C           -0.280682466080     0.109899922236     1.546975711391
    C           -2.350934556525     1.288803252934     0.107409631614
    C           -1.351809880203     0.678006845580     2.214880619044
    C            2.193503975831    -0.240627615616    -0.129035958050
    C            0.672659715131    -1.284610345376    -1.668055578865
    C            3.242440451540    -0.811595982264    -0.812919036685
    C            1.749773537169    -1.835062703021    -2.324850809556
    C           -0.239818152599     0.121497782099     0.153243424529
    C            0.882289269751    -0.473007482795    -0.550705043647
    C           -2.389184101246     1.270378944905     1.495332110584
    N            2.991227642545    -1.584646987163    -1.880738049015
    O           -3.451599813271     1.839583235179     2.106262179394
    H           -1.265854357977     0.739705885433    -1.640335740963
    H            0.515961085006    -0.347495012871     2.118654095973
    H           -3.154385429004     1.750987915644    -0.447852253318
    H           -1.380201618609     0.661290377084     3.295956333213
    H            2.398976398450     0.384247864875     0.726527660353
    H           -0.324430945006    -1.490815610537    -2.026043560580
    H            4.278765908767    -0.676075506149    -0.546944299861
    H            1.665139875818    -2.472416714318    -3.190699622264
    H            3.774284412564    -1.996821227767    -2.375021087441
    H           -3.358680163504     1.759866890351     3.062920035810

gradient() will perform analytic gradient computation.

*** tstart() called on gpu-1-14.local
*** at Sun Nov 12 07:45:38 2017

    SCF Algorithm Type (re)set to DF.

*** tstart() called on gpu-1-14.local
*** at Sun Nov 12 07:45:38 2017

   => Loading Basis Set <=

    Name: AUG-CC-PVTZ
    Role: ORBITAL
    Keyword: BASIS
    atoms 1-11  entry C          line   221 file /cbio/jclab/home/chayas/anaconda/envs/py35/share/psi4/basis/aug-cc-pvtz.gbs 
    atoms 12    entry N          line   267 file /cbio/jclab/home/chayas/anaconda/envs/py35/share/psi4/basis/aug-cc-pvtz.gbs 
    atoms 13    entry O          line   313 file /cbio/jclab/home/chayas/anaconda/envs/py35/share/psi4/basis/aug-cc-pvtz.gbs 
    atoms 14-23 entry H          line    34 file /cbio/jclab/home/chayas/anaconda/envs/py35/share/psi4/basis/aug-cc-pvtz.gbs 


         ---------------------------------------------------------
                                   SCF
            by Justin Turney, Rob Parrish, and Andy Simmonett
                              RHF Reference
                        8 Threads,   4768 MiB Core
         ---------------------------------------------------------

  ==> Geometry <==

    Molecular point group: c1
    Full point group: C1

    Geometry (in Angstrom), charge = 1, multiplicity = 1:

       Center              X                  Y                   Z               Mass       
    ------------   -----------------  -----------------  -----------------  -----------------
           C         -1.282617661330     0.715207575236    -0.559152358624    12.000000000000
           C         -0.280682466080     0.109899922236     1.546975711391    12.000000000000
           C         -2.350934556525     1.288803252934     0.107409631614    12.000000000000
           C         -1.351809880203     0.678006845580     2.214880619044    12.000000000000
           C          2.193503975831    -0.240627615616    -0.129035958050    12.000000000000
           C          0.672659715131    -1.284610345376    -1.668055578865    12.000000000000
           C          3.242440451540    -0.811595982264    -0.812919036685    12.000000000000
           C          1.749773537169    -1.835062703021    -2.324850809556    12.000000000000
           C         -0.239818152599     0.121497782099     0.153243424529    12.000000000000
           C          0.882289269751    -0.473007482795    -0.550705043647    12.000000000000
           C         -2.389184101246     1.270378944905     1.495332110584    12.000000000000
           N          2.991227642545    -1.584646987163    -1.880738049015    14.003074004780
           O         -3.451599813271     1.839583235179     2.106262179394    15.994914619560
           H         -1.265854357977     0.739705885433    -1.640335740963     1.007825032070
           H          0.515961085006    -0.347495012871     2.118654095973     1.007825032070
           H         -3.154385429004     1.750987915644    -0.447852253318     1.007825032070
           H         -1.380201618609     0.661290377084     3.295956333213     1.007825032070
           H          2.398976398450     0.384247864875     0.726527660353     1.007825032070
           H         -0.324430945006    -1.490815610537    -2.026043560580     1.007825032070
           H          4.278765908767    -0.676075506149    -0.546944299861     1.007825032070
           H          1.665139875818    -2.472416714318    -3.190699622264     1.007825032070
           H          3.774284412564    -1.996821227767    -2.375021087441     1.007825032070
           H         -3.358680163504     1.759866890351     3.062920035810     1.007825032070

  Running in c1 symmetry.

  Rotational constants: A =      0.09636  B =      0.01321  C =      0.01203 [cm^-1]
  Rotational constants: A =   2888.65467  B =    395.90560  C =    360.66065 [MHz]
  Nuclear repulsion =  713.502206989164165

  Charge       = 1
  Multiplicity = 1
  Electrons    = 90
  Nalpha       = 45
  Nbeta        = 45

  ==> Algorithm <==

  SCF Algorithm Type is DF.
  DIIS enabled.
  MOM disabled.
  Fractional occupation disabled.
  Guess Type is READ.
  Energy threshold   = 1.00e-10
  Density threshold  = 1.00e-10
  Integral threshold = 0.00e+00

  ==> Primary Basis <==

  Basis Set: AUG-CC-PVTZ
    Blend: AUG-CC-PVTZ
    Number of shells: 272
    Number of basis function: 828
    Number of Cartesian functions: 965
    Spherical Harmonics?: true
    Max angular momentum: 3

   => Loading Basis Set <=

    Name: (AUG-CC-PVTZ AUX)
    Role: JKFIT
    Keyword: DF_BASIS_SCF
    atoms 1-11  entry C          line   161 file /cbio/jclab/home/chayas/anaconda/envs/py35/share/psi4/basis/aug-cc-pvtz-jkfit.gbs 
    atoms 12    entry N          line   223 file /cbio/jclab/home/chayas/anaconda/envs/py35/share/psi4/basis/aug-cc-pvtz-jkfit.gbs 
    atoms 13    entry O          line   285 file /cbio/jclab/home/chayas/anaconda/envs/py35/share/psi4/basis/aug-cc-pvtz-jkfit.gbs 
    atoms 14-23 entry H          line    69 file /cbio/jclab/home/chayas/anaconda/envs/py35/share/psi4/basis/aug-cc-pvtz-jkfit.gbs 

  Reading orbitals from file 180, no projection.

  ==> Pre-Iterations <==

   -------------------------------------------------------
    Irrep   Nso     Nmo     Nalpha   Nbeta   Ndocc  Nsocc
   -------------------------------------------------------
     A        828     828       0       0       0       0
   -------------------------------------------------------
    Total     828     828      45      45      45       0
   -------------------------------------------------------

  ==> Integral Setup <==

  ==> DFJK: Density-Fitted J/K Matrices <==

    J tasked:                  Yes
    K tasked:                  Yes
    wK tasked:                  No
    OpenMP threads:              8
    Integrals threads:           8
    Memory (MB):              3576
    Algorithm:                Disk
    Integral Cache:           NONE
    Schwarz Cutoff:          1E-12
    Fitting Condition:       1E-12

   => Auxiliary Basis Set <=

  Basis Set: (AUG-CC-PVTZ AUX)
    Blend: AUG-CC-PVTZ-JKFIT
    Number of shells: 530
    Number of basis function: 1812
    Number of Cartesian functions: 2253
    Spherical Harmonics?: true
    Max angular momentum: 4

  Minimum eigenvalue in the overlap matrix is 5.3564571894E-07.
  Using Symmetric Orthogonalization.

  SCF Guess: Orbitals guess was supplied from a previous computation.

  ==> Iterations <==

                           Total Energy        Delta E     RMS |[F,P]|

   @DF-RHF iter   0:  -551.77078894350643   -5.51771e+02   3.16775e-04 
   @DF-RHF iter   1:  -551.67997763660355    9.08113e-02   6.86470e-05 
   @DF-RHF iter   2:  -551.68027601450194   -2.98378e-04   5.88329e-05 DIIS
   @DF-RHF iter   3:  -551.68045921784869   -1.83203e-04   1.12552e-05 DIIS
   @DF-RHF iter   4:  -551.68046703453513   -7.81669e-06   4.46426e-06 DIIS
   @DF-RHF iter   5:  -551.68046903067898   -1.99614e-06   1.16493e-06 DIIS
   @DF-RHF iter   6:  -551.68046937985252   -3.49174e-07   4.93523e-07 DIIS
   @DF-RHF iter   7:  -551.68046950179018   -1.21938e-07   2.58171e-07 DIIS
   @DF-RHF iter   8:  -551.68046954012277   -3.83326e-08   8.89295e-08 DIIS
   @DF-RHF iter   9:  -551.68046954503313   -4.91036e-09   3.59214e-08 DIIS
   @DF-RHF iter  10:  -551.68046954541012   -3.76986e-10   1.96614e-08 DIIS
   @DF-RHF iter  11:  -551.68046954546003   -4.99085e-11   5.41569e-09 DIIS
   @DF-RHF iter  12:  -551.68046954548947   -2.94449e-11   1.69810e-09 DIIS
   @DF-RHF iter  13:  -551.68046954547435    1.51203e-11   8.17509e-10 DIIS
   @DF-RHF iter  14:  -551.68046954548322   -8.86757e-12   3.83240e-10 DIIS
   @DF-RHF iter  15:  -551.68046954548936   -6.13909e-12   2.00097e-10 DIIS
   @DF-RHF iter  16:  -551.68046954547629    1.30740e-11   7.14307e-11 DIIS

  ==> Post-Iterations <==

    Orbital Energies (a.u.)
    -----------------------

    Doubly Occupied:                                                      

       1A    -20.701826     2A    -15.833956     3A    -11.483607  
       4A    -11.483507     5A    -11.448834     6A    -11.428724  
       7A    -11.413490     8A    -11.413273     9A    -11.375836  
      10A    -11.373331    11A    -11.370083    12A    -11.353542  
      13A    -11.347339    14A     -1.522453    15A     -1.511771  
      16A     -1.318742    17A     -1.265485    18A     -1.240916  
      19A     -1.154951    20A     -1.151500    21A     -1.066425  
      22A     -1.056631    23A     -0.976480    24A     -0.964359  
      25A     -0.949941    26A     -0.871759    27A     -0.860500  
      28A     -0.853891    29A     -0.820757    30A     -0.801668  
      31A     -0.786495    32A     -0.773994    33A     -0.754701  
      34A     -0.731065    35A     -0.719893    36A     -0.708333  
      37A     -0.705187    38A     -0.686545    39A     -0.654603  
      40A     -0.629106    41A     -0.617489    42A     -0.571337  
      43A     -0.540560    44A     -0.470039    45A     -0.436429  

    Virtual:                                                              

      46A     -0.104632    47A     -0.084787    48A     -0.062817  
      49A     -0.061549    50A     -0.058498    51A     -0.050920  
      52A     -0.042942    53A     -0.039256    54A     -0.036733  
      55A     -0.029722    56A     -0.023968    57A     -0.023638  
      58A     -0.015509    59A     -0.009575    60A     -0.005165  
      61A     -0.001739    62A      0.001152    63A      0.007540  
      64A      0.009319    65A      0.013228    66A      0.014951  
      67A      0.021036    68A      0.021317    69A      0.024836  
      70A      0.029811    71A      0.032397    72A      0.036806  
      73A      0.038179    74A      0.041846    75A      0.042771  
      76A      0.049194    77A      0.052033    78A      0.055297  
      79A      0.057835    80A      0.064722    81A      0.066129  
      82A      0.071600    83A      0.074719    84A      0.079568  
      85A      0.083598    86A      0.085277    87A      0.091256  
      88A      0.095329    89A      0.096850    90A      0.107763  
      91A      0.110710    92A      0.117229    93A      0.118239  
      94A      0.120981    95A      0.125838    96A      0.130473  
      97A      0.132979    98A      0.136750    99A      0.137587  
     100A      0.143815   101A      0.153739   102A      0.159172  
     103A      0.160744   104A      0.164419   105A      0.166061  
     106A      0.168635   107A      0.171892   108A      0.174702  
     109A      0.175581   110A      0.180110   111A      0.182424  
     112A      0.191747   113A      0.193717   114A      0.196525  
     115A      0.201421   116A      0.203026   117A      0.208941  
     118A      0.213847   119A      0.216375   120A      0.219165  
     121A      0.224720   122A      0.228000   123A      0.228735  
     124A      0.231353   125A      0.237573   126A      0.241366  
     127A      0.243164   128A      0.249338   129A      0.252779  
     130A      0.255465   131A      0.260217   132A      0.268372  
     133A      0.277891   134A      0.279928   135A      0.282251  
     136A      0.284663   137A      0.289370   138A      0.292019  
     139A      0.300245   140A      0.309863   141A      0.311169  
     142A      0.314325   143A      0.317110   144A      0.320290  
     145A      0.321432   146A      0.324489   147A      0.327011  
     148A      0.331179   149A      0.335737   150A      0.340681  
     151A      0.343153   152A      0.346629   153A      0.349077  
     154A      0.353224   155A      0.355080   156A      0.358003  
     157A      0.363109   158A      0.367719   159A      0.368126  
     160A      0.371566   161A      0.375750   162A      0.377249  
     163A      0.382312   164A      0.386217   165A      0.391059  
     166A      0.395284   167A      0.399683   168A      0.400202  
     169A      0.402942   170A      0.406394   171A      0.410982  
     172A      0.413469   173A      0.417442   174A      0.420044  
     175A      0.424599   176A      0.426186   177A      0.429743  
     178A      0.439218   179A      0.441733   180A      0.443783  
     181A      0.446090   182A      0.454402   183A      0.459621  
     184A      0.465483   185A      0.467678   186A      0.475265  
     187A      0.477768   188A      0.480562   189A      0.489658  
     190A      0.493997   191A      0.496658   192A      0.506252  
     193A      0.522090   194A      0.526042   195A      0.529693  
     196A      0.540730   197A      0.543435   198A      0.545626  
     199A      0.555349   200A      0.568083   201A      0.573599  
     202A      0.575172   203A      0.576640   204A      0.580892  
     205A      0.581883   206A      0.587498   207A      0.595260  
     208A      0.597983   209A      0.605307   210A      0.613700  
     211A      0.619138   212A      0.620186   213A      0.625615  
     214A      0.630397   215A      0.632148   216A      0.637427  
     217A      0.638793   218A      0.645043   219A      0.658951  
     220A      0.662523   221A      0.667838   222A      0.681988  
     223A      0.688084   224A      0.696647   225A      0.697548  
     226A      0.703209   227A      0.705770   228A      0.708641  
     229A      0.714205   230A      0.719928   231A      0.723381  
     232A      0.726947   233A      0.736567   234A      0.736946  
     235A      0.740656   236A      0.747240   237A      0.755135  
     238A      0.758815   239A      0.766852   240A      0.770939  
     241A      0.773877   242A      0.779401   243A      0.783634  
     244A      0.788455   245A      0.791701   246A      0.793142  
     247A      0.795794   248A      0.799309   249A      0.807858  
     250A      0.809110   251A      0.812534   252A      0.816202  
[...]
	 B(6,10,9)        =         2.115922	     121.233404
	 B(7,5,10)        =         2.105481	     120.635168
	 B(7,5,18)        =         2.074860	     118.880699
	 B(7,12,8)        =         2.141845	     122.718702
	 B(7,12,22)       =         2.070669	     118.640605
	 B(8,6,10)        =         2.105843	     120.655925
	 B(8,6,19)        =         2.074904	     118.883267
	 B(8,12,22)       =         2.070659	     118.640009
	 B(9,1,14)        =         2.097340	     120.168727
	 B(9,2,15)        =         2.097478	     120.176665
	 B(10,5,18)       =         2.102673	     120.474316
	 B(10,6,19)       =         2.102095	     120.441173
	 B(11,3,16)       =         2.073524	     118.804197
	 B(11,4,17)       =         2.095474	     120.061790
	 B(11,13,23)      =         1.929009	     110.524047
	 B(12,7,20)       =         2.040248	     116.897593
	 B(12,8,21)       =         2.040263	     116.898472
	 D(1,3,11,4)      =         0.016368	       0.937826
	 D(1,3,11,13)     =        -3.128471	    -179.248187
	 D(1,9,2,4)       =         0.039462	       2.260993
	 D(1,9,2,15)      =         3.129446	     179.304054
	 D(1,9,10,5)      =         2.365706	     135.544996
	 D(1,9,10,6)      =        -0.713718	     -40.893033
	 D(2,4,11,3)      =         0.006440	       0.368962
	 D(2,4,11,13)     =        -3.131681	    -179.432090
	 D(2,9,1,3)       =        -0.016505	      -0.945669
	 D(2,9,1,14)      =         3.088408	     176.952738
	 D(2,9,10,5)      =        -0.698388	     -40.014659
	 D(2,9,10,6)      =         2.505373	     143.547312
	 D(3,1,9,10)      =        -3.081762	    -176.571984
	 D(3,11,4,17)     =        -3.134790	    -179.610230
	 D(3,11,13,23)    =        -3.138639	    -179.830775
	 D(4,2,9,10)      =         3.104453	     177.872032
	 D(4,11,3,16)     =        -3.115689	    -178.515806
	 D(4,11,13,23)    =        -0.000415	      -0.023801
	 D(5,7,12,8)      =         0.001238	       0.070944
	 D(5,7,12,22)     =         3.137503	     179.765699
	 D(5,10,6,8)      =         0.020498	       1.174438
	 D(5,10,6,19)     =         3.133645	     179.544645
	 D(6,8,12,7)      =        -0.005130	      -0.293926
	 D(6,8,12,22)     =        -3.141395	    -179.988683
	 D(6,10,5,7)      =        -0.024382	      -1.397011
	 D(6,10,5,18)     =         3.097096	     177.450504
	 D(7,5,10,9)      =        -3.106152	    -177.969412
	 D(7,12,8,21)     =        -3.137054	    -179.739957
	 D(8,6,10,9)      =         3.102352	     177.751665
	 D(8,12,7,20)     =        -3.120774	    -178.807179
	 D(9,1,3,11)      =        -0.011157	      -0.639257
	 D(9,1,3,16)      =         3.120665	     178.800945
	 D(9,2,4,11)      =        -0.034551	      -1.979649
	 D(9,2,4,17)      =         3.106678	     177.999557
	 D(9,10,5,18)     =         0.015326	       0.878103
	 D(9,10,6,19)     =        -0.067686	      -3.878128
	 D(10,5,7,12)     =         0.014039	       0.804349
	 D(10,5,7,20)     =         3.134629	     179.601030
	 D(10,6,8,12)     =        -0.006255	      -0.358413
	 D(10,6,8,21)     =         3.124964	     179.047249
	 D(10,9,1,14)     =         0.023150	       1.326423
	 D(10,9,2,15)     =        -0.088748	      -5.084908
	 D(11,3,1,14)     =        -3.116406	    -178.556885
	 D(11,4,2,15)     =        -3.125007	    -179.049685
	 D(12,7,5,18)     =        -3.107756	    -178.061294
	 D(12,8,6,19)     =        -3.119840	    -178.753672
	 D(13,11,3,16)    =         0.022658	       1.298181
	 D(13,11,4,17)    =         0.010275	       0.588718
	 D(14,1,3,16)     =         0.015417	       0.883318
	 D(15,2,4,17)     =         0.016223	       0.929521
	 D(18,5,7,20)     =         0.012835	       0.735388
	 D(19,6,8,21)     =         0.011379	       0.651990
	 D(20,7,12,22)    =         0.015491	       0.887577
	 D(21,8,12,22)    =         0.009866	       0.565286

	Current energy   :      -554.1008156765

	Energy change for the previous step:
		Projected    :         0.0000003581
		Actual       :         0.0000002853

	Performing BFGS update.
	Previous computed or guess Hessian on step 1.
	Steps to be used in Hessian update: 7 6
	Adding user-defined constraint: Fragment 1; Coordinate 66:
		Value =     2.365706; Fixed value    =     2.356190
		Force =    -0.006424; Force constant =     0.675000
	Removing off-diagonal coupling between coordinate 66 and others.
	Taking RFO optimization step.
	Going to follow RFO solution 1.
	Rejecting RFO root 1 because normalization gives large value.
	Rejecting RFO root 2 because normalization gives large value.
	Using RFO vector 3.
	Norm of target step-size    0.00607
	Projected energy change by RFO approximation:         0.0000002926

	Back-transformation to cartesian coordinates...
	Could not converge backtransformation.
	Using first guess instead.

	--- Internal Coordinate Step in ANG or DEG, aJ/ANG or AJ/DEG ---
	 ---------------------------------------------------------------------------
	   Coordinate                Previous        Force       Change         New 
	   ----------                --------       ------       ------       ------
	    1 R(1,3)          =      1.378255    -0.000049    -0.000015     1.378240
	    2 R(1,9)          =      1.398374    -0.000013     0.000016     1.398391
	    3 R(1,14)         =      1.080250     0.000049     0.000007     1.080257
	    4 R(2,4)          =      1.380852    -0.000029    -0.000006     1.380847
	    5 R(2,9)          =      1.396207    -0.000084    -0.000005     1.396202
	    6 R(2,15)         =      1.080396     0.000066     0.000011     1.080407
	    7 R(3,11)         =      1.393041     0.000051     0.000020     1.393062
	    8 R(3,16)         =      1.078571    -0.000013    -0.000005     1.078566
	    9 R(4,11)         =      1.393145     0.000001     0.000002     1.393147
	   10 R(4,17)         =      1.080322     0.000018     0.000005     1.080328
	   11 R(5,7)          =      1.372627    -0.000045    -0.000005     1.372621
	   12 R(5,10)         =      1.399872    -0.000021     0.000008     1.399880
	   13 R(5,18)         =      1.077943     0.000139     0.000026     1.077969
	   14 R(6,8)          =      1.372498    -0.000056    -0.000010     1.372488
	   15 R(6,10)         =      1.400024    -0.000008     0.000010     1.400035
	   16 R(6,19)         =      1.078083     0.000090     0.000015     1.078098
	   17 R(7,12)         =      1.343395     0.000054     0.000011     1.343406
	   18 R(7,20)         =      1.077242     0.000007     0.000000     1.077242
	   19 R(8,12)         =      1.343394     0.000048     0.000009     1.343404
	   20 R(8,21)         =      1.077274     0.000032     0.000008     1.077282
	   21 R(9,10)         =      1.445327    -0.000345    -0.000080     1.445247
	   22 R(11,13)        =      1.344552    -0.000040    -0.000020     1.344532
	   23 R(12,22)        =      1.011883     0.000012     0.000001     1.011885
	   24 R(13,23)        =      0.963633     0.000039     0.000009     0.963642
	   25 B(1,3,11)       =    119.980797     0.000000     0.001386   119.982184
	   26 B(1,3,16)       =    121.212693    -0.000000     0.000432   121.213125
	   27 B(1,9,2)        =    119.058207     0.000000    -0.002434   119.055773
	   28 B(1,9,10)       =    120.227727    -0.000000    -0.003910   120.223818
	   29 B(2,4,11)       =    119.945025     0.000000     0.000623   119.945648
	   30 B(2,4,17)       =    119.993182    -0.000000    -0.000329   119.992853
	   31 B(2,9,10)       =    120.567596    -0.000001     0.001212   120.568809
	   32 B(3,1,9)        =    120.551811    -0.000000     0.000693   120.552504
	   33 B(3,1,14)       =    119.246572    -0.000000    -0.001816   119.244756
	   34 B(3,11,4)       =    119.923955    -0.000000    -0.002075   119.921880
	   35 B(3,11,13)      =    116.712056     0.000000    -0.001431   116.710625
	   36 B(4,2,9)        =    120.500632    -0.000000     0.003224   120.503856
	   37 B(4,2,15)       =    119.257553    -0.000000    -0.000931   119.256622
	   38 B(4,11,13)      =    123.363709     0.000000     0.003087   123.366796
	   39 B(5,7,12)       =    119.341794    -0.000000     0.000132   119.341926
	   40 B(5,7,20)       =    123.750344    -0.000000    -0.002325   123.748019
	   41 B(5,10,6)       =    117.309576    -0.000000    -0.003810   117.305766
	   42 B(5,10,9)       =    121.366035    -0.000001    -0.002550   121.363485
	   43 B(6,8,12)       =    119.325115    -0.000000    -0.000361   119.324754
	   44 B(6,8,21)       =    123.773908    -0.000000    -0.001846   123.772062
	   45 B(6,10,9)       =    121.233404     0.000001     0.006816   121.240219
	   46 B(7,5,10)       =    120.635168     0.000000     0.003117   120.638286
	   47 B(7,5,18)       =    118.880699    -0.000000    -0.002240   118.878460
	   48 B(7,12,8)       =    122.718702    -0.000000    -0.001302   122.717401
	   49 B(7,12,22)      =    118.640605     0.000000     0.001064   118.641669
	   50 B(8,6,10)       =    120.655925     0.000000     0.003471   120.659396
	   51 B(8,6,19)       =    118.883267    -0.000000    -0.004290   118.878978
	   52 B(8,12,22)      =    118.640009    -0.000000     0.000223   118.640231
	   53 B(9,1,14)       =    120.168727     0.000001     0.001151   120.169878
	   54 B(9,2,15)       =    120.176665     0.000000     0.000721   120.177386
	   55 B(10,5,18)      =    120.474316    -0.000000    -0.001236   120.473080
	   56 B(10,6,19)      =    120.441173     0.000000     0.000773   120.441946
	   57 B(11,3,16)      =    118.804197     0.000000    -0.002114   118.802084
	   58 B(11,4,17)      =    120.061790    -0.000000    -0.000329   120.061461
	   59 B(11,13,23)     =    110.524047     0.000001     0.004564   110.528611
	   60 B(12,7,20)      =    116.897593     0.000000     0.003411   116.901004
	   61 B(12,8,21)      =    116.898472     0.000000     0.001980   116.900451
	   62 D(1,3,11,4)     =      0.937826     0.000000     0.037542     0.975368
	   63 D(1,3,11,13)    =   -179.248187    -0.000000    -0.070420  -179.318606
	   64 D(1,9,2,4)      =      2.260993     0.000001    -0.029728     2.231265
	   65 D(1,9,2,15)     =    179.304054     0.000001     0.039390   179.343443
	   66 D(1,9,10,5)     =    135.544996    -0.000008    -0.009541   135.535456
	   67 D(1,9,10,6)     =    -40.893033    -0.000005    -0.018322   -40.911355
	   68 D(2,4,11,3)     =      0.368962    -0.000001    -0.098816     0.270146
	   69 D(2,4,11,13)    =   -179.432090     0.000000     0.016670  -179.415420
	   70 D(2,9,1,3)      =     -0.945669    -0.000001    -0.031958    -0.977627
	   71 D(2,9,1,14)     =    176.952738    -0.000001    -0.031098   176.921640
	   72 D(2,9,10,5)     =    -40.014659    -0.000005     0.067545   -39.947113
	   73 D(2,9,10,6)     =    143.547312    -0.000002     0.058764   143.606076
	   74 D(3,1,9,10)     =   -176.571984     0.000002     0.043806  -176.528178
	   75 D(3,11,4,17)    =   -179.610230    -0.000001    -0.048762  -179.658992
	   76 D(3,11,13,23)   =   -179.830775     0.000001     0.101092  -179.729683
	   77 D(4,2,9,10)     =    177.872032    -0.000002    -0.105991   177.766041
	   78 D(4,11,3,16)    =   -178.515806     0.000001     0.071419  -178.444388
	   79 D(4,11,13,23)   =     -0.023801    -0.000000    -0.010959    -0.034760
	   80 D(5,7,12,8)     =      0.070944     0.000000     0.037005     0.107949
	   81 D(5,7,12,22)    =    179.765699    -0.000000     0.033653   179.799351
	   82 D(5,10,6,8)     =      1.174438     0.000001    -0.051455     1.122983
	   83 D(5,10,6,19)    =    179.544645     0.000001    -0.053430   179.491215
	   84 D(6,8,12,7)     =     -0.293926    -0.000000    -0.015527    -0.309453
	   85 D(6,8,12,22)    =   -179.988683     0.000000    -0.012177  -180.000860
	   86 D(6,10,5,7)     =     -1.397011    -0.000001     0.072895    -1.324116
	   87 D(6,10,5,18)    =    177.450504    -0.000001     0.052023   177.502527
	   88 D(7,5,10,9)     =   -177.969412     0.000001     0.064082  -177.905330
	   89 D(7,12,8,21)    =   -179.739957    -0.000001     0.009083  -179.730874
	   90 D(8,6,10,9)     =    177.751665    -0.000001    -0.042993   177.708672
	   91 D(8,12,7,20)    =   -178.807179     0.000000    -0.031589  -178.838767
	   92 D(9,1,3,11)     =     -0.639257     0.000001     0.027849    -0.611409
	   93 D(9,1,3,16)     =    178.800945     0.000000    -0.006875   178.794069
	   94 D(9,2,4,11)     =     -1.979649    -0.000000     0.094879    -1.884770
	   95 D(9,2,4,17)     =    177.999557    -0.000000     0.044861   178.044418
	   96 D(9,10,5,18)    =      0.878103     0.000002     0.043209     0.921313
	   97 D(9,10,6,19)    =     -3.878128    -0.000002    -0.044968    -3.923096
	   98 D(10,5,7,12)    =      0.804349     0.000000    -0.066363     0.737986
	   99 D(10,5,7,20)    =    179.601030     0.000000     0.007276   179.608307
	  100 D(10,6,8,12)    =     -0.358413    -0.000001     0.023432    -0.334981
	  101 D(10,6,8,21)    =    179.047249    -0.000000    -0.002946   179.044302
	  102 D(10,9,1,14)    =      1.326423     0.000002     0.044665     1.371088
	  103 D(10,9,2,15)    =     -5.084908    -0.000002    -0.036873    -5.121781
	  104 D(11,3,1,14)    =   -178.556885     0.000001     0.026936  -178.529948
	  105 D(11,4,2,15)    =   -179.049685    -0.000000     0.026346  -179.023339
	  106 D(12,7,5,18)    =   -178.061294     0.000000    -0.045829  -178.107123
	  107 D(12,8,6,19)    =   -178.753672    -0.000000     0.025297  -178.728375
	  108 D(13,11,3,16)   =      1.298181    -0.000000    -0.036544     1.261638
	  109 D(13,11,4,17)   =      0.588718     0.000000     0.066723     0.655441
	  110 D(14,1,3,16)    =      0.883318     0.000000    -0.007788     0.875530
	  111 D(15,2,4,17)    =      0.929521    -0.000000    -0.023673     0.905849
	  112 D(18,5,7,20)    =      0.735388     0.000000     0.027810     0.763198
	  113 D(19,6,8,21)    =      0.651990    -0.000000    -0.001081     0.650909
	  114 D(20,7,12,22)   =      0.887577     0.000000    -0.034941     0.852636
	  115 D(21,8,12,22)   =      0.565286    -0.000000     0.012432     0.577718
	 ---------------------------------------------------------------------------
	Successfully symmetrized geometry.
	 Forces used to impose fixed constraints are not included.
	  Forces zeroed: 66 

  ==> Convergence Check <==

  Measures of convergence in internal coordinates in au.
  Criteria marked as inactive (o), active & met (*), and active & unmet ( ).
  ---------------------------------------------------------------------------------------------
   Step     Total Energy     Delta E     MAX Force     RMS Force      MAX Disp      RMS Disp   
  ---------------------------------------------------------------------------------------------
    Convergence Criteria    1.00e-06 *    3.00e-04 *             o    1.20e-03 *             o
  ---------------------------------------------------------------------------------------------
      8    -554.10081568    2.85e-07 *    2.68e-04 *    4.93e-05 o    1.85e-03      5.66e-04 o  ~
  ---------------------------------------------------------------------------------------------


  **** Optimization is complete! (in 8 steps) ****

  ==> Optimization Summary <==

  Measures of convergence in internal coordinates in au.
  --------------------------------------------------------------------------------------------------------------- ~
   Step         Total Energy             Delta E       MAX Force       RMS Force        MAX Disp        RMS Disp  ~
  --------------------------------------------------------------------------------------------------------------- ~
      1    -554.097270304108   -554.097270304108      0.01359201      0.00404087      0.03676094      0.00930788  ~
      2    -554.099926797776     -0.002656493668      0.00463899      0.00124643      0.04539041      0.00931575  ~
      3    -554.100580370724     -0.000653572948      0.00160991      0.00038559      0.05567158      0.00932220  ~
      4    -554.100786388954     -0.000206018230      0.00046395      0.00013824      0.03294032      0.00569282  ~
      5    -554.100830749938     -0.000044360985      0.00059074      0.00010266      0.00270770      0.00073263  ~
      6    -554.100816992170      0.000013757769      0.00028988      0.00004601      0.00282142      0.00059353  ~
      7    -554.100815961797      0.000001030373      0.00034207      0.00005071      0.00130838      0.00037602  ~
      8    -554.100815676506      0.000000285291      0.00043262      0.00006369      0.00184989      0.00056578  ~
  --------------------------------------------------------------------------------------------------------------- ~

	Writing optimization data to binary file.
	Final energy is   -554.1008156765057
	Final (previous) structure:
	Cartesian Geometry (in Angstrom)
	    C    -1.3100853419   0.6440432251  -0.5477481012
	    C    -0.2802410568   0.1222040524   1.5661396634
	    C    -2.3525141372   1.2613069357   0.1094539222
	    C    -1.3366159270   0.7161098648   2.2280316811
	    C     2.1763932776  -0.2933642213  -0.1019919118
	    C     0.6842435870  -1.2766816252  -1.6909031866
	    C     3.2365796706  -0.8178824986  -0.7984035051
	    C     1.7652596608  -1.7836834732  -2.3677372076
	    C    -0.2643447401   0.0571026259   0.1715420449
	    C     0.8616994064  -0.5231038717  -0.5244136121
	    C    -2.3766406639   1.2922984415   1.5019414929
	    N     3.0031819152  -1.5442063066  -1.9041561517
	    O    -3.4317056743   1.8976701934   2.0748137323
	    H    -1.2912242869   0.6474149607  -1.6278279745
	    H     0.5127037565  -0.3348767018   2.1402219758
	    H    -3.1547433886   1.7340420290  -0.4348483728
	    H    -1.3561712827   0.7333221264   3.3080399189
	    H     2.3733305736   0.3145521770   0.7661173260
	    H    -0.3067553297  -1.4902234724  -2.0577599144
	    H     4.2669887526  -0.6679066048  -0.5223330585
	    H     1.6863094283  -2.3815371270  -3.2604058628
	    H     3.7926843896  -1.9228084517  -2.4113581270
	    H    -3.3566445792   1.8701112623   3.0351236362
	Saving final (previous) structure.
			--------------------------
			 OPTKING Finished Execution 
			--------------------------

    Final optimized geometry and variables:
    Molecular point group: c1
    Full point group: C1

    Geometry (in Angstrom), charge = 1, multiplicity = 1:

    C           -1.310085341881     0.644043225073    -0.547748101161
    C           -0.280241056766     0.122204052435     1.566139663405
    C           -2.352514137228     1.261306935712     0.109453922179
    C           -1.336615926999     0.716109864808     2.228031681112
    C            2.176393277649    -0.293364221274    -0.101991911847
    C            0.684243586991    -1.276681625150    -1.690903186643
    C            3.236579670557    -0.817882498615    -0.798403505090
    C            1.765259660796    -1.783683473243    -2.367737207596
    C           -0.264344740146     0.057102625928     0.171542044939
    C            0.861699406437    -0.523103871681    -0.524413612119
    C           -2.376640663920     1.292298441491     1.501941492861
    N            3.003181915192    -1.544206306614    -1.904156151716
    O           -3.431705674289     1.897670193365     2.074813732259
    H           -1.291224286938     0.647414960723    -1.627827974516
    H            0.512703756526    -0.334876701805     2.140221975844
    H           -3.154743388584     1.734042028952    -0.434848372774
    H           -1.356171282661     0.733322126358     3.308039918935
    H            2.373330573593     0.314552177028     0.766117325992
    H           -0.306755329750    -1.490223472413    -2.057759914385
    H            4.266988752618    -0.667906604787    -0.522333058497
    H            1.686309428255    -2.381537127030    -3.260405862751
    H            3.792684389614    -1.922808451716    -2.411358126954
    H           -3.356644579245     1.870111262338     3.035123636227

	Cleaning optimization helper files.

*** Psi4 exiting successfully. Buy a developer a beer!
