
    -----------------------------------------------------------------------
          Psi4: An Open-Source Ab Initio Electronic Structure Package
                               Psi4 1.1 release

                         Git: Rev {HEAD} add49b9 


    R. M. Parrish, L. A. Burns, D. G. A. Smith, A. C. Simmonett,
    A. E. DePrince III, E. G. Hohenstein, U. Bozkaya, A. Yu. Sokolov,
    R. Di Remigio, R. M. Richard, J. F. Gonthier, A. M. James,
    H. R. McAlexander, A. Kumar, M. Saitow, X. Wang, B. P. Pritchard,
    P. Verma, H. F. Schaefer III, K. Patkowski, R. A. King, E. F. Valeev,
    F. A. Evangelista, J. M. Turney, T. D. Crawford, and C. D. Sherrill,
    J. Chem. Theory Comput. in press (2017).
    (doi: 10.1021/acs.jctc.7b00174)

    -----------------------------------------------------------------------


    Psi4 started on: Sunday, 12 November 2017 01:01AM

    Process ID:  30577
    PSIDATADIR: /cbio/jclab/home/chayas/anaconda/envs/py35/share/psi4
    Memory:     500.0 MiB
    Threads:    8
    
  ==> Input File <==

--------------------------------------------------------------------------

memory 5 Gb

molecule phepyrFOH_zwitterion {
  symmetry C1
  0 1 
  C      1.885   -1.036   -0.112
  C      0.807   -0.463   0.561
  C      4.906   -3.081   0.574
  C      4.246   -1.938   -1.441
  C      1.800   -1.079   2.676
  C      5.969   -3.635   -0.125
  C      5.325   -2.521   -2.089
  C      2.921   -1.631   0.608
  C      4.038   -2.224   -0.095
  C      0.764   -0.484   1.955
  C      2.878   -1.652   2.002
  N      6.146   -3.343   -1.421
  O      -0.227   0.043   2.574
  F      3.866   -2.220   2.709
  H      1.904   -1.013   -1.200
  H      0.011   -0.007   -0.025
  H      4.768   -3.322   1.624
  H      3.584   -1.273   -1.988
  H      1.791   -1.109   3.764
  H      6.692   -4.310   0.312
  H      5.563   -2.357   -3.131
  H      6.934   -3.760   -1.916
  units Angstrom
}

dih_string = "1 8 9 3 195"
set optking fixed_dihedral = $dih_string

optimize('MP2/aug-cc-PVTZ')
--------------------------------------------------------------------------

  Memory set to   4.657 GiB by Python driver.
gradient() will perform analytic gradient computation.

*** tstart() called on gpu-1-6.local
*** at Sun Nov 12 01:01:34 2017

    SCF Algorithm Type (re)set to DF.

*** tstart() called on gpu-1-6.local
*** at Sun Nov 12 01:01:34 2017

   => Loading Basis Set <=

    Name: AUG-CC-PVTZ
    Role: ORBITAL
    Keyword: BASIS
    atoms 1-11  entry C          line   221 file /cbio/jclab/home/chayas/anaconda/envs/py35/share/psi4/basis/aug-cc-pvtz.gbs 
    atoms 12    entry N          line   267 file /cbio/jclab/home/chayas/anaconda/envs/py35/share/psi4/basis/aug-cc-pvtz.gbs 
    atoms 13    entry O          line   313 file /cbio/jclab/home/chayas/anaconda/envs/py35/share/psi4/basis/aug-cc-pvtz.gbs 
    atoms 14    entry F          line   359 file /cbio/jclab/home/chayas/anaconda/envs/py35/share/psi4/basis/aug-cc-pvtz.gbs 
    atoms 15-22 entry H          line    34 file /cbio/jclab/home/chayas/anaconda/envs/py35/share/psi4/basis/aug-cc-pvtz.gbs 


         ---------------------------------------------------------
                                   SCF
            by Justin Turney, Rob Parrish, and Andy Simmonett
                              RHF Reference
                        8 Threads,   4768 MiB Core
         ---------------------------------------------------------

  ==> Geometry <==

    Molecular point group: c1
    Full point group: C1

    Geometry (in Angstrom), charge = 0, multiplicity = 1:

       Center              X                  Y                   Z               Mass       
    ------------   -----------------  -----------------  -----------------  -----------------
           C         -1.361814002453     0.775678743964    -0.769610531705    12.000000000000
           C         -2.439814002453     1.348678743964    -0.096610531705    12.000000000000
           C          1.659185997547    -1.269321256036    -0.083610531705    12.000000000000
           C          0.999185997547    -0.126321256036    -2.098610531705    12.000000000000
           C         -1.446814002453     0.732678743964     2.018389468295    12.000000000000
           C          2.722185997547    -1.823321256036    -0.782610531705    12.000000000000
           C          2.078185997547    -0.709321256036    -2.746610531705    12.000000000000
           C         -0.325814002453     0.180678743964    -0.049610531705    12.000000000000
           C          0.791185997547    -0.412321256036    -0.752610531705    12.000000000000
           C         -2.482814002453     1.327678743964     1.297389468295    12.000000000000
           C         -0.368814002453     0.159678743964     1.344389468295    12.000000000000
           N          2.899185997547    -1.531321256036    -2.078610531705    14.003074004780
           O         -3.473814002453     1.854678743964     1.916389468295    15.994914619560
           F          0.619185997547    -0.408321256036     2.051389468295    18.998403224000
           H         -1.342814002453     0.798678743964    -1.857610531705     1.007825032070
           H         -3.235814002453     1.804678743964    -0.682610531705     1.007825032070
           H          1.521185997547    -1.510321256036     0.966389468295     1.007825032070
           H          0.337185997547     0.538678743964    -2.645610531705     1.007825032070
           H         -1.455814002453     0.702678743964     3.106389468295     1.007825032070
           H          3.445185997547    -2.498321256036    -0.345610531705     1.007825032070
           H          2.316185997547    -0.545321256036    -3.788610531705     1.007825032070
           H          3.687185997547    -1.948321256036    -2.573610531705     1.007825032070

  Running in c1 symmetry.

  Rotational constants: A =      0.06298  B =      0.01379  C =      0.01137 [cm^-1]
  Rotational constants: A =   1888.03667  B =    413.45489  C =    340.99990 [MHz]
  Nuclear repulsion =  820.693229235954277

  Charge       = 0
  Multiplicity = 1
  Electrons    = 98
  Nalpha       = 49
  Nbeta        = 49

  ==> Algorithm <==

  SCF Algorithm Type is DF.
  DIIS enabled.
  MOM disabled.
  Fractional occupation disabled.
  Guess Type is SAD.
  Energy threshold   = 1.00e-10
  Density threshold  = 1.00e-10
  Integral threshold = 0.00e+00

  ==> Primary Basis <==

  Basis Set: AUG-CC-PVTZ
    Blend: AUG-CC-PVTZ
    Number of shells: 268
    Number of basis function: 828
    Number of Cartesian functions: 970
    Spherical Harmonics?: true
    Max angular momentum: 3

   => Loading Basis Set <=

    Name: (AUG-CC-PVTZ AUX)
    Role: JKFIT
    Keyword: DF_BASIS_SCF
    atoms 1-11  entry C          line   161 file /cbio/jclab/home/chayas/anaconda/envs/py35/share/psi4/basis/aug-cc-pvtz-jkfit.gbs 
    atoms 12    entry N          line   223 file /cbio/jclab/home/chayas/anaconda/envs/py35/share/psi4/basis/aug-cc-pvtz-jkfit.gbs 
    atoms 13    entry O          line   285 file /cbio/jclab/home/chayas/anaconda/envs/py35/share/psi4/basis/aug-cc-pvtz-jkfit.gbs 
    atoms 14    entry F          line   347 file /cbio/jclab/home/chayas/anaconda/envs/py35/share/psi4/basis/aug-cc-pvtz-jkfit.gbs 
    atoms 15-22 entry H          line    69 file /cbio/jclab/home/chayas/anaconda/envs/py35/share/psi4/basis/aug-cc-pvtz-jkfit.gbs 

  ==> Pre-Iterations <==

   -------------------------------------------------------
    Irrep   Nso     Nmo     Nalpha   Nbeta   Ndocc  Nsocc
   -------------------------------------------------------
     A        828     828       0       0       0       0
   -------------------------------------------------------
    Total     828     828      49      49      49       0
   -------------------------------------------------------

  ==> Integral Setup <==

  ==> DFJK: Density-Fitted J/K Matrices <==

    J tasked:                  Yes
    K tasked:                  Yes
    wK tasked:                  No
    OpenMP threads:              8
    Integrals threads:           8
    Memory (MB):              3576
    Algorithm:                Disk
    Integral Cache:           NONE
    Schwarz Cutoff:          1E-12
    Fitting Condition:       1E-12

   => Auxiliary Basis Set <=

  Basis Set: (AUG-CC-PVTZ AUX)
    Blend: AUG-CC-PVTZ-JKFIT
    Number of shells: 532
    Number of basis function: 1824
    Number of Cartesian functions: 2274
    Spherical Harmonics?: true
    Max angular momentum: 4

  Minimum eigenvalue in the overlap matrix is 6.2614435385E-07.
  Using Symmetric Orthogonalization.

  SCF Guess: Superposition of Atomic Densities via on-the-fly atomic UHF.

  ==> Iterations <==

                           Total Energy        Delta E     RMS |[F,P]|

   @DF-RHF iter   0:  -656.40646913716841   -6.56406e+02   2.20429e-02 
   @DF-RHF iter   1:  -649.64818675794731    6.75828e+00   2.47019e-03 
   @DF-RHF iter   2:  -649.93957757491285   -2.91391e-01   1.23841e-03 DIIS
   @DF-RHF iter   3:  -650.07196706341529   -1.32389e-01   3.83497e-04 DIIS
   @DF-RHF iter   4:  -650.09917157850111   -2.72045e-02   1.66968e-04 DIIS
   @DF-RHF iter   5:  -650.10180967626809   -2.63810e-03   5.42481e-05 DIIS
   @DF-RHF iter   6:  -650.10247975255197   -6.70076e-04   1.93457e-05 DIIS
   @DF-RHF iter   7:  -650.10263626660162   -1.56514e-04   1.50556e-05 DIIS
   @DF-RHF iter   8:  -650.10266455016074   -2.82836e-05   5.64547e-06 DIIS
   @DF-RHF iter   9:  -650.10267371792247   -9.16776e-06   2.48550e-06 DIIS
   @DF-RHF iter  10:  -650.10267539422591   -1.67630e-06   8.53299e-07 DIIS
   @DF-RHF iter  11:  -650.10267576461831   -3.70392e-07   3.65251e-07 DIIS
   @DF-RHF iter  12:  -650.10267581233120   -4.77129e-08   2.44244e-07 DIIS
   @DF-RHF iter  13:  -650.10267582111555   -8.78435e-09   8.34692e-08 DIIS
   @DF-RHF iter  14:  -650.10267582264999   -1.53443e-09   4.03591e-08 DIIS
   @DF-RHF iter  15:  -650.10267582297536   -3.25372e-10   1.01807e-08 DIIS
   @DF-RHF iter  16:  -650.10267582300753   -3.21734e-11   3.63175e-09 DIIS
   @DF-RHF iter  17:  -650.10267582300855   -1.02318e-12   1.64909e-09 DIIS
   @DF-RHF iter  18:  -650.10267582301094   -2.38742e-12   5.33582e-10 DIIS
   @DF-RHF iter  19:  -650.10267582300639    4.54747e-12   2.57993e-10 DIIS
   @DF-RHF iter  20:  -650.10267582301299   -6.59384e-12   8.14748e-11 DIIS

  ==> Post-Iterations <==

    Orbital Energies (a.u.)
    -----------------------

    Doubly Occupied:                                                      

       1A    -26.319848     2A    -20.440944     3A    -15.696070  
       4A    -11.356097     5A    -11.351215     6A    -11.326530  
       7A    -11.309399     8A    -11.285090     9A    -11.274477  
      10A    -11.257435    11A    -11.240300    12A    -11.227159  
      13A    -11.197274    14A    -11.196038    15A     -1.644337  
      16A     -1.380924    17A     -1.265342    18A     -1.183215  
      19A     -1.118352    20A     -1.107466    21A     -1.006941  
      22A     -1.000305    23A     -0.940315    24A     -0.908819  
      25A     -0.841068    26A     -0.834889    27A     -0.813854  
      28A     -0.751393    29A     -0.729681    30A     -0.725133  
      31A     -0.708197    32A     -0.688169    33A     -0.682037  
      34A     -0.652927    35A     -0.649874    36A     -0.617581  
      37A     -0.611287    38A     -0.592965    39A     -0.563645  
      40A     -0.540647    41A     -0.524920    42A     -0.506028  
      43A     -0.485743    44A     -0.474314    45A     -0.415832  
      46A     -0.395724    47A     -0.353625    48A     -0.330231  
      49A     -0.244569  

    Virtual:                                                              

      50A     -0.007225    51A      0.012097    52A      0.021327  
      53A      0.025002    54A      0.039065    55A      0.042525  
      56A      0.044659    57A      0.057647    58A      0.058485  
      59A      0.061203    60A      0.064736    61A      0.069397  
      62A      0.071467    63A      0.081872    64A      0.084229  
      65A      0.094319    66A      0.098235    67A      0.105151  
      68A      0.107732    69A      0.109781    70A      0.118600  
      71A      0.120479    72A      0.122049    73A      0.130060  
      74A      0.131391    75A      0.136190    76A      0.138747  
      77A      0.145198    78A      0.148173    79A      0.150311  
      80A      0.154440    81A      0.158916    82A      0.163694  
      83A      0.165788    84A      0.169378    85A      0.175243  
      86A      0.178395    87A      0.179529    88A      0.186374  
      89A      0.188144    90A      0.194745    91A      0.199064  
      92A      0.202682    93A      0.204294    94A      0.211275  
      95A      0.215747    96A      0.220687    97A      0.228743  
      98A      0.229701    99A      0.233604   100A      0.236583  
     101A      0.243191   102A      0.248121   103A      0.249037  
     104A      0.252338   105A      0.257168   106A      0.260138  
     107A      0.265352   108A      0.272781   109A      0.274236  
     110A      0.278917   111A      0.288267   112A      0.288993  
     113A      0.292975   114A      0.298670   115A      0.300694  
     116A      0.301497   117A      0.310575   118A      0.312024  
     119A      0.319409   120A      0.320280   121A      0.330822  
     122A      0.334294   123A      0.337770   124A      0.338752  
     125A      0.345338   126A      0.347690   127A      0.351517  
     128A      0.355144   129A      0.357962   130A      0.365790  
     131A      0.366491   132A      0.370300   133A      0.378944  
     134A      0.379655   135A      0.382619   136A      0.391566  
     137A      0.396510   138A      0.400499   139A      0.402549  
     140A      0.406957   141A      0.414594   142A      0.416755  
     143A      0.421949   144A      0.428218   145A      0.434937  
     146A      0.436245   147A      0.442579   148A      0.446257  
     149A      0.448321   150A      0.454448   151A      0.455779  
     152A      0.459056   153A      0.461853   154A      0.464798  
     155A      0.469388   156A      0.470706   157A      0.474463  
     158A      0.478651   159A      0.479753   160A      0.486637  
     161A      0.489007   162A      0.493308   163A      0.495248  
     164A      0.496954   165A      0.501785   166A      0.509899  
     167A      0.512438   168A      0.515213   169A      0.517083  
     170A      0.525854   171A      0.532297   172A      0.535547  
     173A      0.540830   174A      0.542454   175A      0.550762  
     176A      0.552065   177A      0.555725   178A      0.561553  
     179A      0.565327   180A      0.570470   181A      0.574432  
     182A      0.587082   183A      0.591051   184A      0.600675  
     185A      0.604298   186A      0.606755   187A      0.613135  
     188A      0.619727   189A      0.623255   190A      0.628638  
     191A      0.635951   192A      0.636648   193A      0.645964  
     194A      0.652601   195A      0.659064   196A      0.666682  
     197A      0.676279   198A      0.679235   199A      0.680068  
     200A      0.685556   201A      0.692134   202A      0.695225  
     203A      0.700457   204A      0.707332   205A      0.709962  
     206A      0.717480   207A      0.722065   208A      0.726586  
     209A      0.730755   210A      0.741885   211A      0.742673  
     212A      0.749408   213A      0.751198   214A      0.760284  
     215A      0.765010   216A      0.770524   217A      0.775973  
     218A      0.780555   219A      0.790469   220A      0.797435  
     221A      0.804258   222A      0.810059   223A      0.814456  
     224A      0.822205   225A      0.825581   226A      0.832445  
     227A      0.836098   228A      0.850282   229A      0.855487  
     230A      0.862414   231A      0.866716   232A      0.868738  
     233A      0.875594   234A      0.878282   235A      0.884018  
     236A      0.886867   237A      0.897471   238A      0.899846  
     239A      0.903144   240A      0.907649   241A      0.908610  
     242A      0.916720   243A      0.919356   244A      0.922295  
     245A      0.926737   246A      0.928375   247A      0.938711  
     248A      0.941579   249A      0.950927   250A      0.953156  
     251A      0.959508   252A      0.963522   253A      0.967051  
     254A      0.968312   255A      0.977359   256A      0.980163  
     257A      0.982457   258A      0.983020   259A      0.987998  
     260A      0.990096   261A      0.996734   262A      1.006889  
     263A      1.008958   264A      1.011269   265A      1.018800  
     266A      1.020601   267A      1.027735   268A      1.029047  
     269A      1.032231   270A      1.040619   271A      1.044839  
     272A      1.048270   273A      1.052535   274A      1.060243  
     275A      1.061688   276A      1.070979   277A      1.071872  
     278A      1.083292   279A      1.088547   280A      1.093586  
     281A      1.099124   282A      1.105357   283A      1.109399  
     284A      1.113133   285A      1.117099   286A      1.122014  
     287A      1.128109   288A      1.133262   289A      1.140539  
     290A      1.143409   291A      1.147290   292A      1.149660  
     293A      1.158105   294A      1.165873   295A      1.169886  
     296A      1.172666   297A      1.179727   298A      1.183843  
     299A      1.185280   300A      1.194535   301A      1.198861  
     302A      1.204232   303A      1.208690   304A      1.212064  
     305A      1.214444   306A      1.220108   307A      1.223901  
     308A      1.227026   309A      1.233543   310A      1.236694  
     311A      1.241053   312A      1.246135   313A      1.254944  
     314A      1.266117   315A      1.268921   316A      1.275204  
     317A      1.278851   318A      1.281953   319A      1.289392  
     320A      1.294880   321A      1.298986   322A      1.308047  
     323A      1.317063   324A      1.326090   325A      1.332538  
     326A      1.336867   327A      1.338626   328A      1.353622  
     329A      1.357870   330A      1.360125   331A      1.366428  
     332A      1.375817   333A      1.382184   334A      1.385618  
     335A      1.388849   336A      1.399944   337A      1.406354  
     338A      1.416011   339A      1.429021   340A      1.431010  
     341A      1.437191   342A      1.443341   343A      1.452133  
     344A      1.452838   345A      1.468460   346A      1.479682  
     347A      1.487756   348A      1.491348   349A      1.492067  
     350A      1.498221   351A      1.507267   352A      1.512476  
     353A      1.519094   354A      1.524088   355A      1.528811  
     356A      1.545915   357A      1.552728   358A      1.571728  
     359A      1.577753   360A      1.587036   361A      1.594245  
     362A      1.603524   363A      1.614743   364A      1.618404  
     365A      1.627593   366A      1.630357   367A      1.646392  
     368A      1.651092   369A      1.658191   370A      1.665196  
     371A      1.669237   372A      1.670574   373A      1.684520  
     374A      1.685669   375A      1.693042   376A      1.700824  
     377A      1.707301   378A      1.716135   379A      1.732524  
     380A      1.746637   381A      1.757913   382A      1.771222  
     383A      1.774261   384A      1.781755   385A      1.789990  
     386A      1.792096   387A      1.804663   388A      1.810025  
     389A      1.813017   390A      1.816151   391A      1.830057  
     392A      1.840092   393A      1.846544   394A      1.855785  
     395A      1.862137   396A      1.872585   397A      1.881267  
     398A      1.886335   399A      1.898482   400A      1.900544  
     401A      1.908405   402A      1.916782   403A      1.927636  
     404A      1.937096   405A      1.947387   406A      1.960208  
     407A      1.964316   408A      1.975476   409A      1.978374  
     410A      1.983753   411A      1.990932   412A      1.993527  
     413A      2.002222   414A      2.010061   415A      2.015914  
     416A      2.027192   417A      2.028579   418A      2.038227  
     419A      2.041051   420A      2.053176   421A      2.058904  
     422A      2.065375   423A      2.069681   424A      2.070634  
     425A      2.077494   426A      2.079431   427A      2.096638  
     428A      2.103386   429A      2.111658   430A      2.120229  
     431A      2.128856   432A      2.137287   433A      2.149456  
     434A      2.159148   435A      2.164491   436A      2.170687  
     437A      2.177576   438A      2.179882   439A      2.197398  
     440A      2.206259   441A      2.211003   442A      2.221746  
     443A      2.225017   444A      2.234743   445A      2.246434  
     446A      2.270727   447A      2.283151   448A      2.292218  
     449A      2.295489   450A      2.308119   451A      2.312566  
     452A      2.318597   453A      2.333121   454A      2.348353  
     455A      2.358873   456A      2.362225   457A      2.373913  
     458A      2.379274   459A      2.388743   460A      2.394321  
     461A      2.403012   462A      2.424056   463A      2.434327  
     464A      2.442809   465A      2.454958   466A      2.459388  
     467A      2.467952   468A      2.484695   469A      2.495897  
     470A      2.499002   471A      2.507958   472A      2.519067  
     473A      2.526692   474A      2.533718   475A      2.551908  
     476A      2.557304   477A      2.563168   478A      2.579949  
     479A      2.593254   480A      2.610101   481A      2.623689  
     482A      2.642156   483A      2.653640   484A      2.660343  
     485A      2.670206   486A      2.678842   487A      2.692682  
     488A      2.717501   489A      2.732033   490A      2.735590  
     491A      2.749308   492A      2.758722   493A      2.782506  
     494A      2.795374   495A      2.807222   496A      2.823070  
     497A      2.859440   498A      2.863560   499A      2.881368  
     500A      2.903030   501A      2.913768   502A      2.921201  
     503A      2.959027   504A      2.971458   505A      3.000677  
     506A      3.027472   507A      3.041848   508A      3.056372  
     509A      3.067106   510A      3.076681   511A      3.084837  
     512A      3.098788   513A      3.116699   514A      3.121060  
     515A      3.151857   516A      3.172836   517A      3.177496  
     518A      3.199966   519A      3.210700   520A      3.219585  
     521A      3.224227   522A      3.232839   523A      3.250300  
     524A      3.257353   525A      3.273021   526A      3.296211  
     527A      3.318481   528A      3.320410   529A      3.323204  
     530A      3.333823   531A      3.343891   532A      3.360926  
     533A      3.368684   534A      3.372930   535A      3.383192  
     536A      3.387325   537A      3.396178   538A      3.411168  
     539A      3.426635   540A      3.430797   541A      3.449876  
     542A      3.454749   543A      3.462128   544A      3.479262  
     545A      3.486053   546A      3.491798   547A      3.499032  
     548A      3.507903   549A      3.518155   550A      3.529001  
     551A      3.534476   552A      3.541168   553A      3.553322  
     554A      3.558195   555A      3.561091   556A      3.579011  
     557A      3.581639   558A      3.597312   559A      3.609082  
     560A      3.625007   561A      3.626036   562A      3.639238  
     563A      3.645405   564A      3.654944   565A      3.661332  
     566A      3.668008   567A      3.671172   568A      3.684642  
     569A      3.696178   570A      3.710656   571A      3.714913  
     572A      3.717505   573A      3.727945   574A      3.737448  
     575A      3.746137   576A      3.756085   577A      3.761842  
     578A      3.772910   579A      3.781038   580A      3.794405  
     581A      3.805550   582A      3.810053   583A      3.816847  
     584A      3.825362   585A      3.832195   586A      3.837950  
     587A      3.849142   588A      3.856919   589A      3.864907  
     590A      3.876731   591A      3.879790   592A      3.898098  
     593A      3.908318   594A      3.915204   595A      3.923065  
     596A      3.933333   597A      3.941996   598A      3.950063  
     599A      3.959808   600A      3.962899   601A      3.965173  
     602A      3.974952   603A      3.989569   604A      3.991932  
     605A      3.998384   606A      4.005266   607A      4.010666  
     608A      4.025798   609A      4.036119   610A      4.042349  
     611A      4.050924   612A      4.061018   613A      4.072222  
     614A      4.078428   615A      4.089507   616A      4.109931  
     617A      4.118803   618A      4.129206   619A      4.134657  
     620A      4.153867   621A      4.159352   622A      4.173554  
     623A      4.181614   624A      4.195451   625A      4.197845  
     626A      4.203905   627A      4.218669   628A      4.220418  
     629A      4.227597   630A      4.236449   631A      4.244306  
     632A      4.253924   633A      4.258400   634A      4.273301  
     635A      4.275481   636A      4.296072   637A      4.300767  
     638A      4.312568   639A      4.317859   640A      4.323587  
     641A      4.331784   642A      4.335411   643A      4.340603  
     644A      4.353597   645A      4.357880   646A      4.368787  
     647A      4.380164   648A      4.385547   649A      4.393554  
     650A      4.397653   651A      4.408109   652A      4.424036  
     653A      4.436578   654A      4.441402   655A      4.450549  
     656A      4.466403   657A      4.481590   658A      4.488608  
     659A      4.495042   660A      4.505275   661A      4.509224  
     662A      4.527141   663A      4.538138   664A      4.547006  
     665A      4.555484   666A      4.563138   667A      4.589003  
     668A      4.593253   669A      4.611939   670A      4.625162  
     671A      4.630824   672A      4.641385   673A      4.661047  
     674A      4.665491   675A      4.679386   676A      4.709411  
     677A      4.715627   678A      4.727013   679A      4.731515  
     680A      4.747061   681A      4.770742   682A      4.776231  
     683A      4.791760   684A      4.792610   685A      4.804229  
     686A      4.820852   687A      4.840556   688A      4.852010  
     689A      4.857978   690A      4.874525   691A      4.889579  
     692A      4.900389   693A      4.905911   694A      4.929786  
     695A      4.934706   696A      4.946596   697A      4.958318  
     698A      4.971908   699A      4.990073   700A      5.012440  
     701A      5.033156   702A      5.035204   703A      5.047579  
     704A      5.064830   705A      5.075572   706A      5.081712  
     707A      5.091037   708A      5.099161   709A      5.121852  
     710A      5.133159   711A      5.143478   712A      5.149834  
     713A      5.155743   714A      5.171527   715A      5.181993  
     716A      5.189135   717A      5.198334   718A      5.228337  
     719A      5.232016   720A      5.242519   721A      5.273511  
     722A      5.275841   723A      5.309299   724A      5.319277  
     725A      5.335724   726A      5.347440   727A      5.383884  
     728A      5.390756   729A      5.403811   730A      5.412582  
     731A      5.436241   732A      5.446558   733A      5.500050  
     734A      5.520227   735A      5.525278   736A      5.549341  
     737A      5.554761   738A      5.572642   739A      5.579796  
     740A      5.626349   741A      5.648478   742A      5.662659  
     743A      5.696331   744A      5.716202   745A      5.722343  
     746A      5.744765   747A      5.754717   748A      5.792328  
     749A      5.821205   750A      5.825556   751A      5.834300  
     752A      5.857230   753A      5.896610   754A      5.916300  
     755A      5.947408   756A      5.972756   757A      5.985130  
     758A      6.012817   759A      6.075157   760A      6.117137  
     761A      6.139445   762A      6.160822   763A      6.221406  
     764A      6.225316   765A      6.265700   766A      6.292441  
     767A      6.311862   768A      6.385789   769A      6.432560  
     770A      6.452282   771A      6.462766   772A      6.529963  
     773A      6.579928   774A      6.598349   775A      6.624919  
     776A      6.671707   777A      6.682574   778A      6.737351  
     779A      6.763727   780A      6.774973   781A      6.828831  
     782A      6.860638   783A      6.889459   784A      6.932295  
     785A      6.957561   786A      6.973274   787A      7.052816  
     788A      7.061157   789A      7.114569   790A      7.174126  
     791A      7.218560   792A      7.222650   793A      7.474880  
     794A      7.495157   795A      7.509160   796A      7.602576  
     797A      7.676598   798A      7.793996   799A      7.804087  
     800A      7.891875   801A      8.014949   802A      8.086457  
     803A      9.156260   804A      9.218634   805A      9.311380  
     806A      9.363399   807A      9.445968   808A      9.558596  
     809A      9.571934   810A      9.629949   811A      9.720438  
     812A      9.751771   813A     10.101328   814A     10.118003  
     815A     15.858909   816A     16.125092   817A     16.344132  
     818A     16.928630   819A     17.273404   820A     17.340992  
     821A     18.970536   822A     19.719087   823A     19.791358  
     824A     20.081530   825A     20.478296   826A     20.573764  
     827A     21.009179   828A     21.482936  

    Final Occupation by Irrep:
              A 
    DOCC [    49 ]

  Energy converged.

  @DF-RHF Final Energy:  -650.10267582301299

   => Energetics <=

    Nuclear Repulsion Energy =            820.6932292359542771
    One-Electron Energy =               -2516.0553581771973768
    Two-Electron Energy =                1045.2594531182301125
    DFT Exchange-Correlation Energy =       0.0000000000000000
    Empirical Dispersion Energy =           0.0000000000000000
    PCM Polarization Energy =               0.0000000000000000
    EFP Energy =                            0.0000000000000000
    Total Energy =                       -650.1026758230129872



Properties will be evaluated at   0.000000,   0.000000,   0.000000 Bohr

Properties computed using the SCF density matrix

  Nuclear Dipole Moment: (a.u.)
     X:     4.3336      Y:    -2.0928      Z:    -9.2518

  Electronic Dipole Moment: (a.u.)
     X:     0.9500      Y:    -0.6981      Z:     5.3981

  Dipole Moment: (a.u.)
     X:     5.2836      Y:    -2.7909      Z:    -3.8537     Total:     7.1103

  Dipole Moment: (Debye)
     X:    13.4295      Y:    -7.0938      Z:    -9.7951     Total:    18.0725


*** tstop() called on gpu-1-6.local at Sun Nov 12 01:10:54 2017
Module time:
	user time   =    1343.37 seconds =      22.39 minutes
	system time =      55.98 seconds =       0.93 minutes
	total time  =        560 seconds =       9.33 minutes
Total time:
	user time   =    1343.38 seconds =      22.39 minutes
	system time =      55.98 seconds =       0.93 minutes
	total time  =        560 seconds =       9.33 minutes

  //>>>>>>>>>>>>>>>>>>>>>>>>>>>>>>>>>>>//
  //               DFMP2               //
  //<<<<<<<<<<<<<<<<<<<<<<<<<<<<<<<<<<<//

   => Loading Basis Set <=

    Name: (AUG-CC-PVTZ AUX)
    Role: RIFIT
    Keyword: DF_BASIS_MP2
    atoms 1-11  entry C          line   147 file /cbio/jclab/home/chayas/anaconda/envs/py35/share/psi4/basis/aug-cc-pvtz-ri.gbs 
    atoms 12    entry N          line   205 file /cbio/jclab/home/chayas/anaconda/envs/py35/share/psi4/basis/aug-cc-pvtz-ri.gbs 
    atoms 13    entry O          line   263 file /cbio/jclab/home/chayas/anaconda/envs/py35/share/psi4/basis/aug-cc-pvtz-ri.gbs 
    atoms 14    entry F          line   321 file /cbio/jclab/home/chayas/anaconda/envs/py35/share/psi4/basis/aug-cc-pvtz-ri.gbs 
    atoms 15-22 entry H          line    29 file /cbio/jclab/home/chayas/anaconda/envs/py35/share/psi4/basis/aug-cc-pvtz-ri.gbs 

	 --------------------------------------------------------
	                          DF-MP2                         
	      2nd-Order Density-Fitted Moller-Plesset Theory     
	              RMP2 Wavefunction,   8 Threads             
	                                                         
	        Rob Parrish, Justin Turney, Andy Simmonett,      
	           Ed Hohenstein, and C. David Sherrill          
	 --------------------------------------------------------

   => Auxiliary Basis Set <=

  Basis Set: (AUG-CC-PVTZ AUX)
    Blend: AUG-CC-PVTZ-RI
    Number of shells: 504
    Number of basis function: 1852
    Number of Cartesian functions: 2344
    Spherical Harmonics?: true
    Max angular momentum: 4

	 --------------------------------------------------------
	                 NBF =   828, NAUX =  1852
	 --------------------------------------------------------
	   CLASS    FOCC     OCC    AOCC    AVIR     VIR    FVIR
	   PAIRS       0      49      49     779     779       0
	 --------------------------------------------------------


         ------------------------------------------------------------
                                     CPHF                           
                                  Rob Parrish                       
         ------------------------------------------------------------

  ==> Geometry <==

    Molecular point group: c1
    Full point group: C1

    Geometry (in Angstrom), charge = 0, multiplicity = 1:

       Center              X                  Y                   Z               Mass       
    ------------   -----------------  -----------------  -----------------  -----------------
           C         -1.361814002453     0.775678743964    -0.769610531705    12.000000000000
           C         -2.439814002453     1.348678743964    -0.096610531705    12.000000000000
           C          1.659185997547    -1.269321256036    -0.083610531705    12.000000000000
           C          0.999185997547    -0.126321256036    -2.098610531705    12.000000000000
           C         -1.446814002453     0.732678743964     2.018389468295    12.000000000000
           C          2.722185997547    -1.823321256036    -0.782610531705    12.000000000000
           C          2.078185997547    -0.709321256036    -2.746610531705    12.000000000000
           C         -0.325814002453     0.180678743964    -0.049610531705    12.000000000000
           C          0.791185997547    -0.412321256036    -0.752610531705    12.000000000000
           C         -2.482814002453     1.327678743964     1.297389468295    12.000000000000
           C         -0.368814002453     0.159678743964     1.344389468295    12.000000000000
           N          2.899185997547    -1.531321256036    -2.078610531705    14.003074004780
           O         -3.473814002453     1.854678743964     1.916389468295    15.994914619560
           F          0.619185997547    -0.408321256036     2.051389468295    18.998403224000
           H         -1.342814002453     0.798678743964    -1.857610531705     1.007825032070
           H         -3.235814002453     1.804678743964    -0.682610531705     1.007825032070
           H          1.521185997547    -1.510321256036     0.966389468295     1.007825032070
           H          0.337185997547     0.538678743964    -2.645610531705     1.007825032070
           H         -1.455814002453     0.702678743964     3.106389468295     1.007825032070
           H          3.445185997547    -2.498321256036    -0.345610531705     1.007825032070
           H          2.316185997547    -0.545321256036    -3.788610531705     1.007825032070
           H          3.687185997547    -1.948321256036    -2.573610531705     1.007825032070

  Nuclear repulsion =  820.693229235954277
  Reference energy  = -650.102675823012987

  ==> Basis Set <==

  Basis Set: AUG-CC-PVTZ
    Blend: AUG-CC-PVTZ
    Number of shells: 268
    Number of basis function: 828
    Number of Cartesian functions: 970
    Spherical Harmonics?: true
    Max angular momentum: 3

  ==> CGRSolver (by Rob Parrish) <==

   Number of roots    =         1
   Preconditioning    =    JACOBI
   Convergence cutoff =     1E-06
   Maximum iterations =       100

  ==> CPHFRHamiltonian (by Rob Parrish) <== 

  ==> DFJK: Density-Fitted J/K Matrices <==

    J tasked:                  Yes
    K tasked:                  Yes
    wK tasked:                  No
    OpenMP threads:              8
    Integrals threads:           8
    Memory (MB):              3576
    Algorithm:                Disk
    Integral Cache:           NONE
    Schwarz Cutoff:          1E-12
    Fitting Condition:       1E-12

   => Auxiliary Basis Set <=

  Basis Set: (AUG-CC-PVTZ AUX)
    Blend: AUG-CC-PVTZ-JKFIT
    Number of shells: 532
    Number of basis function: 1824
    Number of Cartesian functions: 2274
    Spherical Harmonics?: true
    Max angular momentum: 4

  ==> CPHF Iterations <==

  => Iterations <=

             Iter  Converged  Remaining    Residual
  CGR           1          0          1   1.530E-01
  CGR           2          0          1   5.957E-02
  CGR           3          0          1   2.984E-02
  CGR           4          0          1   9.178E-03
  CGR           5          0          1   3.089E-03
  CGR           6          0          1   1.234E-03
  CGR           7          0          1   5.323E-04
  CGR           8          0          1   1.845E-04
  CGR           9          0          1   8.727E-05
  CGR          10          0          1   4.102E-05
  CGR          11          0          1   1.778E-05
  CGR          12          0          1   5.053E-06
  CGR          13          0          1   2.282E-06
  CGR          14          1          0   8.481E-07

    CGRSolver converged.

  ==> DFCorrGrad: Density-Fitted Correlated Gradients <==

    OpenMP threads:              8
    Integrals threads:           8
    Memory (MB):              3576
    Schwarz Cutoff:          0E+00
    Fitting Condition:       1E-12

   => Auxiliary Basis Set <=

  Basis Set: (AUG-CC-PVTZ AUX)
    Blend: AUG-CC-PVTZ-JKFIT
    Number of shells: 532
    Number of basis function: 1824
    Number of Cartesian functions: 2274
    Spherical Harmonics?: true
    Max angular momentum: 4

	-----------------------------------------------------------
	 ==================> DF-MP2 Energies <==================== 
	-----------------------------------------------------------
	 Reference Energy          =    -650.1026758230129872 [Eh]
	 Singles Energy            =      -0.0000000000000004 [Eh]
	 Same-Spin Energy          =      -0.6799391340133834 [Eh]
	 Opposite-Spin Energy      =      -2.0291108177821191 [Eh]
	 Correlation Energy        =      -2.7090499517955027 [Eh]
	 Total Energy              =    -652.8117257748084512 [Eh]
	-----------------------------------------------------------
	 ================> DF-SCS-MP2 Energies <================== 
	-----------------------------------------------------------
	 SCS Same-Spin Scale       =       0.3333333333333333 [-]
	 SCS Opposite-Spin Scale   =       1.2000000000000000 [-]
	 SCS Same-Spin Energy      =      -0.2266463780044611 [Eh]
	 SCS Opposite-Spin Energy  =      -2.4349329813385427 [Eh]
	 SCS Correlation Energy    =      -2.6615793593430044 [Eh]
	 SCS Total Energy          =    -652.7642551823560098 [Eh]
	-----------------------------------------------------------


  -Total Gradient:
     Atom            X                  Y                   Z
    ------   -----------------  -----------------  -----------------
       1        0.036255724038    -0.024836177444    -0.009609730642
       2       -0.028166350181     0.013897182854     0.057202956547
       3       -0.042993299905     0.028663905274     0.008939362330
       4       -0.025937525128     0.012803988766     0.032384716411
       5       -0.058430122402     0.032127523985    -0.004346110451
       6        0.015995057676    -0.002859390660    -0.027863691281
       7        0.026551512605    -0.019465565132     0.003710565383
       8       -0.053225125956     0.028362606613     0.029578833042
       9        0.052894966381    -0.028938924655    -0.034716490979
      10        0.064298752431    -0.034576173585    -0.041237608495
      11        0.053898545695    -0.022988694948    -0.022534632935
      12       -0.021007691828     0.010368393909     0.013641538857
      13       -0.022874744664     0.012291105121     0.013583748984
      14        0.000008376604    -0.005513219893    -0.015052884811
      15        0.001410616307     0.001195115032    -0.008133165218
      16       -0.002353567200     0.002270380892    -0.008965123620
      17       -0.005236090536     0.002541327297     0.016469579554
      18       -0.007820043902     0.004497294386    -0.002305482923
      19        0.003182794659    -0.002559092924     0.007442503958
      20        0.003086053998    -0.001438584118    -0.000368326749
      21        0.001820998745    -0.001017254928    -0.002591331332
      22        0.008641162567    -0.004825745835    -0.005229225613


*** tstop() called on gpu-1-6.local at Sun Nov 12 01:47:54 2017
Module time:
	user time   =    5880.62 seconds =      98.01 minutes
	system time =     122.14 seconds =       2.04 minutes
	total time  =       2780 seconds =      46.33 minutes
Total time:
	user time   =    5880.63 seconds =      98.01 minutes
	system time =     122.14 seconds =       2.04 minutes
	total time  =       2780 seconds =      46.33 minutes

			-----------------------------------------
			 OPTKING 2.0: for geometry optimizations 
			  - R.A. King,  Bethel University        
			-----------------------------------------

	Internal coordinates to be generated automatically.
	Detected frag 1 with atoms:  1 2 3 4 5 6 7 8 9 10 11 12 13 14 15 16 17 18 19 20
	 21 22
	---Fragment 1 Bond Connectivity---
	 1 : 2 8 15
	 2 : 1 10 16
	 3 : 6 9 17
	 4 : 7 9 18
	 5 : 10 11 19
	 6 : 3 12 20
	 7 : 4 12 21
	 8 : 1 9 11
	 9 : 3 4 8
	 10 : 2 5 13
	 11 : 5 8 14
	 12 : 6 7 22
	 13 : 10
	 14 : 11
	 15 : 1
	 16 : 2
	 17 : 3
	 18 : 4
	 19 : 5
	 20 : 6
	 21 : 7
	 22 : 12

	Assuming in current code that numbering for constraints corresponds to unified fragment.
	Fixed dihedral atom list: 
	     1     8     9     3
	---Fragment 1 Geometry and Gradient---
	 C          -2.5734555086        1.4658203932       -1.4543531339
	 C          -4.6105802798        2.5486334673       -0.1825674465
	 C           3.1354071389       -2.3986695486       -0.1580010067
	 C           1.8881878912       -0.2387125787       -3.9657991645
	 C          -2.7340822299        1.3845621695        3.8142033246
	 C           5.1441860181       -3.4455778262       -1.4789195736
	 C           3.9272023886       -1.3404229141       -5.1903416986
	 C          -0.6156992349        0.3414333441       -0.0937503182
	 C           1.4951248555       -0.7791742527       -1.4222277896
	 C          -4.6918385035        2.5089492185        2.4517107828
	 C          -0.6969574586        0.3017490953        2.5405279110
	 N           5.4786675437       -2.8937777954       -3.9280046419
	 O          -6.5645571012        3.5048348906        3.6214512590
	 F           1.1700919607       -0.7716153481        3.8765642870
	 H          -2.5375507120        1.5092840942       -3.5103751665
	 H          -6.1148022816        3.4103485839       -1.2899469603
	 H           2.8746249325       -2.8540935466        1.8262114328
	 H           0.6371891912        1.0179552997       -4.9994793592
	 H          -2.7510897651        1.3278703855        5.8702253572
	 H           6.5104580122       -4.7211429659       -0.6531092536
	 H           4.3769572082       -1.0305078283       -7.1594363291
	 H           6.9677717364       -3.6817935928       -4.8634190776
	             0.0362557240       -0.0248361774       -0.0096097306
	            -0.0281663502        0.0138971829        0.0572029565
	            -0.0429932999        0.0286639053        0.0089393623
	            -0.0259375251        0.0128039888        0.0323847164
	            -0.0584301224        0.0321275240       -0.0043461105
	             0.0159950577       -0.0028593907       -0.0278636913
	             0.0265515126       -0.0194655651        0.0037105654
	            -0.0532251260        0.0283626066        0.0295788330
	             0.0528949664       -0.0289389247       -0.0347164910
	             0.0642987524       -0.0345761736       -0.0412376085
	             0.0538985457       -0.0229886949       -0.0225346329
	            -0.0210076918        0.0103683939        0.0136415389
	            -0.0228747447        0.0122911051        0.0135837490
	             0.0000083766       -0.0055132199       -0.0150528848
	             0.0014106163        0.0011951150       -0.0081331652
	            -0.0023535672        0.0022703809       -0.0089651236
	            -0.0052360905        0.0025413273        0.0164695796
	            -0.0078200439        0.0044972944       -0.0023054829
	             0.0031827947       -0.0025590929        0.0074425040
	             0.0030860540       -0.0014385841       -0.0003683267
	             0.0018209987       -0.0010172549       -0.0025913313
	             0.0086411626       -0.0048257458       -0.0052292256

	Previous optimization step data not found.  Starting new optimization.

	---Fragment 1 Intrafragment Coordinates---
	 - Coordinate -           - BOHR/RAD -       - ANG/DEG -
	 R(1,2)           =         2.634350	       1.394038
	 R(1,8)           =         2.635962	       1.394891
	 R(1,15)          =         2.056795	       1.088409
	 R(2,10)          =         2.635830	       1.394821
	 R(2,16)          =         2.057067	       1.088553
	 R(3,6)           =         2.622220	       1.387619
	 R(3,9)           =         2.628985	       1.391199
	 R(3,17)          =         2.052442	       1.086105
	 R(4,7)           =         2.621231	       1.387096
	 R(4,9)           =         2.629896	       1.391681
	 R(4,18)          =         2.052488	       1.086130
	 R(5,10)          =         2.636938	       1.395407
	 R(5,11)          =         2.635263	       1.394521
	 R(5,19)          =         2.056874	       1.088451
	 R(6,12)          =         2.532662	       1.340227
	 R(6,20)          =         2.043460	       1.081352
	 R(7,12)          =         2.532479	       1.340130
	 R(7,21)          =         2.043443	       1.081344
	 R(8,9)           =         2.734263	       1.446909
	 R(8,11)          =         2.635830	       1.394821
	 R(10,13)         =         2.422221	       1.281784
	 R(11,14)         =         2.534359	       1.341125
	 R(12,22)         =         1.927019	       1.019734
	 B(1,2,10)        =         2.094553	     120.009056
	 B(1,2,16)        =         2.068903	     118.539404
	 B(1,8,9)         =         2.091392	     119.827938
	 B(1,8,11)        =         2.093692	     119.959722
	 B(2,1,8)         =         2.094940	     120.031219
	 B(2,1,15)        =         2.079908	     119.169966
	 B(2,10,5)        =         2.094306	     119.994870
	 B(2,10,13)       =         2.094719	     120.018581
	 B(3,6,12)        =         2.095901	     120.086297
	 B(3,6,20)        =         2.162573	     123.906290
	 B(3,9,4)         =         2.092595	     119.896841
	 B(3,9,8)         =         2.094958	     120.032237
	 B(4,7,12)        =         2.096121	     120.098874
	 B(4,7,21)        =         2.162326	     123.892136
	 B(4,9,8)         =         2.095633	     120.070921
	 B(5,10,13)       =         2.094160	     119.986548
	 B(5,11,8)        =         2.095181	     120.045019
	 B(5,11,14)       =         2.081414	     119.256220
	 B(6,3,9)         =         2.073349	     118.794171
	 B(6,3,17)        =         2.089483	     119.718562
	 B(6,12,7)        =         2.134996	     122.326270
	 B(6,12,22)       =         2.074145	     118.839763
	 B(7,4,9)         =         2.073408	     118.797540
	 B(7,4,18)        =         2.089997	     119.747993
	 B(7,12,22)       =         2.074043	     118.833910
	 B(8,1,15)        =         2.108336	     120.798746
	 B(8,11,14)       =         2.106591	     120.698759
	 B(9,3,17)        =         2.120353	     121.487267
	 B(9,4,18)        =         2.119780	     121.454455
	 B(9,8,11)        =         2.098101	     120.212327
	 B(10,2,16)       =         2.119728	     121.451467
	 B(10,5,11)       =         2.093699	     119.960108
	 B(10,5,19)       =         2.120101	     121.472852
	 B(11,5,19)       =         2.069385	     118.567038
	 B(12,6,20)       =         2.024711	     116.007396
	 B(12,7,21)       =         2.024739	     116.008987
	 D(1,2,10,5)      =        -0.000325	      -0.018609
	 D(1,2,10,13)     =         3.141392	     179.988520
	 D(1,8,9,3)       =        -2.879652	    -164.991918
	 D(1,8,9,4)       =         0.262133	      15.019110
	 D(1,8,11,5)      =         0.000325	       0.018608
	 D(1,8,11,14)     =        -3.141528	    -179.996269
	 D(2,1,8,9)       =        -3.141211	    -179.978157
	 D(2,1,8,11)      =        -0.000348	      -0.019945
	 D(2,10,5,11)     =         0.000301	       0.017261
	 D(2,10,5,19)     =        -3.141543	    -179.997173
	 D(3,6,12,7)      =         0.000462	       0.026460
	 D(3,6,12,22)     =         3.140523	     179.938733
	 D(3,9,4,7)       =         0.000213	       0.012204
	 D(3,9,4,18)      =         3.141083	     179.970822
	 D(3,9,8,11)      =         0.262672	      15.049976
	 D(4,7,12,6)      =        -0.000070	      -0.003991
	 D(4,7,12,22)     =        -3.140131	    -179.916268
	 D(4,9,3,6)       =         0.000164	       0.009422
	 D(4,9,3,17)      =        -3.141557	    -179.997957
	 D(4,9,8,11)      =        -2.878729	    -164.938996
	 D(5,10,2,16)     =         3.139529	     179.881752
	 D(5,11,8,9)      =         3.141185	     179.976658
	 D(6,3,9,8)       =        -3.141236	    -179.979570
	 D(6,12,7,21)     =        -3.141325	    -179.984647
	 D(7,4,9,8)       =        -3.141572	    -179.998808
	 D(7,12,6,20)     =         3.141266	     179.981306
	 D(8,1,2,10)      =         0.000348	       0.019955
	 D(8,1,2,16)      =        -3.139556	    -179.883288
	 D(8,9,3,17)      =         0.000228	       0.013051
	 D(8,9,4,18)      =        -0.000701	      -0.040190
	 D(8,11,5,10)     =        -0.000301	      -0.017270
	 D(8,11,5,19)     =         3.141536	     179.996748
	 D(9,3,6,12)      =        -0.000501	      -0.028683
	 D(9,3,6,20)      =        -3.141240	    -179.979787
	 D(9,4,7,12)      =        -0.000269	      -0.015389
	 D(9,4,7,21)      =         3.140959	     179.963667
	 D(9,8,1,15)      =         0.002066	       0.118384
	 D(9,8,11,14)     =        -0.000667	      -0.038219
	 D(10,2,1,15)     =         3.140283	     179.924984
	 D(10,5,11,14)    =         3.141547	     179.997392
	 D(11,5,10,13)    =        -3.141416	    -179.989865
	 D(11,8,1,15)     =        -3.140256	    -179.923403
	 D(12,6,3,17)     =         3.141218	     179.978562
	 D(12,7,4,18)     =        -3.141152	    -179.974730
	 D(13,10,2,16)    =        -0.001939	      -0.111119
	 D(13,10,5,19)    =        -0.000075	      -0.004300
	 D(14,11,5,19)    =         0.000199	       0.011410
	 D(15,1,2,16)     =         0.000379	       0.021741
	 D(17,3,6,20)     =         0.000479	       0.027458
	 D(18,4,7,21)     =         0.000076	       0.004326
	 D(20,6,12,22)    =        -0.001857	      -0.106421
	 D(21,7,12,22)    =         0.001799	       0.103076
	 R(3,14)          =         4.773624	       2.526093

	Current energy   :      -652.8117257748

	Generating empirical Hessian (Schlegel '84) for each fragment.
	Adding user-defined constraint: Fragment 1; Coordinate 62:
		Value =    -2.879652; Fixed value    =    -2.879793
		Force =    -0.000071; Force constant =     0.500000
	Removing off-diagonal coupling between coordinate 62 and others.
	Taking RFO optimization step.
	Going to follow RFO solution 1.
	Using RFO vector 1.

	Determining step-restricting scale parameter for RS-RFO.
	Maximum step size allowed    0.10000

	 Iter      |step|        alpha        rfo_root  
	------------------------------------------------
	    0     0.37821       1.00000           1
	    1     0.25993       3.99421           1
	    2     0.18301      12.46379           1
	    3     0.13528      29.59635           1
	    4     0.11037      50.51009           1
	    5     0.10136      62.60430           1
	    6     0.10003      64.69737           1
	    7     0.10000      64.74381           1
	------------------------------------------------
	Norm of target step-size    0.10000
	Projected energy change by RFO approximation:        -0.0109106809

	Back-transformation to cartesian coordinates...
	Could not converge backtransformation.
	Using first guess instead.

	--- Internal Coordinate Step in ANG or DEG, aJ/ANG or AJ/DEG ---
	 ---------------------------------------------------------------------------
	   Coordinate                Previous        Force       Change         New 
	   ----------                --------       ------       ------       ------
	    1 R(1,2)          =      1.394038    -0.198319    -0.010940     1.383098
	    2 R(1,8)          =      1.394891     0.170512     0.009410     1.404301
	    3 R(1,15)         =      1.088409    -0.067393    -0.004136     1.084273
	    4 R(2,10)         =      1.394821     0.272075     0.015213     1.410034
	    5 R(2,16)         =      1.088553    -0.061777    -0.003796     1.084757
	    6 R(3,6)          =      1.387619    -0.173356    -0.009461     1.378158
	    7 R(3,9)          =      1.391199     0.239266     0.013331     1.404530
	    8 R(3,17)         =      1.086105    -0.132013    -0.007989     1.078117
	    9 R(4,7)          =      1.387096    -0.191581    -0.010520     1.376576
	   10 R(4,9)          =      1.391681     0.207963     0.011569     1.403250
	   11 R(4,18)         =      1.086130    -0.071520    -0.004359     1.081771
	   12 R(5,10)         =      1.395407     0.243288     0.013613     1.409020
	   13 R(5,11)         =      1.394521    -0.257749    -0.014267     1.380254
	   14 R(5,19)         =      1.088451    -0.061655    -0.003784     1.084666
	   15 R(6,12)         =      1.340227     0.125176     0.006308     1.346535
	   16 R(6,20)         =      1.081352    -0.023172    -0.001412     1.079940
	   17 R(7,12)         =      1.340130     0.107554     0.005386     1.345516
	   18 R(7,21)         =      1.081344    -0.022603    -0.001365     1.079978
	   19 R(8,9)          =      1.446909    -0.159151    -0.009341     1.437568
	   20 R(8,11)         =      1.394821     0.119139     0.006674     1.401495
	   21 R(10,13)        =      1.281784    -0.241384    -0.010917     1.270867
	   22 R(11,14)        =      1.341125     0.046406     0.002366     1.343491
	   23 R(12,22)        =      1.019734    -0.092185    -0.005199     1.014535
	   24 B(1,2,10)       =    120.009056     0.000398     0.339195   120.348252
	   25 B(1,2,16)       =    118.539404     0.000260     0.233533   118.772937
	   26 B(1,8,9)        =    119.827938     0.000825     0.649580   120.477518
	   27 B(1,8,11)       =    119.959722    -0.001251    -1.033028   118.926693
	   28 B(2,1,8)        =    120.031219     0.000653     0.529285   120.560504
	   29 B(2,1,15)       =    119.169966    -0.000375    -0.309752   118.860214
	   30 B(2,10,5)       =    119.994870    -0.001254    -0.967323   119.027548
	   31 B(2,10,13)      =    120.018581     0.000687     0.531964   120.550546
	   32 B(3,6,12)       =    120.086297     0.000209     0.167850   120.254148
	   33 B(3,6,20)       =    123.906290    -0.000250    -0.212887   123.693403
	   34 B(3,9,4)        =    119.896841    -0.001364    -1.076735   118.820106
	   35 B(3,9,8)        =    120.032237     0.000971     0.787571   120.819808
	   36 B(4,7,12)       =    120.098874     0.000007    -0.015755   120.083119
	   37 B(4,7,21)       =    123.892136    -0.000146    -0.117946   123.774190
	   38 B(4,9,8)        =    120.070921     0.000393     0.289165   120.360086
	   39 B(5,10,13)      =    119.986548     0.000567     0.435359   120.421907
	   40 B(5,11,8)       =    120.045019     0.001283     0.993863   121.038882
	   41 B(5,11,14)      =    119.256220    -0.000254    -0.209908   119.046312
	   42 B(6,3,9)        =    118.794171     0.000467     0.389927   119.184098
	   43 B(6,3,17)       =    119.718562    -0.000717    -0.628929   119.089633
	   44 B(6,12,7)       =    122.326270    -0.000155    -0.147821   122.178449
	   45 B(6,12,22)      =    118.839763     0.000099     0.093107   118.932870
	   46 B(7,4,9)        =    118.797540     0.000836     0.682538   119.480078
	   47 B(7,4,18)       =    119.747993    -0.000651    -0.550842   119.197151
	   48 B(7,12,22)      =    118.833910     0.000057     0.054735   118.888645
	   49 B(8,1,15)       =    120.798746    -0.000278    -0.219766   120.578980
	   50 B(8,11,14)      =    120.698759    -0.001029    -0.784145   119.914615
	   51 B(9,3,17)       =    121.487267     0.000250     0.238882   121.726148
	   52 B(9,4,18)       =    121.454455    -0.000185    -0.131697   121.322758
	   53 B(9,8,11)       =    120.212327     0.000426     0.383417   120.595744
	   54 B(10,2,16)      =    121.451467    -0.000659    -0.572733   120.878734
	   55 B(10,5,11)      =    119.960108     0.000172     0.137959   120.098067
	   56 B(10,5,19)      =    121.472852    -0.000397    -0.342050   121.130803
	   57 B(11,5,19)      =    118.567038     0.000225     0.204084   118.771122
	   58 B(12,6,20)      =    116.007396     0.000041     0.045010   116.052407
	   59 B(12,7,21)      =    116.008987     0.000139     0.133704   116.142691
	   60 D(1,2,10,5)     =     -0.018609    -0.000005    -0.019263    -0.037871
	   61 D(1,2,10,13)    =    179.988520    -0.000006    -0.029532   179.958988
	   62 D(1,8,9,3)      =   -164.991918     0.000006     0.026350  -164.965568
	   63 D(1,8,9,4)      =     15.019110     0.000004     0.014467    15.033577
	   64 D(1,8,11,5)     =      0.018608    -0.000001    -0.006962     0.011645
	   65 D(1,8,11,14)    =   -179.996269     0.000036     0.168519  -179.827750
	   66 D(2,1,8,9)      =   -179.978157    -0.000004    -0.017124  -179.995282
	   67 D(2,1,8,11)     =     -0.019945    -0.000011    -0.051479    -0.071424
	   68 D(2,10,5,11)    =      0.017261    -0.000008    -0.038729    -0.021467
	   69 D(2,10,5,19)    =   -179.997173    -0.000012    -0.057529  -180.054702
	   70 D(3,6,12,7)     =      0.026460    -0.000008    -0.034525    -0.008066
	   71 D(3,6,12,22)    =    179.938733    -0.000003    -0.016109   179.922623
	   72 D(3,9,4,7)      =      0.012204    -0.000006    -0.027417    -0.015212
	   73 D(3,9,4,18)     =    179.970822     0.000012     0.056060   180.026883
	   74 D(3,9,8,11)     =     15.049976     0.000013     0.061877    15.111853
	   75 D(4,7,12,6)     =     -0.003991     0.000003     0.012022     0.008032
	   76 D(4,7,12,22)    =   -179.916268    -0.000001    -0.006419  -179.922687
	   77 D(4,9,3,6)      =      0.009422     0.000001     0.005725     0.015147
	   78 D(4,9,3,17)     =   -179.997957     0.000030     0.140514  -179.857444
	   79 D(4,9,8,11)     =   -164.938996     0.000011     0.049994  -164.889002
	   80 D(5,10,2,16)    =    179.881752    -0.000005    -0.022220   179.859532
	   81 D(5,11,8,9)     =    179.976658    -0.000008    -0.041248   179.935410
	   82 D(6,3,9,8)      =   -179.979570    -0.000001    -0.006125  -179.985695
	   83 D(6,12,7,21)    =   -179.984647    -0.000003    -0.014274  -179.998921
	   84 D(7,4,9,8)      =   -179.998808    -0.000003    -0.015566  -180.014374
	   85 D(7,12,6,20)    =    179.981306    -0.000014    -0.061933   179.919373
	   86 D(8,1,2,10)     =      0.019955     0.000014     0.064779     0.084733
	   87 D(8,1,2,16)     =   -179.883288     0.000015     0.068478  -179.814810
	   88 D(8,9,3,17)     =      0.013051     0.000028     0.128663     0.141714
	   89 D(8,9,4,18)     =     -0.040190     0.000015     0.067911     0.027721
	   90 D(8,11,5,10)    =     -0.017270     0.000011     0.051578     0.034308
	   91 D(8,11,5,19)    =    179.996748     0.000015     0.070015   180.066763
	   92 D(9,3,6,12)     =     -0.028683     0.000006     0.024885    -0.003798
	   93 D(9,3,6,20)     =   -179.979787     0.000012     0.054339  -179.925448
	   94 D(9,4,7,12)     =     -0.015389     0.000004     0.019261     0.003872
	   95 D(9,4,7,21)     =    179.963667     0.000010     0.047713   180.011380
	   96 D(9,8,1,15)     =      0.118384     0.000019     0.088277     0.206662
	   97 D(9,8,11,14)    =     -0.038219     0.000029     0.134234     0.096015
	   98 D(10,2,1,15)    =    179.924984    -0.000008    -0.038765   179.886219
	   99 D(10,5,11,14)   =    179.997392    -0.000026    -0.122319   179.875073
	  100 D(11,5,10,13)   =   -179.989865    -0.000006    -0.028465  -180.018331
	  101 D(11,8,1,15)    =   -179.923403     0.000012     0.053922  -179.869481
	  102 D(12,6,3,17)    =    179.978562    -0.000023    -0.106374   179.872188
	  103 D(12,7,4,18)    =   -179.974730    -0.000014    -0.062592  -180.037322
	  104 D(13,10,2,16)   =     -0.111119    -0.000007    -0.032490    -0.143608
	  105 D(13,10,5,19)   =     -0.004300    -0.000010    -0.047266    -0.051566
	  106 D(14,11,5,19)   =      0.011410    -0.000022    -0.103882    -0.092472
	  107 D(15,1,2,16)    =      0.021741    -0.000008    -0.035065    -0.013324
	  108 D(17,3,6,20)    =      0.027458    -0.000017    -0.076920    -0.049462
	  109 D(18,4,7,21)    =      0.004326    -0.000007    -0.034140    -0.029814
	  110 D(20,6,12,22)   =     -0.106421    -0.000009    -0.043516    -0.149938
	  111 D(21,7,12,22)   =      0.103076    -0.000007    -0.032715     0.070360
	  112 R(3,14)         =      2.526093     0.150230     0.013150     2.539243
	 ---------------------------------------------------------------------------
	Successfully symmetrized geometry.
	 Forces used to impose fixed constraints are not included.
	  Forces zeroed: 62 

  ==> Convergence Check <==

  Measures of convergence in internal coordinates in au.
  Criteria marked as inactive (o), active & met (*), and active & unmet ( ).
  --------------------------------------------------------------------------------------------- ~
   Step     Total Energy     Delta E     MAX Force     RMS Force      MAX Disp      RMS Disp    ~
  --------------------------------------------------------------------------------------------- ~
    Convergence Criteria    1.00e-06 *    3.00e-04 *             o    1.20e-03 *             o  ~
  --------------------------------------------------------------------------------------------- ~
      1    -652.81172577   -6.53e+02      3.30e-02      1.02e-02 o    2.87e-02      9.45e-03 o  ~
  ---------------------------------------------------------------------------------------------

	Writing optimization data to binary file.
	Structure for next step:
	Cartesian Geometry (in Angstrom)
	    C    -1.3725985549   0.7809151097  -0.7690401219
	    C    -2.4431626894   1.3504194879  -0.1038211364
	    C     1.6699921669  -1.2790902930  -0.0820651754
	    C     1.0073497978  -0.1307111918  -2.1029909235
	    C    -1.4438106184   0.7324405421   2.0224454205
	    C     2.7250452165  -1.8268795714  -0.7792801671
	    C     2.0778690514  -0.7066433644  -2.7489406487
	    C    -0.3252068750   0.1791863921  -0.0528310931
	    C     0.7867155157  -0.4121269852  -0.7460692588
	    C    -2.4959120384   1.3356869252   1.3051490415
	    C    -0.3812815690   0.1662632495   1.3474820534
	    N     2.9038800641  -1.5324668414  -2.0810080069
	    O    -3.4773825064   1.8585255658   1.9203388301
	    F     0.6116886007  -0.4010172629   2.0525860987
	    H    -1.3575970695   0.8041958523  -1.8529592855
	    H    -3.2377984717   1.8046907535  -0.6859633572
	    H     1.5433525268  -1.5292787125   0.9589456035
	    H     0.3527679899   0.5314953460  -2.6536565606
	    H    -1.4491114994   0.7026302592   3.1066891116
	    H     3.4460512153  -2.5017166341  -0.3422266016
	    H     2.3123517985  -0.5385592138  -3.7896706072
	    H     3.6878898947  -1.9460270455  -2.5745449130
			--------------------------
			 OPTKING Finished Execution 
			--------------------------

    Structure for next step:
    Molecular point group: c1
    Full point group: C1

    Geometry (in Angstrom), charge = 0, multiplicity = 1:

    C           -1.370817488312     0.779703504950    -0.769869374308
    C           -2.441381622793     1.349207883161    -0.104650388879
    C            1.671773233501    -1.280301897751    -0.082894427869
    C            1.009130864399    -0.131922796487    -2.103820175966
    C           -1.442029551798     0.731228937375     2.021616168054
    C            2.726826283079    -1.828091176085    -0.780109419537
    C            2.079650118062    -0.707854969108    -2.749769901195
    C           -0.323425808411     0.177974787443    -0.053660345511
    C            0.788496582361    -0.413338589930    -0.746898511235
    C           -2.494130971803     1.334475320498     1.304319789064
    C           -0.379500502411     0.165051644800     1.346652800996
    N            2.905661130739    -1.533678446069    -2.081837259353
    O           -3.475601439828     1.857313961125     1.919509577636
    F            0.613469667274    -0.402228867650     2.051756846210
    H           -1.355816002926     0.802984247637    -1.853788537903
    H           -3.236017405058     1.803479148791    -0.686792609682
    H            1.545133593374    -1.530490317171     0.958116351075
    H            0.354549056548     0.530283741249    -2.654485813061
    H           -1.447330432817     0.701418654481     3.105859859155
    H            3.447832281958    -2.502928238845    -0.343055854049
    H            2.314132865075    -0.539770818481    -3.790499859627
    H            3.689670961323    -1.947238650172    -2.575374165436

gradient() will perform analytic gradient computation.

*** tstart() called on gpu-1-6.local
*** at Sun Nov 12 01:47:56 2017

    SCF Algorithm Type (re)set to DF.

*** tstart() called on gpu-1-6.local
*** at Sun Nov 12 01:47:56 2017

   => Loading Basis Set <=

    Name: AUG-CC-PVTZ
    Role: ORBITAL
    Keyword: BASIS
    atoms 1-11  entry C          line   221 file /cbio/jclab/home/chayas/anaconda/envs/py35/share/psi4/basis/aug-cc-pvtz.gbs 
    atoms 12    entry N          line   267 file /cbio/jclab/home/chayas/anaconda/envs/py35/share/psi4/basis/aug-cc-pvtz.gbs 
    atoms 13    entry O          line   313 file /cbio/jclab/home/chayas/anaconda/envs/py35/share/psi4/basis/aug-cc-pvtz.gbs 
    atoms 14    entry F          line   359 file /cbio/jclab/home/chayas/anaconda/envs/py35/share/psi4/basis/aug-cc-pvtz.gbs 
    atoms 15-22 entry H          line    34 file /cbio/jclab/home/chayas/anaconda/envs/py35/share/psi4/basis/aug-cc-pvtz.gbs 


         ---------------------------------------------------------
                                   SCF
            by Justin Turney, Rob Parrish, and Andy Simmonett
                              RHF Reference
                        8 Threads,   4768 MiB Core
         ---------------------------------------------------------

  ==> Geometry <==

    Molecular point group: c1
    Full point group: C1

    Geometry (in Angstrom), charge = 0, multiplicity = 1:

       Center              X                  Y                   Z               Mass       
    ------------   -----------------  -----------------  -----------------  -----------------
           C         -1.370817488312     0.779703504950    -0.769869374308    12.000000000000
           C         -2.441381622793     1.349207883161    -0.104650388879    12.000000000000
           C          1.671773233501    -1.280301897751    -0.082894427869    12.000000000000
           C          1.009130864399    -0.131922796487    -2.103820175966    12.000000000000
           C         -1.442029551798     0.731228937375     2.021616168054    12.000000000000
           C          2.726826283079    -1.828091176085    -0.780109419537    12.000000000000
           C          2.079650118062    -0.707854969108    -2.749769901195    12.000000000000
           C         -0.323425808411     0.177974787443    -0.053660345511    12.000000000000
           C          0.788496582361    -0.413338589930    -0.746898511235    12.000000000000
           C         -2.494130971803     1.334475320498     1.304319789064    12.000000000000
           C         -0.379500502411     0.165051644800     1.346652800996    12.000000000000
           N          2.905661130739    -1.533678446069    -2.081837259353    14.003074004780
           O         -3.475601439828     1.857313961125     1.919509577636    15.994914619560
           F          0.613469667274    -0.402228867650     2.051756846210    18.998403224000
           H         -1.355816002926     0.802984247637    -1.853788537903     1.007825032070
           H         -3.236017405058     1.803479148791    -0.686792609682     1.007825032070
           H          1.545133593374    -1.530490317171     0.958116351075     1.007825032070
           H          0.354549056548     0.530283741249    -2.654485813061     1.007825032070
           H         -1.447330432817     0.701418654481     3.105859859155     1.007825032070
           H          3.447832281958    -2.502928238845    -0.343055854049     1.007825032070
           H          2.314132865075    -0.539770818481    -3.790499859627     1.007825032070
           H          3.689670961323    -1.947238650172    -2.575374165436     1.007825032070

  Running in c1 symmetry.

  Rotational constants: A =      0.06281  B =      0.01374  C =      0.01134 [cm^-1]
  Rotational constants: A =   1883.13926  B =    411.95695  C =    339.85141 [MHz]
  Nuclear repulsion =  819.593253369505192

  Charge       = 0
  Multiplicity = 1
  Electrons    = 98
  Nalpha       = 49
  Nbeta        = 49

  ==> Algorithm <==

  SCF Algorithm Type is DF.
  DIIS enabled.
  MOM disabled.
  Fractional occupation disabled.
  Guess Type is READ.
  Energy threshold   = 1.00e-10
  Density threshold  = 1.00e-10
  Integral threshold = 0.00e+00

  ==> Primary Basis <==

  Basis Set: AUG-CC-PVTZ
    Blend: AUG-CC-PVTZ
    Number of shells: 268
    Number of basis function: 828
    Number of Cartesian functions: 970
    Spherical Harmonics?: true
    Max angular momentum: 3

   => Loading Basis Set <=

    Name: (AUG-CC-PVTZ AUX)
    Role: JKFIT
    Keyword: DF_BASIS_SCF
    atoms 1-11  entry C          line   161 file /cbio/jclab/home/chayas/anaconda/envs/py35/share/psi4/basis/aug-cc-pvtz-jkfit.gbs 
    atoms 12    entry N          line   223 file /cbio/jclab/home/chayas/anaconda/envs/py35/share/psi4/basis/aug-cc-pvtz-jkfit.gbs 
    atoms 13    entry O          line   285 file /cbio/jclab/home/chayas/anaconda/envs/py35/share/psi4/basis/aug-cc-pvtz-jkfit.gbs 
    atoms 14    entry F          line   347 file /cbio/jclab/home/chayas/anaconda/envs/py35/share/psi4/basis/aug-cc-pvtz-jkfit.gbs 
    atoms 15-22 entry H          line    69 file /cbio/jclab/home/chayas/anaconda/envs/py35/share/psi4/basis/aug-cc-pvtz-jkfit.gbs 

  Reading orbitals from file 180, no projection.

  ==> Pre-Iterations <==

   -------------------------------------------------------
    Irrep   Nso     Nmo     Nalpha   Nbeta   Ndocc  Nsocc
   -------------------------------------------------------
     A        828     828       0       0       0       0
   -------------------------------------------------------
    Total     828     828      49      49      49       0
   -------------------------------------------------------

  ==> Integral Setup <==

  ==> DFJK: Density-Fitted J/K Matrices <==

    J tasked:                  Yes
    K tasked:                  Yes
    wK tasked:                  No
    OpenMP threads:              8
    Integrals threads:           8
    Memory (MB):              3576
    Algorithm:                Disk
    Integral Cache:           NONE
    Schwarz Cutoff:          1E-12
    Fitting Condition:       1E-12

   => Auxiliary Basis Set <=

  Basis Set: (AUG-CC-PVTZ AUX)
    Blend: AUG-CC-PVTZ-JKFIT
    Number of shells: 532
    Number of basis function: 1824
    Number of Cartesian functions: 2274
    Spherical Harmonics?: true
    Max angular momentum: 4

  Minimum eigenvalue in the overlap matrix is 6.3586317676E-07.
  Using Symmetric Orthogonalization.

  SCF Guess: Orbitals guess was supplied from a previous computation.

  ==> Iterations <==

                           Total Energy        Delta E     RMS |[F,P]|

   @DF-RHF iter   0:  -650.19034237612505   -6.50190e+02   3.99263e-04 
   @DF-RHF iter   1:  -650.11494521460099    7.53972e-02   6.76692e-05 
   @DF-RHF iter   2:  -650.11536714881549   -4.21934e-04   6.46584e-05 DIIS
   @DF-RHF iter   3:  -650.11555196613642   -1.84817e-04   9.93597e-06 DIIS
   @DF-RHF iter   4:  -650.11557512353602   -2.31574e-05   7.40998e-06 DIIS
   @DF-RHF iter   5:  -650.11558809205701   -1.29685e-05   2.52594e-06 DIIS
   @DF-RHF iter   6:  -650.11559283429119   -4.74223e-06   1.86131e-06 DIIS
   @DF-RHF iter   7:  -650.11559373467139   -9.00380e-07   3.73821e-07 DIIS
   @DF-RHF iter   8:  -650.11559378220647   -4.75351e-08   1.64675e-07 DIIS
   @DF-RHF iter   9:  -650.11559378502295   -2.81648e-09   7.05456e-08 DIIS
   @DF-RHF iter  10:  -650.11559378547827   -4.55316e-10   2.69694e-08 DIIS
   @DF-RHF iter  11:  -650.11559378554909   -7.08269e-11   1.07460e-08 DIIS
   @DF-RHF iter  12:  -650.11559378555933   -1.02318e-11   4.32415e-09 DIIS
   @DF-RHF iter  13:  -650.11559378557467   -1.53477e-11   1.04774e-09 DIIS
   @DF-RHF iter  14:  -650.11559378557160    3.06954e-12   6.19150e-10 DIIS
   @DF-RHF iter  15:  -650.11559378557490   -3.29692e-12   2.92374e-10 DIIS
   @DF-RHF iter  16:  -650.11559378557263    2.27374e-12   1.35743e-10 DIIS
   @DF-RHF iter  17:  -650.11559378556410    8.52651e-12   5.68642e-11 DIIS

  ==> Post-Iterations <==

    Orbital Energies (a.u.)
    -----------------------

    Doubly Occupied:                                                      

       1A    -26.317826     2A    -20.452228     3A    -15.687488  
       4A    -11.350340     5A    -11.345606     6A    -11.327298  
       7A    -11.309411     8A    -11.279956     9A    -11.270142  
      10A    -11.266372    11A    -11.241682    12A    -11.228728  
      13A    -11.200071    14A    -11.197931    15A     -1.641456  
      16A     -1.371788    17A     -1.278873    18A     -1.178762  
      19A     -1.118051    20A     -1.104004    21A     -1.010969  
      22A     -1.001441    23A     -0.932827    24A     -0.906677  
      25A     -0.839005    26A     -0.831112    27A     -0.813828  
      28A     -0.749259    29A     -0.725868    30A     -0.722560  
      31A     -0.706098    32A     -0.686996    33A     -0.680162  
      34A     -0.650813    35A     -0.644035    36A     -0.618305  
      37A     -0.609761    38A     -0.597470    39A     -0.561603  
      40A     -0.547211    41A     -0.525007    42A     -0.508995  
      43A     -0.494396    44A     -0.475311    45A     -0.414906  
      46A     -0.397432    47A     -0.361790    48A     -0.335828  
      49A     -0.247535  

    Virtual:                                                              

      50A     -0.004979    51A      0.013512    52A      0.023493  
      53A      0.026204    54A      0.039617    55A      0.043728  
      56A      0.045404    57A      0.058677    58A      0.061029  
      59A      0.063050    60A      0.064919    61A      0.070588  
      62A      0.073370    63A      0.083282    64A      0.085682  
      65A      0.094988    66A      0.098945    67A      0.105422  
      68A      0.108982    69A      0.110962    70A      0.118738  
      71A      0.120307    72A      0.122109    73A      0.130332  
      74A      0.132232    75A      0.136243    76A      0.139330  
      77A      0.145363    78A      0.148317    79A      0.150267  
      80A      0.154364    81A      0.158568    82A      0.163080  
      83A      0.165534    84A      0.169537    85A      0.175251  
      86A      0.178584    87A      0.180482    88A      0.185002  
      89A      0.189286    90A      0.195025    91A      0.198855  
      92A      0.202587    93A      0.204936    94A      0.211714  
      95A      0.217029    96A      0.221088    97A      0.228994  
      98A      0.229932    99A      0.234577   100A      0.236852  
     101A      0.242186   102A      0.246825   103A      0.249805  
     104A      0.252759   105A      0.257480   106A      0.260650  
     107A      0.266983   108A      0.273204   109A      0.274806  
     110A      0.278326   111A      0.288529   112A      0.289213  
     113A      0.292288   114A      0.299078   115A      0.301389  
     116A      0.301973   117A      0.310314   118A      0.313815  
     119A      0.318608   120A      0.320751   121A      0.332046  
     122A      0.334844   123A      0.337295   124A      0.339392  
     125A      0.346607   126A      0.348251   127A      0.352057  
     128A      0.355512   129A      0.358439   130A      0.365743  
     131A      0.366852   132A      0.369864   133A      0.378443  
     134A      0.381301   135A      0.383225   136A      0.391271  
     137A      0.398255   138A      0.401814   139A      0.403341  
     140A      0.408254   141A      0.416263   142A      0.418382  
     143A      0.422972   144A      0.429943   145A      0.434744  
     146A      0.436708   147A      0.442813   148A      0.445875  
     149A      0.448351   150A      0.454693   151A      0.455137  
     152A      0.458601   153A      0.462044   154A      0.465560  
     155A      0.469446   156A      0.471254   157A      0.475371  
     158A      0.478686   159A      0.479982   160A      0.488036  
     161A      0.490095   162A      0.493292   163A      0.495166  
     164A      0.497348   165A      0.501212   166A      0.508881  
     167A      0.512078   168A      0.515793   169A      0.518764  
     170A      0.527520   171A      0.533259   172A      0.535403  
     173A      0.539835   174A      0.541946   175A      0.549509  
     176A      0.551671   177A      0.555678   178A      0.561548  
     179A      0.566125   180A      0.569156   181A      0.572919  
     182A      0.585956   183A      0.589242   184A      0.600965  
     185A      0.603534   186A      0.607417   187A      0.612141  
     188A      0.618924   189A      0.622699   190A      0.629051  
     191A      0.636612   192A      0.636977   193A      0.645549  
     194A      0.652852   195A      0.659665   196A      0.666282  
     197A      0.676480   198A      0.679206   199A      0.680411  
     200A      0.685777   201A      0.693579   202A      0.695846  
     203A      0.701981   204A      0.706797   205A      0.710420  
     206A      0.715620   207A      0.720774   208A      0.726528  
     209A      0.729079   210A      0.741539   211A      0.743027  
     212A      0.749828   213A      0.752729   214A      0.759703  
     215A      0.765549   216A      0.770443   217A      0.778176  
     218A      0.780642   219A      0.789355   220A      0.797965  
     221A      0.802744   222A      0.810916   223A      0.815659  
     224A      0.821221   225A      0.826796   226A      0.833159  
     227A      0.837253   228A      0.849351   229A      0.855909  
     230A      0.862549   231A      0.865469   232A      0.870056  
     233A      0.876037   234A      0.878927   235A      0.883748  
     236A      0.887609   237A      0.896938   238A      0.900572  
     239A      0.902015   240A      0.905536   241A      0.907415  
     242A      0.916310   243A      0.920087   244A      0.921216  
     245A      0.926028   246A      0.927712   247A      0.939068  
     248A      0.941406   249A      0.951116   250A      0.951722  
     251A      0.959472   252A      0.962736   253A      0.967191  
     254A      0.968232   255A      0.976749   256A      0.980729  
     257A      0.982310   258A      0.983550   259A      0.989481  
     260A      0.990538   261A      0.996999   262A      1.005842  
     263A      1.007013   264A      1.009660   265A      1.018678  
[...]
    Number of basis function: 1852
    Number of Cartesian functions: 2344
    Spherical Harmonics?: true
    Max angular momentum: 4

	 --------------------------------------------------------
	                 NBF =   828, NAUX =  1852
	 --------------------------------------------------------
	   CLASS    FOCC     OCC    AOCC    AVIR     VIR    FVIR
	   PAIRS       0      49      49     779     779       0
	 --------------------------------------------------------


         ------------------------------------------------------------
                                     CPHF                           
                                  Rob Parrish                       
         ------------------------------------------------------------

  ==> Geometry <==

    Molecular point group: c1
    Full point group: C1

    Geometry (in Angstrom), charge = 0, multiplicity = 1:

       Center              X                  Y                   Z               Mass       
    ------------   -----------------  -----------------  -----------------  -----------------
           C         -1.370817488312     0.779703504950    -0.769869374308    12.000000000000
           C         -2.441381622793     1.349207883161    -0.104650388879    12.000000000000
           C          1.671773233501    -1.280301897751    -0.082894427869    12.000000000000
           C          1.009130864399    -0.131922796487    -2.103820175966    12.000000000000
           C         -1.442029551798     0.731228937375     2.021616168054    12.000000000000
           C          2.726826283079    -1.828091176085    -0.780109419537    12.000000000000
           C          2.079650118062    -0.707854969108    -2.749769901195    12.000000000000
           C         -0.323425808411     0.177974787443    -0.053660345511    12.000000000000
           C          0.788496582361    -0.413338589930    -0.746898511235    12.000000000000
           C         -2.494130971803     1.334475320498     1.304319789064    12.000000000000
           C         -0.379500502411     0.165051644800     1.346652800996    12.000000000000
           N          2.905661130739    -1.533678446069    -2.081837259353    14.003074004780
           O         -3.475601439828     1.857313961125     1.919509577636    15.994914619560
           F          0.613469667274    -0.402228867650     2.051756846210    18.998403224000
           H         -1.355816002926     0.802984247637    -1.853788537903     1.007825032070
           H         -3.236017405058     1.803479148791    -0.686792609682     1.007825032070
           H          1.545133593374    -1.530490317171     0.958116351075     1.007825032070
           H          0.354549056548     0.530283741249    -2.654485813061     1.007825032070
           H         -1.447330432817     0.701418654481     3.105859859155     1.007825032070
           H          3.447832281958    -2.502928238845    -0.343055854049     1.007825032070
           H          2.314132865075    -0.539770818481    -3.790499859627     1.007825032070
           H          3.689670961323    -1.947238650172    -2.575374165436     1.007825032070

  Nuclear repulsion =  819.593253369505192
  Reference energy  = -650.115593785564101

  ==> Basis Set <==

  Basis Set: AUG-CC-PVTZ
    Blend: AUG-CC-PVTZ
    Number of shells: 268
    Number of basis function: 828
    Number of Cartesian functions: 970
    Spherical Harmonics?: true
    Max angular momentum: 3

  ==> CGRSolver (by Rob Parrish) <==

   Number of roots    =         1
   Preconditioning    =    JACOBI
   Convergence cutoff =     1E-06
   Maximum iterations =       100

  ==> CPHFRHamiltonian (by Rob Parrish) <== 

  ==> DFJK: Density-Fitted J/K Matrices <==

    J tasked:                  Yes
    K tasked:                  Yes
    wK tasked:                  No
    OpenMP threads:              8
    Integrals threads:           8
    Memory (MB):              3576
    Algorithm:                Disk
    Integral Cache:           NONE
    Schwarz Cutoff:          1E-12
    Fitting Condition:       1E-12

   => Auxiliary Basis Set <=

  Basis Set: (AUG-CC-PVTZ AUX)
    Blend: AUG-CC-PVTZ-JKFIT
    Number of shells: 532
    Number of basis function: 1824
    Number of Cartesian functions: 2274
    Spherical Harmonics?: true
    Max angular momentum: 4

  ==> CPHF Iterations <==

  => Iterations <=

             Iter  Converged  Remaining    Residual
  CGR           1          0          1   1.526E-01
  CGR           2          0          1   5.843E-02
  CGR           3          0          1   2.923E-02
  CGR           4          0          1   8.924E-03
  CGR           5          0          1   2.977E-03
  CGR           6          0          1   1.211E-03
  CGR           7          0          1   5.417E-04
  CGR           8          0          1   2.075E-04
  CGR           9          0          1   1.014E-04
  CGR          10          0          1   4.448E-05
  CGR          11          0          1   1.796E-05
  CGR          12          0          1   4.955E-06
  CGR          13          0          1   2.187E-06
  CGR          14          1          0   7.880E-07

    CGRSolver converged.

  ==> DFCorrGrad: Density-Fitted Correlated Gradients <==

    OpenMP threads:              8
    Integrals threads:           8
    Memory (MB):              3576
    Schwarz Cutoff:          0E+00
    Fitting Condition:       1E-12

   => Auxiliary Basis Set <=

  Basis Set: (AUG-CC-PVTZ AUX)
    Blend: AUG-CC-PVTZ-JKFIT
    Number of shells: 532
    Number of basis function: 1824
    Number of Cartesian functions: 2274
    Spherical Harmonics?: true
    Max angular momentum: 4

	-----------------------------------------------------------
	 ==================> DF-MP2 Energies <==================== 
	-----------------------------------------------------------
	 Reference Energy          =    -650.1155937855641014 [Eh]
	 Singles Energy            =      -0.0000000000000002 [Eh]
	 Same-Spin Energy          =      -0.6779767559585914 [Eh]
	 Opposite-Spin Energy      =      -2.0274238210167126 [Eh]
	 Correlation Energy        =      -2.7054005769753040 [Eh]
	 Total Energy              =    -652.8209943625394089 [Eh]
	-----------------------------------------------------------
	 ================> DF-SCS-MP2 Energies <================== 
	-----------------------------------------------------------
	 SCS Same-Spin Scale       =       0.3333333333333333 [-]
	 SCS Opposite-Spin Scale   =       1.2000000000000000 [-]
	 SCS Same-Spin Energy      =      -0.2259922519861971 [Eh]
	 SCS Opposite-Spin Energy  =      -2.4329085852200549 [Eh]
	 SCS Correlation Energy    =      -2.6589008372062519 [Eh]
	 SCS Total Energy          =    -652.7744946227703622 [Eh]
	-----------------------------------------------------------


  -Total Gradient:
     Atom            X                  Y                   Z
    ------   -----------------  -----------------  -----------------
       1        0.025381403957    -0.018935720062    -0.009752180219
       2       -0.022904870693     0.011496413571     0.040507044691
       3       -0.031556204576     0.018482565216     0.012625570347
       4       -0.018271314568     0.011286492646     0.020493789532
       5       -0.042388620029     0.023201005533    -0.001312186381
       6        0.011787910630    -0.002880268313    -0.018174959283
       7        0.018451548166    -0.012927606720     0.001825987247
       8       -0.043299608571     0.023155905105     0.024593378171
       9        0.041365080350    -0.022445916812    -0.027816703792
      10        0.049224569369    -0.026561908986    -0.031225894984
      11        0.041785598122    -0.016537744359    -0.015143511563
      12       -0.015890754876     0.007883270059     0.009768310855
      13       -0.017654397529     0.009515025356     0.010661496173
      14        0.000261589453    -0.005049550082    -0.013116205045
      15        0.000567498689     0.001367175779    -0.004916433868
      16       -0.000571786565     0.001231298028    -0.007118862155
      17       -0.003141898534     0.002467110453     0.010214294714
      18       -0.005103467242     0.002421017106    -0.001459856232
      19        0.002993492190    -0.002376907659     0.004876612825
      20        0.002182674944    -0.000789534509    -0.000339081643
      21        0.001210109605    -0.000852367129    -0.001741739890
      22        0.005571447708    -0.003149754219    -0.003448869502


*** tstop() called on gpu-1-6.local at Sun Nov 12 02:33:41 2017
Module time:
	user time   =    5963.52 seconds =      99.39 minutes
	system time =     116.15 seconds =       1.94 minutes
	total time  =       2745 seconds =      45.75 minutes
Total time:
	user time   =   11844.42 seconds =     197.41 minutes
	system time =     240.39 seconds =       4.01 minutes
	total time  =       5527 seconds =      92.12 minutes

			-----------------------------------------
			 OPTKING 2.0: for geometry optimizations 
			  - R.A. King,  Bethel University        
			-----------------------------------------

	Previous internal coordinate definitions found.
	---Fragment 1 Geometry and Gradient---
	 C          -2.5904696311        1.4734260892       -1.4548422755
	 C          -4.6135426529        2.5496333955       -0.1977605747
	 C           3.1591935676       -2.4194199542       -0.1566477666
	 C           1.9069809660       -0.2492979560       -3.9756439654
	 C          -2.7250409284        1.3818224321        3.8203009034
	 C           5.1529548870       -3.4545916687       -1.4741931566
	 C           3.9299691754       -1.3376520334       -5.1963120417
	 C          -0.6111862022        0.3363236068       -0.1014033572
	 C           1.4900425974       -0.7810967351       -1.4114336353
	 C          -4.7132244763        2.5217928868        2.4648071910
	 C          -0.7171520168        0.3119024065        2.5448049900
	 N           5.4909037721       -2.8982322390       -3.9341022734
	 O          -6.5679348683        3.5098147293        3.6273474112
	 F           1.1592896620       -0.7601024026        3.8772585306
	 H          -2.5621209321        1.5174203171       -3.5031526449
	 H          -6.1151866568        3.4080816776       -1.2978499424
	 H           2.9198793302       -2.8922075485        1.8105775070
	 H           0.6700006175        1.0020910437       -5.0162512103
	 H          -2.7350581418        1.3254891615        5.8692245409
	 H           6.5154587650       -4.7298489017       -0.6482816124
	 H           4.3730773501       -1.0200190215       -7.1630066414
	 H           6.9724676374       -3.6797477642       -4.8667518624
	             0.0253814040       -0.0189357201       -0.0097521802
	            -0.0229048707        0.0114964136        0.0405070447
	            -0.0315562046        0.0184825652        0.0126255703
	            -0.0182713146        0.0112864926        0.0204937895
	            -0.0423886200        0.0232010055       -0.0013121864
	             0.0117879106       -0.0028802683       -0.0181749593
	             0.0184515482       -0.0129276067        0.0018259872
	            -0.0432996086        0.0231559051        0.0245933782
	             0.0413650804       -0.0224459168       -0.0278167038
	             0.0492245694       -0.0265619090       -0.0312258950
	             0.0417855981       -0.0165377444       -0.0151435116
	            -0.0158907549        0.0078832701        0.0097683109
	            -0.0176543975        0.0095150254        0.0106614962
	             0.0002615895       -0.0050495501       -0.0131162050
	             0.0005674987        0.0013671758       -0.0049164339
	            -0.0005717866        0.0012312980       -0.0071188622
	            -0.0031418985        0.0024671105        0.0102142947
	            -0.0051034672        0.0024210171       -0.0014598562
	             0.0029934922       -0.0023769077        0.0048766128
	             0.0021826749       -0.0007895345       -0.0003390816
	             0.0012101096       -0.0008523671       -0.0017417399
	             0.0055714477       -0.0031497542       -0.0034488695

	---Fragment 1 Intrafragment Coordinates---
	 - Coordinate -           - BOHR/RAD -       - ANG/DEG -
	 R(1,2)           =         2.613676	       1.383098
	 R(1,8)           =         2.653745	       1.404301
	 R(1,15)          =         2.048979	       1.084273
	 R(2,10)          =         2.664579	       1.410034
	 R(2,16)          =         2.049894	       1.084757
	 R(3,6)           =         2.604341	       1.378158
	 R(3,9)           =         2.654177	       1.404530
	 R(3,17)          =         2.037345	       1.078117
	 R(4,7)           =         2.601351	       1.376576
	 R(4,9)           =         2.651758	       1.403250
	 R(4,18)          =         2.044250	       1.081771
	 R(5,10)          =         2.662662	       1.409020
	 R(5,11)          =         2.608301	       1.380254
	 R(5,19)          =         2.049722	       1.084666
	 R(6,12)          =         2.544582	       1.346535
	 R(6,20)          =         2.040791	       1.079940
	 R(7,12)          =         2.542656	       1.345516
	 R(7,21)          =         2.040863	       1.079978
	 R(8,9)           =         2.716610	       1.437568
	 R(8,11)          =         2.648442	       1.401495
	 R(10,13)         =         2.401591	       1.270867
	 R(11,14)         =         2.538830	       1.343491
	 R(12,22)         =         1.917194	       1.014535
	 B(1,2,10)        =         2.100473	     120.348252
	 B(1,2,16)        =         2.072979	     118.772937
	 B(1,8,9)         =         2.102729	     120.477518
	 B(1,8,11)        =         2.075662	     118.926693
	 B(2,1,8)         =         2.104178	     120.560504
	 B(2,1,15)        =         2.074502	     118.860214
	 B(2,10,5)        =         2.077423	     119.027548
	 B(2,10,13)       =         2.104004	     120.550546
	 B(3,6,12)        =         2.098831	     120.254148
	 B(3,6,20)        =         2.158857	     123.693403
	 B(3,9,4)         =         2.073802	     118.820106
	 B(3,9,8)         =         2.108703	     120.819808
	 B(4,7,12)        =         2.095846	     120.083119
	 B(4,7,21)        =         2.160267	     123.774190
	 B(4,9,8)         =         2.100680	     120.360086
	 B(5,10,13)       =         2.101759	     120.421907
	 B(5,11,8)        =         2.112527	     121.038882
	 B(5,11,14)       =         2.077750	     119.046312
	 B(6,3,9)         =         2.080155	     119.184098
	 B(6,3,17)        =         2.078506	     119.089633
	 B(6,12,7)        =         2.132416	     122.178449
	 B(6,12,22)       =         2.075770	     118.932870
	 B(7,4,9)         =         2.085321	     119.480078
	 B(7,4,18)        =         2.080383	     119.197151
	 B(7,12,22)       =         2.074998	     118.888645
	 B(8,1,15)        =         2.104500	     120.578980
	 B(8,11,14)       =         2.092905	     119.914615
	 B(9,3,17)        =         2.124522	     121.726148
	 B(9,4,18)        =         2.117482	     121.322758
	 B(9,8,11)        =         2.104793	     120.595744
	 B(10,2,16)       =         2.109732	     120.878734
	 B(10,5,11)       =         2.096107	     120.098067
	 B(10,5,19)       =         2.114131	     121.130803
	 B(11,5,19)       =         2.072947	     118.771122
	 B(12,6,20)       =         2.025497	     116.052407
	 B(12,7,21)       =         2.027072	     116.142691
	 D(1,2,10,5)      =        -0.000661	      -0.037871
	 D(1,2,10,13)     =         3.140877	     179.958988
	 D(1,8,9,3)       =        -2.879192	    -164.965568
	 D(1,8,9,4)       =         0.262385	      15.033577
	 D(1,8,11,5)      =         0.000203	       0.011645
	 D(1,8,11,14)     =        -3.138586	    -179.827750
	 D(2,1,8,9)       =        -3.141510	    -179.995282
	 D(2,1,8,11)      =        -0.001247	      -0.071424
	 D(2,10,5,11)     =        -0.000375	      -0.021467
	 D(2,10,5,19)     =         3.140638	     179.945298
	 D(3,6,12,7)      =        -0.000141	      -0.008066
	 D(3,6,12,22)     =         3.140242	     179.922623
	 D(3,9,4,7)       =        -0.000266	      -0.015212
	 D(3,9,4,18)      =        -3.141123	    -179.973117
	 D(3,9,8,11)      =         0.263752	      15.111853
	 D(4,7,12,6)      =         0.000140	       0.008032
	 D(4,7,12,22)     =        -3.140243	    -179.922687
	 D(4,9,3,6)       =         0.000264	       0.015147
	 D(4,9,3,17)      =        -3.139105	    -179.857444
	 D(4,9,8,11)      =        -2.877856	    -164.889002
	 D(5,10,2,16)     =         3.139141	     179.859532
	 D(5,11,8,9)      =         3.140465	     179.935410
	 D(6,3,9,8)       =        -3.141343	    -179.985695
	 D(6,12,7,21)     =        -3.141574	    -179.998921
	 D(7,4,9,8)       =         3.141342	     179.985626
	 D(7,12,6,20)     =         3.140185	     179.919373
	 D(8,1,2,10)      =         0.001479	       0.084733
	 D(8,1,2,16)      =        -3.138360	    -179.814810
	 D(8,9,3,17)      =         0.002473	       0.141714
	 D(8,9,4,18)      =         0.000484	       0.027721
	 D(8,11,5,10)     =         0.000599	       0.034308
	 D(8,11,5,19)     =        -3.140427	    -179.933237
	 D(9,3,6,12)      =        -0.000066	      -0.003798
	 D(9,3,6,20)      =        -3.140291	    -179.925448
	 D(9,4,7,12)      =         0.000068	       0.003872
	 D(9,4,7,21)      =        -3.141394	    -179.988620
	 D(9,8,1,15)      =         0.003607	       0.206662
	 D(9,8,11,14)     =         0.001676	       0.096015
	 D(10,2,1,15)     =         3.139607	     179.886219
	 D(10,5,11,14)    =         3.139412	     179.875073
	 D(11,5,10,13)    =         3.141273	     179.981669
	 D(11,8,1,15)     =        -3.139315	    -179.869481
	 D(12,6,3,17)     =         3.139362	     179.872188
	 D(12,7,4,18)     =         3.140941	     179.962678
	 D(13,10,2,16)    =        -0.002506	      -0.143608
	 D(13,10,5,19)    =        -0.000900	      -0.051566
	 D(14,11,5,19)    =        -0.001614	      -0.092472
	 D(15,1,2,16)     =        -0.000233	      -0.013324
	 D(17,3,6,20)     =        -0.000863	      -0.049462
	 D(18,4,7,21)     =        -0.000520	      -0.029814
	 D(20,6,12,22)    =        -0.002617	      -0.149938
	 D(21,7,12,22)    =         0.001228	       0.070360
	 R(3,14)          =         4.798474	       2.539243

	Current energy   :      -652.8209943625

	Energy change for the previous step:
		Projected    :        -0.0109106809
		Actual       :        -0.0092685877

	Performing BFGS update.
	Previous computed or guess Hessian on step 1.
	Steps to be used in Hessian update: 1
	Adding user-defined constraint: Fragment 1; Coordinate 62:
		Value =    -2.879192; Fixed value    =    -2.879790
		Force =    -0.000314; Force constant =     0.525000
	Removing off-diagonal coupling between coordinate 62 and others.
	Taking RFO optimization step.
	Going to follow RFO solution 1.
	Using RFO vector 1.

	Determining step-restricting scale parameter for RS-RFO.
	Maximum step size allowed    0.10000

	 Iter      |step|        alpha        rfo_root  
	------------------------------------------------
	    0     0.36028       1.00000           1
	    1     0.24972       4.79908           1
	    2     0.17493      15.21956           1
	    3     0.13029      34.35675           1
	    4     0.10812      55.27832           1
	    5     0.10087      65.60041           1
	    6     0.10001      66.98120           1
	    7     0.10000      67.00056           1
	------------------------------------------------
	Norm of target step-size    0.10000
	Projected energy change by RFO approximation:        -0.0077606410

	Back-transformation to cartesian coordinates...
	The INTCO_EXCEPTion handler:
	TORS::compute_val: unable to compute torsion value
	Dynamic level is 0.
	exc.g_really_quit() is 0.

  **** Optimization has failed! (in 2 steps) ****
			--------------------------
			 OPTKING Finished Execution 
			--------------------------
	Cleaning optimization helper files.

*** Psi4 exiting successfully. Buy a developer a beer!
