
    -----------------------------------------------------------------------
          Psi4: An Open-Source Ab Initio Electronic Structure Package
                               Psi4 1.1 release

                         Git: Rev {HEAD} add49b9 


    R. M. Parrish, L. A. Burns, D. G. A. Smith, A. C. Simmonett,
    A. E. DePrince III, E. G. Hohenstein, U. Bozkaya, A. Yu. Sokolov,
    R. Di Remigio, R. M. Richard, J. F. Gonthier, A. M. James,
    H. R. McAlexander, A. Kumar, M. Saitow, X. Wang, B. P. Pritchard,
    P. Verma, H. F. Schaefer III, K. Patkowski, R. A. King, E. F. Valeev,
    F. A. Evangelista, J. M. Turney, T. D. Crawford, and C. D. Sherrill,
    J. Chem. Theory Comput. in press (2017).
    (doi: 10.1021/acs.jctc.7b00174)

    -----------------------------------------------------------------------


    Psi4 started on: Sunday, 12 November 2017 11:10AM

    Process ID:  32306
    PSIDATADIR: /cbio/jclab/home/chayas/anaconda/envs/py35/share/psi4
    Memory:     500.0 MiB
    Threads:    8
    
  ==> Input File <==

--------------------------------------------------------------------------

memory 5 Gb

molecule phepyrOH_neutral {
  symmetry C1
  0 1 
  C      1.885   -1.036   -0.112
  C      2.878   -1.652   2.002
  C      0.807   -0.463   0.561
  C      1.800   -1.079   2.676
  C      4.253   -1.944   -1.435
  C      4.907   -3.080   0.581
  C      5.339   -2.537   -2.058
  C      5.964   -3.622   -0.132
  C      2.921   -1.631   0.608
  C      4.040   -2.225   -0.090
  C      0.764   -0.484   1.955
  N      6.203   -3.372   -1.438
  O      -0.288   0.076   2.612
  H      1.904   -1.012   -1.199
  H      3.678   -2.112   2.578
  H      0.003   -0.001   -0.006
  H      1.772   -1.098   3.762
  H      3.598   -1.281   -1.992
  H      4.772   -3.323   1.631
  H      5.550   -2.348   -3.105
  H      6.668   -4.295   0.346
  H      -0.175   -0.018   3.571
  units Angstrom
}

dih_string = "1 9 10 5 15"
set optking fixed_dihedral = $dih_string

optimize('MP2/aug-cc-PVTZ')
--------------------------------------------------------------------------

  Memory set to   4.657 GiB by Python driver.
gradient() will perform analytic gradient computation.

*** tstart() called on gpu-1-14.local
*** at Sun Nov 12 11:10:59 2017

    SCF Algorithm Type (re)set to DF.

*** tstart() called on gpu-1-14.local
*** at Sun Nov 12 11:10:59 2017

   => Loading Basis Set <=

    Name: AUG-CC-PVTZ
    Role: ORBITAL
    Keyword: BASIS
    atoms 1-11  entry C          line   221 file /cbio/jclab/home/chayas/anaconda/envs/py35/share/psi4/basis/aug-cc-pvtz.gbs 
    atoms 12    entry N          line   267 file /cbio/jclab/home/chayas/anaconda/envs/py35/share/psi4/basis/aug-cc-pvtz.gbs 
    atoms 13    entry O          line   313 file /cbio/jclab/home/chayas/anaconda/envs/py35/share/psi4/basis/aug-cc-pvtz.gbs 
    atoms 14-22 entry H          line    34 file /cbio/jclab/home/chayas/anaconda/envs/py35/share/psi4/basis/aug-cc-pvtz.gbs 


         ---------------------------------------------------------
                                   SCF
            by Justin Turney, Rob Parrish, and Andy Simmonett
                              RHF Reference
                        8 Threads,   4768 MiB Core
         ---------------------------------------------------------

  ==> Geometry <==

    Molecular point group: c1
    Full point group: C1

    Geometry (in Angstrom), charge = 0, multiplicity = 1:

       Center              X                  Y                   Z               Mass       
    ------------   -----------------  -----------------  -----------------  -----------------
           C         -1.253731584049     0.709780762787    -0.591013076244    12.000000000000
           C         -0.260731584049     0.093780762787     1.522986923756    12.000000000000
           C         -2.331731584049     1.282780762787     0.081986923756    12.000000000000
           C         -1.338731584049     0.666780762787     2.196986923756    12.000000000000
           C          1.114268415951    -0.198219237213    -1.914013076244    12.000000000000
           C          1.768268415951    -1.334219237213     0.101986923756    12.000000000000
           C          2.200268415951    -0.791219237213    -2.537013076244    12.000000000000
           C          2.825268415951    -1.876219237213    -0.611013076244    12.000000000000
           C         -0.217731584049     0.114780762787     0.128986923756    12.000000000000
           C          0.901268415951    -0.479219237213    -0.569013076244    12.000000000000
           C         -2.374731584049     1.261780762787     1.475986923756    12.000000000000
           N          3.064268415951    -1.626219237213    -1.917013076244    14.003074004780
           O         -3.426731584049     1.821780762787     2.132986923756    15.994914619560
           H         -1.234731584049     0.733780762787    -1.678013076244     1.007825032070
           H          0.539268415951    -0.366219237213     2.098986923756     1.007825032070
           H         -3.135731584049     1.744780762787    -0.485013076244     1.007825032070
           H         -1.366731584049     0.647780762787     3.282986923756     1.007825032070
           H          0.459268415951     0.464780762787    -2.471013076244     1.007825032070
           H          1.633268415951    -1.577219237213     1.151986923756     1.007825032070
           H          2.411268415951    -0.602219237213    -3.584013076244     1.007825032070
           H          3.529268415951    -2.549219237213    -0.133013076244     1.007825032070
           H         -3.313731584049     1.727780762787     3.091986923756     1.007825032070

  Running in c1 symmetry.

  Rotational constants: A =      0.09695  B =      0.01364  C =      0.01201 [cm^-1]
  Rotational constants: A =   2906.42111  B =    409.00657  C =    360.05873 [MHz]
  Nuclear repulsion =  699.024127673116368

  Charge       = 0
  Multiplicity = 1
  Electrons    = 90
  Nalpha       = 45
  Nbeta        = 45

  ==> Algorithm <==

  SCF Algorithm Type is DF.
  DIIS enabled.
  MOM disabled.
  Fractional occupation disabled.
  Guess Type is SAD.
  Energy threshold   = 1.00e-10
  Density threshold  = 1.00e-10
  Integral threshold = 0.00e+00

  ==> Primary Basis <==

  Basis Set: AUG-CC-PVTZ
    Blend: AUG-CC-PVTZ
    Number of shells: 263
    Number of basis function: 805
    Number of Cartesian functions: 940
    Spherical Harmonics?: true
    Max angular momentum: 3

   => Loading Basis Set <=

    Name: (AUG-CC-PVTZ AUX)
    Role: JKFIT
    Keyword: DF_BASIS_SCF
    atoms 1-11  entry C          line   161 file /cbio/jclab/home/chayas/anaconda/envs/py35/share/psi4/basis/aug-cc-pvtz-jkfit.gbs 
    atoms 12    entry N          line   223 file /cbio/jclab/home/chayas/anaconda/envs/py35/share/psi4/basis/aug-cc-pvtz-jkfit.gbs 
    atoms 13    entry O          line   285 file /cbio/jclab/home/chayas/anaconda/envs/py35/share/psi4/basis/aug-cc-pvtz-jkfit.gbs 
    atoms 14-22 entry H          line    69 file /cbio/jclab/home/chayas/anaconda/envs/py35/share/psi4/basis/aug-cc-pvtz-jkfit.gbs 

  ==> Pre-Iterations <==

   -------------------------------------------------------
    Irrep   Nso     Nmo     Nalpha   Nbeta   Ndocc  Nsocc
   -------------------------------------------------------
     A        805     805       0       0       0       0
   -------------------------------------------------------
    Total     805     805      45      45      45       0
   -------------------------------------------------------

  ==> Integral Setup <==

  ==> DFJK: Density-Fitted J/K Matrices <==

    J tasked:                  Yes
    K tasked:                  Yes
    wK tasked:                  No
    OpenMP threads:              8
    Integrals threads:           8
    Memory (MB):              3576
    Algorithm:                Disk
    Integral Cache:           NONE
    Schwarz Cutoff:          1E-12
    Fitting Condition:       1E-12

   => Auxiliary Basis Set <=

  Basis Set: (AUG-CC-PVTZ AUX)
    Blend: AUG-CC-PVTZ-JKFIT
    Number of shells: 516
    Number of basis function: 1766
    Number of Cartesian functions: 2198
    Spherical Harmonics?: true
    Max angular momentum: 4

  Minimum eigenvalue in the overlap matrix is 5.1543907326E-07.
  Using Symmetric Orthogonalization.

  SCF Guess: Superposition of Atomic Densities via on-the-fly atomic UHF.

  ==> Iterations <==

                           Total Energy        Delta E     RMS |[F,P]|

   @DF-RHF iter   0:  -556.18176377713439   -5.56182e+02   1.43017e-02 
   @DF-RHF iter   1:  -550.93653361952761    5.24523e+00   1.57808e-03 
   @DF-RHF iter   2:  -551.23605615175450   -2.99523e-01   4.75089e-04 DIIS
   @DF-RHF iter   3:  -551.27173248560302   -3.56763e-02   2.90916e-04 DIIS
   @DF-RHF iter   4:  -551.28089441205725   -9.16193e-03   6.89738e-05 DIIS
   @DF-RHF iter   5:  -551.28153649886099   -6.42087e-04   2.81647e-05 DIIS
   @DF-RHF iter   6:  -551.28167022028117   -1.33721e-04   1.12279e-05 DIIS
   @DF-RHF iter   7:  -551.28169833188531   -2.81116e-05   4.36391e-06 DIIS
   @DF-RHF iter   8:  -551.28170352953316   -5.19765e-06   1.48391e-06 DIIS
   @DF-RHF iter   9:  -551.28170490493642   -1.37540e-06   6.82257e-07 DIIS
   @DF-RHF iter  10:  -551.28170524179279   -3.36856e-07   3.64749e-07 DIIS
   @DF-RHF iter  11:  -551.28170531736930   -7.55765e-08   1.14576e-07 DIIS
   @DF-RHF iter  12:  -551.28170532486172   -7.49242e-09   4.56214e-08 DIIS
   @DF-RHF iter  13:  -551.28170532608351   -1.22179e-09   2.07214e-08 DIIS
   @DF-RHF iter  14:  -551.28170532639115   -3.07637e-10   1.25153e-08 DIIS
   @DF-RHF iter  15:  -551.28170532644788   -5.67297e-11   5.34443e-09 DIIS
   @DF-RHF iter  16:  -551.28170532644697    9.09495e-13   2.17800e-09 DIIS
   @DF-RHF iter  17:  -551.28170532648096   -3.39924e-11   7.48710e-10 DIIS
   @DF-RHF iter  18:  -551.28170532648176   -7.95808e-13   2.82792e-10 DIIS
   @DF-RHF iter  19:  -551.28170532646561    1.61435e-11   1.08760e-10 DIIS
   @DF-RHF iter  20:  -551.28170532647243   -6.82121e-12   5.01250e-11 DIIS

  ==> Post-Iterations <==

    Orbital Energies (a.u.)
    -----------------------

    Doubly Occupied:                                                      

       1A    -20.602400     2A    -15.559844     3A    -11.317655  
       4A    -11.273477     5A    -11.273459     6A    -11.263259  
       7A    -11.256006     8A    -11.254688     9A    -11.246807  
      10A    -11.244511    11A    -11.243303    12A    -11.234980  
      13A    -11.234824    14A     -1.417507    15A     -1.247597  
      16A     -1.175005    17A     -1.104213    18A     -1.041063  
      19A     -1.027935    20A     -1.009619    21A     -0.883274  
      22A     -0.876304    23A     -0.836668    24A     -0.810583  
      25A     -0.751620    26A     -0.725595    27A     -0.686031  
      28A     -0.669472    29A     -0.647057    30A     -0.631137  
      31A     -0.617462    32A     -0.607962    33A     -0.603394  
      34A     -0.588692    35A     -0.573857    36A     -0.547200  
      37A     -0.532656    38A     -0.524292    39A     -0.500180  
      40A     -0.494470    41A     -0.416211    42A     -0.399493  
      43A     -0.357927    44A     -0.347444    45A     -0.302709  

    Virtual:                                                              

      46A      0.021026    47A      0.029290    48A      0.032026  
      49A      0.040161    50A      0.043144    51A      0.046669  
      52A      0.057823    53A      0.059463    54A      0.066035  
      55A      0.074494    56A      0.077312    57A      0.082921  
      58A      0.086068    59A      0.090529    60A      0.096059  
      61A      0.101335    62A      0.103198    63A      0.108940  
      64A      0.110091    65A      0.111504    66A      0.116153  
      67A      0.120241    68A      0.126247    69A      0.128331  
      70A      0.133246    71A      0.135352    72A      0.138935  
      73A      0.139432    74A      0.143744    75A      0.144631  
      76A      0.149201    77A      0.150555    78A      0.155877  
      79A      0.164045    80A      0.167297    81A      0.170623  
      82A      0.172209    83A      0.179608    84A      0.182936  
      85A      0.187429    86A      0.189975    87A      0.197165  
      88A      0.201462    89A      0.208963    90A      0.214944  
      91A      0.220155    92A      0.226713    93A      0.229768  
      94A      0.236401    95A      0.238635    96A      0.248415  
      97A      0.249615    98A      0.252031    99A      0.254331  
     100A      0.257706   101A      0.259537   102A      0.264525  
     103A      0.266528   104A      0.270542   105A      0.274970  
     106A      0.280181   107A      0.289161   108A      0.289825  
     109A      0.293023   110A      0.298192   111A      0.301594  
     112A      0.305747   113A      0.308079   114A      0.311444  
     115A      0.318252   116A      0.321267   117A      0.328524  
     118A      0.329265   119A      0.331877   120A      0.336776  
     121A      0.343129   122A      0.346017   123A      0.353350  
     124A      0.359385   125A      0.364201   126A      0.368747  
     127A      0.373613   128A      0.381387   129A      0.384493  
     130A      0.393957   131A      0.397140   132A      0.400468  
     133A      0.407294   134A      0.412994   135A      0.417464  
     136A      0.421191   137A      0.422815   138A      0.429761  
     139A      0.432591   140A      0.436105   141A      0.437200  
     142A      0.438811   143A      0.443695   144A      0.448152  
     145A      0.448927   146A      0.451997   147A      0.458006  
     148A      0.465812   149A      0.466803   150A      0.468838  
     151A      0.474248   152A      0.478849   153A      0.487046  
     154A      0.487849   155A      0.492375   156A      0.496455  
     157A      0.499232   158A      0.500847   159A      0.503409  
     160A      0.505376   161A      0.509114   162A      0.510414  
     163A      0.513318   164A      0.517121   165A      0.519477  
     166A      0.522824   167A      0.525476   168A      0.531126  
     169A      0.539184   170A      0.543591   171A      0.550460  
     172A      0.552045   173A      0.556641   174A      0.564950  
     175A      0.568609   176A      0.571199   177A      0.572802  
     178A      0.580722   179A      0.588907   180A      0.594227  
     181A      0.596516   182A      0.603235   183A      0.609904  
     184A      0.614849   185A      0.623789   186A      0.630145  
     187A      0.634565   188A      0.642910   189A      0.648372  
     190A      0.655826   191A      0.658160   192A      0.659081  
     193A      0.678995   194A      0.686338   195A      0.689966  
     196A      0.695774   197A      0.698957   198A      0.700677  
     199A      0.703958   200A      0.709467   201A      0.710756  
     202A      0.716403   203A      0.721977   204A      0.727754  
     205A      0.737322   206A      0.743410   207A      0.746889  
     208A      0.751166   209A      0.755808   210A      0.768860  
     211A      0.773388   212A      0.777556   213A      0.782242  
     214A      0.796872   215A      0.801668   216A      0.807149  
     217A      0.809565   218A      0.811631   219A      0.821762  
     220A      0.825422   221A      0.832695   222A      0.835937  
     223A      0.840441   224A      0.844837   225A      0.848777  
     226A      0.857428   227A      0.860981   228A      0.871129  
     229A      0.875060   230A      0.881898   231A      0.882991  
     232A      0.886367   233A      0.891199   234A      0.891476  
     235A      0.898680   236A      0.900045   237A      0.905734  
     238A      0.915756   239A      0.916572   240A      0.922738  
     241A      0.928074   242A      0.935782   243A      0.937209  
     244A      0.940615   245A      0.944536   246A      0.945613  
     247A      0.954597   248A      0.960367   249A      0.966344  
     250A      0.974242   251A      0.976667   252A      0.979192  
     253A      0.984982   254A      0.988671   255A      0.992115  
     256A      0.994784   257A      0.996263   258A      1.000162  
     259A      1.008170   260A      1.015375   261A      1.020169  
     262A      1.024301   263A      1.027593   264A      1.028232  
     265A      1.030906   266A      1.038764   267A      1.040728  
     268A      1.042784   269A      1.046785   270A      1.056332  
     271A      1.058910   272A      1.066059   273A      1.069957  
     274A      1.071853   275A      1.080651   276A      1.082432  
     277A      1.086594   278A      1.096194   279A      1.099302  
     280A      1.100339   281A      1.104458   282A      1.112460  
     283A      1.120976   284A      1.127361   285A      1.128607  
     286A      1.136903   287A      1.141320   288A      1.144627  
     289A      1.149840   290A      1.155377   291A      1.160538  
     292A      1.165543   293A      1.169293   294A      1.175640  
     295A      1.178326   296A      1.182640   297A      1.185238  
     298A      1.192603   299A      1.193810   300A      1.203300  
     301A      1.208777   302A      1.211396   303A      1.216019  
     304A      1.217802   305A      1.225178   306A      1.230408  
     307A      1.234812   308A      1.242977   309A      1.249162  
     310A      1.255095   311A      1.256616   312A      1.265774  
     313A      1.278065   314A      1.281929   315A      1.286540  
     316A      1.291516   317A      1.302045   318A      1.305508  
     319A      1.309243   320A      1.313841   321A      1.318157  
     322A      1.327603   323A      1.332158   324A      1.334086  
     325A      1.345453   326A      1.353433   327A      1.368007  
     328A      1.381127   329A      1.385941   330A      1.388664  
     331A      1.393187   332A      1.400158   333A      1.408201  
     334A      1.414227   335A      1.416768   336A      1.435072  
     337A      1.443787   338A      1.459670   339A      1.462657  
     340A      1.464715   341A      1.472082   342A      1.480917  
     343A      1.485948   344A      1.497480   345A      1.499346  
     346A      1.504063   347A      1.508093   348A      1.519813  
     349A      1.534403   350A      1.541394   351A      1.547694  
     352A      1.563381   353A      1.564606   354A      1.586239  
     355A      1.589398   356A      1.595878   357A      1.605619  
     358A      1.619423   359A      1.620367   360A      1.626356  
     361A      1.639198   362A      1.644894   363A      1.654783  
     364A      1.663789   365A      1.668220   366A      1.674709  
     367A      1.682596   368A      1.688549   369A      1.705183  
     370A      1.706216   371A      1.711761   372A      1.715686  
     373A      1.725824   374A      1.734652   375A      1.736948  
     376A      1.739952   377A      1.757944   378A      1.758945  
     379A      1.770791   380A      1.780133   381A      1.789153  
     382A      1.805256   383A      1.806876   384A      1.811823  
     385A      1.819405   386A      1.827488   387A      1.829546  
     388A      1.844830   389A      1.847401   390A      1.852903  
     391A      1.855240   392A      1.869959   393A      1.876540  
     394A      1.884114   395A      1.887945   396A      1.895773  
     397A      1.910488   398A      1.925088   399A      1.932675  
     400A      1.941419   401A      1.948929   402A      1.954283  
     403A      1.959364   404A      1.969542   405A      1.975513  
     406A      1.978174   407A      1.993639   408A      1.996842  
     409A      2.004008   410A      2.005142   411A      2.012404  
     412A      2.028736   413A      2.033842   414A      2.037484  
     415A      2.043962   416A      2.048177   417A      2.051848  
     418A      2.054836   419A      2.062019   420A      2.064954  
     421A      2.079275   422A      2.101514   423A      2.102143  
     424A      2.108224   425A      2.114761   426A      2.120171  
     427A      2.126454   428A      2.146906   429A      2.149556  
     430A      2.153309   431A      2.160440   432A      2.176289  
     433A      2.177511   434A      2.186174   435A      2.193007  
     436A      2.200979   437A      2.210668   438A      2.216842  
     439A      2.220733   440A      2.228057   441A      2.236700  
     442A      2.247656   443A      2.261386   444A      2.269765  
     445A      2.273484   446A      2.280271   447A      2.292126  
     448A      2.315340   449A      2.317194   450A      2.327120  
     451A      2.328620   452A      2.345314   453A      2.362155  
     454A      2.368156   455A      2.385110   456A      2.389929  
     457A      2.393234   458A      2.401887   459A      2.419844  
     460A      2.430024   461A      2.433957   462A      2.448880  
     463A      2.456882   464A      2.469755   465A      2.477396  
     466A      2.481826   467A      2.498158   468A      2.504744  
     469A      2.525865   470A      2.538066   471A      2.543651  
     472A      2.557542   473A      2.569723   474A      2.575836  
     475A      2.585021   476A      2.594244   477A      2.610009  
     478A      2.621682   479A      2.635087   480A      2.653714  
     481A      2.658850   482A      2.694285   483A      2.702707  
     484A      2.726779   485A      2.734768   486A      2.766234  
     487A      2.779219   488A      2.781015   489A      2.802273  
     490A      2.829762   491A      2.838347   492A      2.848730  
     493A      2.854628   494A      2.860148   495A      2.874882  
     496A      2.890057   497A      2.905244   498A      2.908926  
     499A      2.955734   500A      2.970523   501A      3.010630  
     502A      3.024304   503A      3.041814   504A      3.074497  
     505A      3.075897   506A      3.095491   507A      3.110492  
     508A      3.132140   509A      3.151219   510A      3.178316  
     511A      3.205244   512A      3.220401   513A      3.228220  
     514A      3.240428   515A      3.256412   516A      3.264403  
     517A      3.274611   518A      3.299694   519A      3.306511  
     520A      3.308760   521A      3.326984   522A      3.344258  
     523A      3.353342   524A      3.363189   525A      3.369814  
     526A      3.372021   527A      3.384073   528A      3.385743  
     529A      3.398838   530A      3.418040   531A      3.432191  
     532A      3.439456   533A      3.440173   534A      3.451238  
     535A      3.453886   536A      3.471080   537A      3.480073  
     538A      3.493267   539A      3.507658   540A      3.520264  
     541A      3.528497   542A      3.530738   543A      3.537728  
     544A      3.541067   545A      3.553781   546A      3.565395  
     547A      3.570421   548A      3.572771   549A      3.585889  
     550A      3.596575   551A      3.600955   552A      3.616289  
     553A      3.631516   554A      3.645842   555A      3.649428  
     556A      3.657998   557A      3.664991   558A      3.665347  
     559A      3.676858   560A      3.686702   561A      3.692514  
     562A      3.704193   563A      3.721205   564A      3.737311  
     565A      3.753543   566A      3.764992   567A      3.770728  
     568A      3.780250   569A      3.788418   570A      3.797284  
     571A      3.804933   572A      3.809197   573A      3.828446  
     574A      3.830705   575A      3.852062   576A      3.857216  
     577A      3.871043   578A      3.874560   579A      3.878135  
     580A      3.888672   581A      3.889872   582A      3.902539  
     583A      3.917206   584A      3.920507   585A      3.928466  
     586A      3.931904   587A      3.949228   588A      3.953160  
     589A      3.961458   590A      3.963656   591A      3.968725  
     592A      3.976755   593A      3.989749   594A      3.999350  
     595A      4.006160   596A      4.007930   597A      4.024625  
     598A      4.030842   599A      4.036910   600A      4.039314  
     601A      4.055689   602A      4.070565   603A      4.075695  
     604A      4.100887   605A      4.105039   606A      4.118493  
     607A      4.126183   608A      4.140144   609A      4.144865  
     610A      4.155410   611A      4.162625   612A      4.173020  
     613A      4.178443   614A      4.184988   615A      4.197203  
     616A      4.204580   617A      4.218351   618A      4.222103  
     619A      4.225223   620A      4.230443   621A      4.243131  
     622A      4.246237   623A      4.266025   624A      4.271907  
     625A      4.284569   626A      4.299181   627A      4.311328  
     628A      4.313313   629A      4.320153   630A      4.324745  
     631A      4.342228   632A      4.344474   633A      4.349773  
     634A      4.358605   635A      4.376084   636A      4.386598  
     637A      4.393452   638A      4.401383   639A      4.413067  
     640A      4.420138   641A      4.429361   642A      4.440840  
     643A      4.448905   644A      4.458054   645A      4.463539  
     646A      4.468805   647A      4.479815   648A      4.485047  
     649A      4.490609   650A      4.498941   651A      4.517478  
     652A      4.522678   653A      4.540760   654A      4.541903  
     655A      4.557738   656A      4.568762   657A      4.575389  
     658A      4.597080   659A      4.603763   660A      4.621367  
     661A      4.635347   662A      4.641956   663A      4.656559  
     664A      4.666089   665A      4.675950   666A      4.679945  
     667A      4.715459   668A      4.718621   669A      4.737652  
     670A      4.741291   671A      4.765957   672A      4.778365  
     673A      4.798795   674A      4.816059   675A      4.819532  
     676A      4.843918   677A      4.854721   678A      4.874945  
     679A      4.882594   680A      4.884024   681A      4.912888  
     682A      4.925778   683A      4.930770   684A      4.940196  
     685A      4.955511   686A      4.967794   687A      4.983407  
     688A      4.987922   689A      5.017434   690A      5.023960  
     691A      5.034061   692A      5.038806   693A      5.040367  
     694A      5.049130   695A      5.086443   696A      5.098436  
     697A      5.101897   698A      5.108728   699A      5.115217  
     700A      5.140152   701A      5.151206   702A      5.151494  
     703A      5.156488   704A      5.167687   705A      5.171800  
     706A      5.173132   707A      5.195437   708A      5.206106  
     709A      5.229071   710A      5.240996   711A      5.262362  
     712A      5.283320   713A      5.298974   714A      5.300228  
     715A      5.320761   716A      5.341594   717A      5.346517  
     718A      5.356919   719A      5.382998   720A      5.408842  
     721A      5.431332   722A      5.439448   723A      5.446301  
     724A      5.464234   725A      5.469338   726A      5.497266  
     727A      5.516338   728A      5.539823   729A      5.555029  
     730A      5.556437   731A      5.563942   732A      5.615566  
     733A      5.626792   734A      5.693995   735A      5.703830  
     736A      5.722659   737A      5.743690   738A      5.749654  
     739A      5.775858   740A      5.800974   741A      5.810296  
     742A      5.823857   743A      5.831689   744A      5.848567  
     745A      5.897421   746A      5.911649   747A      5.915926  
     748A      5.959056   749A      5.990902   750A      6.086952  
     751A      6.100352   752A      6.129834   753A      6.180843  
     754A      6.185289   755A      6.244101   756A      6.274253  
     757A      6.295616   758A      6.351537   759A      6.394350  
     760A      6.414995   761A      6.460369   762A      6.471073  
     763A      6.491762   764A      6.547457   765A      6.584015  
     766A      6.624770   767A      6.659092   768A      6.722379  
     769A      6.736904   770A      6.747629   771A      6.752905  
     772A      6.891066   773A      6.894964   774A      6.912557  
     775A      6.918114   776A      6.961521   777A      6.963534  
     778A      7.001112   779A      7.059747   780A      7.102470  
     781A      7.132528   782A      7.228885   783A      7.257192  
     784A      7.420690   785A      7.425849   786A      7.461655  
     787A      7.680787   788A      7.716654   789A      7.756982  
     790A      8.013410   791A      8.391162   792A      8.639525  
     793A     15.610427   794A     16.414307   795A     16.713202  
     796A     16.967464   797A     17.260461   798A     18.577077  
     799A     18.894718   800A     19.536513   801A     19.720329  
     802A     20.350599   803A     20.436153   804A     20.782990  
     805A     21.508189  

    Final Occupation by Irrep:
              A 
    DOCC [    45 ]

  Energy converged.

  @DF-RHF Final Energy:  -551.28170532647243

   => Energetics <=

    Nuclear Repulsion Energy =            699.0241276731163680
    One-Electron Energy =               -2134.6919810110607614
    Two-Electron Energy =                 884.3861480114720734
    DFT Exchange-Correlation Energy =       0.0000000000000000
    Empirical Dispersion Energy =           0.0000000000000000
    PCM Polarization Energy =               0.0000000000000000
    EFP Energy =                            0.0000000000000000
    Total Energy =                       -551.2817053264724336



Properties will be evaluated at   0.000000,   0.000000,   0.000000 Bohr

Properties computed using the SCF density matrix

  Nuclear Dipole Moment: (a.u.)
     X:    -0.4740      Y:     0.2235      Z:     1.2110

  Electronic Dipole Moment: (a.u.)
     X:    -0.2219      Y:     0.1280      Z:    -0.1863

  Dipole Moment: (a.u.)
     X:    -0.6959      Y:     0.3515      Z:     1.0247     Total:     1.2876

  Dipole Moment: (Debye)
     X:    -1.7688      Y:     0.8935      Z:     2.6046     Total:     3.2727


*** tstop() called on gpu-1-14.local at Sun Nov 12 11:18:17 2017
Module time:
	user time   =    1019.93 seconds =      17.00 minutes
	system time =      52.68 seconds =       0.88 minutes
	total time  =        438 seconds =       7.30 minutes
Total time:
	user time   =    1019.94 seconds =      17.00 minutes
	system time =      52.68 seconds =       0.88 minutes
	total time  =        438 seconds =       7.30 minutes

  //>>>>>>>>>>>>>>>>>>>>>>>>>>>>>>>>>>>//
  //               DFMP2               //
  //<<<<<<<<<<<<<<<<<<<<<<<<<<<<<<<<<<<//

   => Loading Basis Set <=

    Name: (AUG-CC-PVTZ AUX)
    Role: RIFIT
    Keyword: DF_BASIS_MP2
    atoms 1-11  entry C          line   147 file /cbio/jclab/home/chayas/anaconda/envs/py35/share/psi4/basis/aug-cc-pvtz-ri.gbs 
    atoms 12    entry N          line   205 file /cbio/jclab/home/chayas/anaconda/envs/py35/share/psi4/basis/aug-cc-pvtz-ri.gbs 
    atoms 13    entry O          line   263 file /cbio/jclab/home/chayas/anaconda/envs/py35/share/psi4/basis/aug-cc-pvtz-ri.gbs 
    atoms 14-22 entry H          line    29 file /cbio/jclab/home/chayas/anaconda/envs/py35/share/psi4/basis/aug-cc-pvtz-ri.gbs 

	 --------------------------------------------------------
	                          DF-MP2                         
	      2nd-Order Density-Fitted Moller-Plesset Theory     
	              RMP2 Wavefunction,   8 Threads             
	                                                         
	        Rob Parrish, Justin Turney, Andy Simmonett,      
	           Ed Hohenstein, and C. David Sherrill          
	 --------------------------------------------------------

   => Auxiliary Basis Set <=

  Basis Set: (AUG-CC-PVTZ AUX)
    Blend: AUG-CC-PVTZ-RI
    Number of shells: 490
    Number of basis function: 1792
    Number of Cartesian functions: 2263
    Spherical Harmonics?: true
    Max angular momentum: 4

	 --------------------------------------------------------
	                 NBF =   805, NAUX =  1792
	 --------------------------------------------------------
	   CLASS    FOCC     OCC    AOCC    AVIR     VIR    FVIR
	   PAIRS       0      45      45     760     760       0
	 --------------------------------------------------------


         ------------------------------------------------------------
                                     CPHF                           
                                  Rob Parrish                       
         ------------------------------------------------------------

  ==> Geometry <==

    Molecular point group: c1
    Full point group: C1

    Geometry (in Angstrom), charge = 0, multiplicity = 1:

       Center              X                  Y                   Z               Mass       
    ------------   -----------------  -----------------  -----------------  -----------------
           C         -1.253731584049     0.709780762787    -0.591013076244    12.000000000000
           C         -0.260731584049     0.093780762787     1.522986923756    12.000000000000
           C         -2.331731584049     1.282780762787     0.081986923756    12.000000000000
           C         -1.338731584049     0.666780762787     2.196986923756    12.000000000000
           C          1.114268415951    -0.198219237213    -1.914013076244    12.000000000000
           C          1.768268415951    -1.334219237213     0.101986923756    12.000000000000
           C          2.200268415951    -0.791219237213    -2.537013076244    12.000000000000
           C          2.825268415951    -1.876219237213    -0.611013076244    12.000000000000
           C         -0.217731584049     0.114780762787     0.128986923756    12.000000000000
           C          0.901268415951    -0.479219237213    -0.569013076244    12.000000000000
           C         -2.374731584049     1.261780762787     1.475986923756    12.000000000000
           N          3.064268415951    -1.626219237213    -1.917013076244    14.003074004780
           O         -3.426731584049     1.821780762787     2.132986923756    15.994914619560
           H         -1.234731584049     0.733780762787    -1.678013076244     1.007825032070
           H          0.539268415951    -0.366219237213     2.098986923756     1.007825032070
           H         -3.135731584049     1.744780762787    -0.485013076244     1.007825032070
           H         -1.366731584049     0.647780762787     3.282986923756     1.007825032070
           H          0.459268415951     0.464780762787    -2.471013076244     1.007825032070
           H          1.633268415951    -1.577219237213     1.151986923756     1.007825032070
           H          2.411268415951    -0.602219237213    -3.584013076244     1.007825032070
           H          3.529268415951    -2.549219237213    -0.133013076244     1.007825032070
           H         -3.313731584049     1.727780762787     3.091986923756     1.007825032070

  Nuclear repulsion =  699.024127673116368
  Reference energy  = -551.281705326472434

  ==> Basis Set <==

  Basis Set: AUG-CC-PVTZ
    Blend: AUG-CC-PVTZ
    Number of shells: 263
    Number of basis function: 805
    Number of Cartesian functions: 940
    Spherical Harmonics?: true
    Max angular momentum: 3

  ==> CGRSolver (by Rob Parrish) <==

   Number of roots    =         1
   Preconditioning    =    JACOBI
   Convergence cutoff =     1E-06
   Maximum iterations =       100

  ==> CPHFRHamiltonian (by Rob Parrish) <== 

  ==> DFJK: Density-Fitted J/K Matrices <==

    J tasked:                  Yes
    K tasked:                  Yes
    wK tasked:                  No
    OpenMP threads:              8
    Integrals threads:           8
    Memory (MB):              3576
    Algorithm:                Disk
    Integral Cache:           NONE
    Schwarz Cutoff:          1E-12
    Fitting Condition:       1E-12

   => Auxiliary Basis Set <=

  Basis Set: (AUG-CC-PVTZ AUX)
    Blend: AUG-CC-PVTZ-JKFIT
    Number of shells: 516
    Number of basis function: 1766
    Number of Cartesian functions: 2198
    Spherical Harmonics?: true
    Max angular momentum: 4

  ==> CPHF Iterations <==

  => Iterations <=

             Iter  Converged  Remaining    Residual
  CGR           1          0          1   9.340E-02
  CGR           2          0          1   3.998E-02
  CGR           3          0          1   2.813E-02
  CGR           4          0          1   1.099E-02
  CGR           5          0          1   4.411E-03
  CGR           6          0          1   1.884E-03
  CGR           7          0          1   5.369E-04
  CGR           8          0          1   1.781E-04
  CGR           9          0          1   8.991E-05
  CGR          10          0          1   4.067E-05
  CGR          11          0          1   1.488E-05
  CGR          12          0          1   5.199E-06
  CGR          13          0          1   1.530E-06
  CGR          14          1          0   4.940E-07

    CGRSolver converged.

  ==> DFCorrGrad: Density-Fitted Correlated Gradients <==

    OpenMP threads:              8
    Integrals threads:           8
    Memory (MB):              3576
    Schwarz Cutoff:          0E+00
    Fitting Condition:       1E-12

   => Auxiliary Basis Set <=

  Basis Set: (AUG-CC-PVTZ AUX)
    Blend: AUG-CC-PVTZ-JKFIT
    Number of shells: 516
    Number of basis function: 1766
    Number of Cartesian functions: 2198
    Spherical Harmonics?: true
    Max angular momentum: 4

	-----------------------------------------------------------
	 ==================> DF-MP2 Energies <==================== 
	-----------------------------------------------------------
	 Reference Energy          =    -551.2817053264724336 [Eh]
	 Singles Energy            =      -0.0000000000000002 [Eh]
	 Same-Spin Energy          =      -0.6056714968548290 [Eh]
	 Opposite-Spin Energy      =      -1.8321276976358996 [Eh]
	 Correlation Energy        =      -2.4377991944907285 [Eh]
	 Total Energy              =    -553.7195045209631417 [Eh]
	-----------------------------------------------------------
	 ================> DF-SCS-MP2 Energies <================== 
	-----------------------------------------------------------
	 SCS Same-Spin Scale       =       0.3333333333333333 [-]
	 SCS Opposite-Spin Scale   =       1.2000000000000000 [-]
	 SCS Same-Spin Energy      =      -0.2018904989516097 [Eh]
	 SCS Opposite-Spin Energy  =      -2.1985532371630794 [Eh]
	 SCS Correlation Energy    =      -2.4004437361146889 [Eh]
	 SCS Total Energy          =    -553.6821490625870865 [Eh]
	-----------------------------------------------------------


  -Total Gradient:
     Atom            X                  Y                   Z
    ------   -----------------  -----------------  -----------------
       1        0.008991566337    -0.005570364489    -0.010722025197
       2        0.011282299005    -0.004772999340    -0.005546391681
       3        0.001040431099    -0.000995171859     0.003043310955
       4       -0.007373717485     0.003913786583     0.007281656918
       5       -0.009201944280     0.006833175819     0.002203896573
       6       -0.007841602808     0.001925415412     0.008363857090
       7       -0.009662988382     0.007913568060    -0.002046946808
       8       -0.005555626705     0.000526396394     0.010491736691
       9        0.002585017172    -0.001458780753    -0.002022904952
      10        0.004050200362    -0.001974920613    -0.002653319761
      11       -0.006518257791     0.003882198443    -0.008509089245
      12        0.012257563852    -0.006740736228    -0.007003893917
      13        0.005513099683    -0.003077596650     0.000739503811
      14        0.002280261311     0.000760814487    -0.008327296795
      15        0.005853633687    -0.005239712461     0.003525108849
      16       -0.002566603583     0.001846429510    -0.005218908820
      17        0.000860688411    -0.000734172474     0.003672127868
      18       -0.006050158145     0.003498847453    -0.003054593709
      19       -0.001268645601     0.000398833928     0.007863509014
      20        0.000968687578     0.000011501500    -0.002304996387
      21        0.001992223738    -0.001540602894     0.000607295416
      22       -0.001636127463     0.000594090167     0.009618364091


*** tstop() called on gpu-1-14.local at Sun Nov 12 11:51:38 2017
Module time:
	user time   =    5085.49 seconds =      84.76 minutes
	system time =     117.53 seconds =       1.96 minutes
	total time  =       2439 seconds =      40.65 minutes
Total time:
	user time   =    5085.50 seconds =      84.76 minutes
	system time =     117.53 seconds =       1.96 minutes
	total time  =       2439 seconds =      40.65 minutes

			-----------------------------------------
			 OPTKING 2.0: for geometry optimizations 
			  - R.A. King,  Bethel University        
			-----------------------------------------

	Internal coordinates to be generated automatically.
	Detected frag 1 with atoms:  1 2 3 4 5 6 7 8 9 10 11 12 13 14 15 16 17 18 19 20
	 21 22
	---Fragment 1 Bond Connectivity---
	 1 : 3 9 14
	 2 : 4 9 15
	 3 : 1 11 16
	 4 : 2 11 17
	 5 : 7 10 18
	 6 : 8 10 19
	 7 : 5 12 20
	 8 : 6 12 21
	 9 : 1 2 10
	 10 : 5 6 9
	 11 : 3 4 13
	 12 : 7 8
	 13 : 11 22
	 14 : 1
	 15 : 2
	 16 : 3
	 17 : 4
	 18 : 5
	 19 : 6
	 20 : 7
	 21 : 8
	 22 : 13

	Assuming in current code that numbering for constraints corresponds to unified fragment.
	Fixed dihedral atom list: 
	     1     9    10     5
	---Fragment 1 Geometry and Gradient---
	 C          -2.3692093380        1.3412912561       -1.1168528551
	 C          -0.4927112880        0.1772199582        2.8780281899
	 C          -4.4063341093        2.4241043302        0.1549328324
	 C          -2.5298360593        1.2600330323        4.1517036034
	 C           2.1056621447       -0.3745800726       -3.6169605289
	 C           3.3415430356       -2.5213089596        0.1927273550
	 C           4.1579047250       -1.4951876694       -4.7942599097
	 C           5.3389835580       -3.5455405236       -1.1546473777
	 C          -0.4114530643        0.2169042070        0.2437499606
	 C           1.7031504784       -0.9055931159       -1.0752788801
	 C          -4.4875923330        2.3844200814        2.7892110616
	 N           5.7906281038       -3.0731089904       -3.6226297073
	 O          -6.4755842248        3.4426667158        4.0307611309
	 H          -2.3333045415        1.3866446832       -3.1709851615
	 H           1.0190696183       -0.6920540629        3.9665104424
	 H          -5.9256739201        3.2971578036       -0.9165418850
	 H          -2.5827483910        1.2241282358        6.2039461837
	 H           0.8678915276        0.8783083535       -4.6695379849
	 H           3.0864300076       -2.9805124099        2.1769397946
	 H           4.5566369390       -1.1380294303       -6.7728031708
	 H           6.6693507556       -4.8173262110       -0.2513582862
	 H          -6.2620451717        3.2650324593        5.8430084924
	             0.0089915663       -0.0055703645       -0.0107220252
	             0.0112822990       -0.0047729993       -0.0055463917
	             0.0010404311       -0.0009951719        0.0030433110
	            -0.0073737175        0.0039137866        0.0072816569
	            -0.0092019443        0.0068331758        0.0022038966
	            -0.0078416028        0.0019254154        0.0083638571
	            -0.0096629884        0.0079135681       -0.0020469468
	            -0.0055556267        0.0005263964        0.0104917367
	             0.0025850172       -0.0014587808       -0.0020229050
	             0.0040502004       -0.0019749206       -0.0026533198
	            -0.0065182578        0.0038821984       -0.0085090892
	             0.0122575639       -0.0067407362       -0.0070038939
	             0.0055130997       -0.0030775966        0.0007395038
	             0.0022802613        0.0007608145       -0.0083272968
	             0.0058536337       -0.0052397125        0.0035251088
	            -0.0025666036        0.0018464295       -0.0052189088
	             0.0008606884       -0.0007341725        0.0036721279
	            -0.0060501581        0.0034988475       -0.0030545937
	            -0.0012686456        0.0003988339        0.0078635090
	             0.0009686876        0.0000115015       -0.0023049964
	             0.0019922237       -0.0015406029        0.0006072954
	            -0.0016361275        0.0005940902        0.0096183641

	Previous optimization step data not found.  Starting new optimization.

	---Fragment 1 Intrafragment Coordinates---
	 - Coordinate -           - BOHR/RAD -       - ANG/DEG -
	 R(1,3)           =         2.634350	       1.394038
	 R(1,9)           =         2.635962	       1.394891
	 R(1,14)          =         2.054947	       1.087431
	 R(2,4)           =         2.635263	       1.394521
	 R(2,9)           =         2.635830	       1.394821
	 R(2,15)          =         2.055702	       1.087831
	 R(3,11)          =         2.635830	       1.394821
	 R(3,16)          =         2.053941	       1.086899
	 R(4,11)          =         2.636938	       1.395407
	 R(4,17)          =         2.053239	       1.086527
	 R(5,7)           =         2.617918	       1.385343
	 R(5,10)          =         2.627572	       1.390451
	 R(5,18)          =         2.051761	       1.085745
	 R(6,8)           =         2.618060	       1.385418
	 R(6,10)          =         2.627300	       1.390308
	 R(6,19)          =         2.052571	       1.086174
	 R(7,12)          =         2.555061	       1.352080
	 R(7,20)          =         2.049679	       1.084643
	 R(8,12)          =         2.553059	       1.351021
	 R(8,21)          =         2.050182	       1.084910
	 R(9,10)          =         2.733384	       1.446444
	 R(11,13)         =         2.571662	       1.360865
	 R(13,22)         =         1.833410	       0.970199
	 B(1,3,11)        =         2.094553	     120.009056
	 B(1,3,16)        =         2.088505	     119.662516
	 B(1,9,2)         =         2.093692	     119.959722
	 B(1,9,10)        =         2.095161	     120.043881
	 B(2,4,11)        =         2.093699	     119.960108
	 B(2,4,17)        =         2.089577	     119.723926
	 B(2,9,10)        =         2.094332	     119.996376
	 B(3,1,9)         =         2.094940	     120.031219
	 B(3,1,14)        =         2.079469	     119.144799
	 B(3,11,4)        =         2.094306	     119.994870
	 B(3,11,13)       =         2.094549	     120.008801
	 B(4,2,9)         =         2.095181	     120.045019
	 B(4,2,15)        =         2.078675	     119.099297
	 B(4,11,13)       =         2.094331	     119.996326
	 B(5,7,12)        =         2.164065	     123.991808
	 B(5,7,20)        =         2.108321	     120.797919
	 B(5,10,6)        =         2.089326	     119.709575
	 B(5,10,9)        =         2.097060	     120.152680
	 B(6,8,12)        =         2.165268	     124.060725
	 B(6,8,21)        =         2.107159	     120.731346
	 B(6,10,9)        =         2.096799	     120.137739
	 B(7,5,10)        =         2.058489	     117.942736
	 B(7,5,18)        =         2.098556	     120.238395
	 B(7,12,8)        =         2.031419	     116.391738
	 B(8,6,10)        =         2.057802	     117.903363
	 B(8,6,19)        =         2.099957	     120.318678
	 B(9,1,14)        =         2.108776	     120.823969
	 B(9,2,15)        =         2.109330	     120.855683
	 B(10,5,18)       =         2.126139	     121.818776
	 B(10,6,19)       =         2.125426	     121.777935
	 B(11,3,16)       =         2.100127	     120.328425
	 B(11,4,17)       =         2.099910	     120.315955
	 B(11,13,22)      =         1.925489	     110.322421
	 B(12,7,20)       =         2.010797	     115.210153
	 B(12,8,21)       =         2.010757	     115.207871
	 D(1,3,11,4)      =        -0.000325	      -0.018609
	 D(1,3,11,13)     =         3.140978	     179.964785
	 D(1,9,2,4)       =         0.000325	       0.018608
	 D(1,9,2,15)      =        -3.141497	    -179.994534
	 D(1,9,10,5)      =         0.260737	      14.939108
	 D(1,9,10,6)      =        -2.880331	    -165.030834
	 D(2,4,11,3)      =         0.000301	       0.017261
	 D(2,4,11,13)     =        -3.141002	    -179.966135
	 D(2,9,1,3)       =        -0.000348	      -0.019945
	 D(2,9,1,14)      =        -3.141221	    -179.978731
	 D(2,9,10,5)      =        -2.879940	    -165.008389
	 D(2,9,10,6)      =         0.262178	      15.021669
	 D(3,1,9,10)      =        -3.141025	    -179.967461
	 D(3,11,4,17)     =         3.141223	     179.978848
	 D(3,11,13,22)    =         3.140828	     179.956172
	 D(4,2,9,10)      =         3.141002	     179.966149
	 D(4,11,3,16)     =         3.141593	     180.000000
	 D(4,11,13,22)    =        -0.001055	      -0.060434
	 D(5,7,12,8)      =        -0.000034	      -0.001964
	 D(5,10,6,8)      =         0.001543	       0.088423
	 D(5,10,6,19)     =        -3.141038	    -179.968240
	 D(6,8,12,7)      =         0.000340	       0.019481
	 D(6,10,5,7)      =        -0.001270	      -0.072765
	 D(6,10,5,18)     =        -3.140933	    -179.962229
	 D(7,5,10,9)      =         3.140845	     179.957164
	 D(7,12,8,21)     =         3.140417	     179.932635
	 D(8,6,10,9)      =        -3.140572	    -179.941502
	 D(8,12,7,20)     =         3.139371	     179.872737
	 D(9,1,3,11)      =         0.000348	       0.019955
	 D(9,1,3,16)      =        -3.141571	    -179.998735
	 D(9,2,4,11)      =        -0.000301	      -0.017270
	 D(9,2,4,17)      =        -3.141228	    -179.979086
	 D(9,10,5,18)     =         0.001182	       0.067700
	 D(9,10,6,19)     =         0.000032	       0.001835
	 D(10,5,7,12)     =         0.000510	       0.029236
	 D(10,5,7,20)     =        -3.138779	    -179.838787
	 D(10,6,8,12)     =        -0.001101	      -0.063086
	 D(10,6,8,21)     =        -3.141098	    -179.971674
	 D(10,9,1,14)     =         0.001287	       0.073752
	 D(10,9,2,15)     =        -0.000820	      -0.046992
	 D(11,3,1,14)     =         3.141234	     179.979432
	 D(11,4,2,15)     =         3.141517	     179.995641
	 D(12,7,5,18)     =         3.140205	     179.920519
	 D(12,8,6,19)     =         3.141465	     179.992714
	 D(13,11,3,16)    =        -0.000286	      -0.016400
	 D(13,11,4,17)    =        -0.000079	      -0.004548
	 D(14,1,3,16)     =        -0.000685	      -0.039257
	 D(15,2,4,17)     =         0.000590	       0.033826
	 D(18,5,7,20)     =         0.000916	       0.052496
	 D(19,6,8,21)     =         0.001468	       0.084126

	Current energy   :      -553.7195045210

	Generating empirical Hessian (Schlegel '84) for each fragment.
	Adding user-defined constraint: Fragment 1; Coordinate 63:
		Value =     0.260737; Fixed value    =     0.261799
		Force =     0.000531; Force constant =     0.500000
	Removing off-diagonal coupling between coordinate 63 and others.
	Taking RFO optimization step.
	Going to follow RFO solution 1.
	Using RFO vector 1.

	Determining step-restricting scale parameter for RS-RFO.
	Maximum step size allowed    0.10000

	 Iter      |step|        alpha        rfo_root  
	------------------------------------------------
	    0     0.24221       1.00000           1
	    1     0.18443       4.57162           1
	    2     0.14099      15.50505           1
	    3     0.11366      32.99304           1
	    4     0.10229      45.66438           1
	    5     0.10008      48.72119           1
	    6     0.10000      48.84136           1
	------------------------------------------------
	Norm of target step-size    0.10000
	Projected energy change by RFO approximation:        -0.0059298294

	Back-transformation to cartesian coordinates...
	Could not converge backtransformation.
	Using first guess instead.

	--- Internal Coordinate Step in ANG or DEG, aJ/ANG or AJ/DEG ---
	 ---------------------------------------------------------------------------
	   Coordinate                Previous        Force       Change         New 
	   ----------                --------       ------       ------       ------
	    1 R(1,3)          =      1.394038    -0.063048    -0.005374     1.388665
	    2 R(1,9)          =      1.394891     0.018661     0.001898     1.396789
	    3 R(1,14)         =      1.087431    -0.069046    -0.006837     1.080594
	    4 R(2,4)          =      1.394521    -0.065637    -0.005549     1.388972
	    5 R(2,9)          =      1.394821     0.007105     0.000869     1.395690
	    6 R(2,15)         =      1.087831    -0.069098    -0.006872     1.080959
	    7 R(3,11)         =      1.394821    -0.094524    -0.008196     1.386625
	    8 R(3,16)         =      1.086899    -0.044538    -0.004434     1.082465
	    9 R(4,11)         =      1.395407    -0.048631    -0.004264     1.391143
	   10 R(4,17)         =      1.086527    -0.030162    -0.003008     1.083519
	   11 R(5,7)          =      1.385343    -0.001743    -0.000161     1.385182
	   12 R(5,10)         =      1.390451     0.027178     0.002779     1.393230
	   13 R(5,18)         =      1.085745    -0.060583    -0.005983     1.079762
	   14 R(6,8)          =      1.385418    -0.001673    -0.000144     1.385274
	   15 R(6,10)         =      1.390308     0.028176     0.002999     1.393306
	   16 R(6,19)         =      1.086174    -0.063192    -0.006177     1.079997
	   17 R(7,12)         =      1.352080    -0.134228    -0.010581     1.341499
	   18 R(7,20)         =      1.084643    -0.019900    -0.001964     1.082679
	   19 R(8,12)         =      1.351021    -0.128786    -0.010145     1.340876
	   20 R(8,21)         =      1.084910    -0.020729    -0.002057     1.082853
	   21 R(9,10)         =      1.446444     0.215741     0.020442     1.466887
	   22 R(11,13)        =      1.360865    -0.008087    -0.000359     1.360505
	   23 R(13,22)        =      0.970199    -0.076284    -0.005916     0.964283
	   24 B(1,3,11)       =    120.009056     0.000036     0.004195   120.013251
	   25 B(1,3,16)       =    119.662516     0.000202     0.367490   120.030006
	   26 B(1,9,2)        =    119.959722    -0.001140    -1.556288   118.403433
	   27 B(1,9,10)       =    120.043881     0.000572     0.781946   120.825827
	   28 B(2,4,11)       =    119.960108     0.000184     0.234984   120.195093
	   29 B(2,4,17)       =    119.723926    -0.000001     0.034188   119.758114
	   30 B(2,9,10)       =    119.996376     0.000568     0.774200   120.770576
	   31 B(3,1,9)        =    120.031219     0.000656     0.966905   120.998124
	   32 B(3,1,14)       =    119.144799    -0.000452    -0.696066   118.448733
	   33 B(3,11,4)       =    119.994870    -0.000186    -0.324629   119.670241
	   34 B(3,11,13)      =    120.008801    -0.000793    -1.072328   118.936473
	   35 B(4,2,9)        =    120.045019     0.000449     0.674799   120.719818
	   36 B(4,2,15)       =    119.099297    -0.000305    -0.474890   118.624407
	   37 B(4,11,13)      =    119.996326     0.000979     1.396953   121.393279
	   38 B(5,7,12)       =    123.991808     0.000118     0.108879   124.100686
	   39 B(5,7,20)       =    120.797919    -0.000109    -0.138220   120.659699
	   40 B(5,10,6)       =    119.709575    -0.001553    -2.068483   117.641092
	   41 B(5,10,9)       =    120.152680     0.000757     1.006080   121.158759
	   42 B(6,8,12)       =    124.060725     0.000096     0.077137   124.137863
	   43 B(6,8,21)       =    120.731346    -0.000096    -0.118390   120.612955
	   44 B(6,10,9)       =    120.137739     0.000796     1.062295   121.200033
	   45 B(7,5,10)       =    117.942736     0.000678     1.037543   118.980280
	   46 B(7,5,18)       =    120.238395    -0.000444    -0.698407   119.539988
	   47 B(7,12,8)       =    116.391738    -0.000025    -0.206042   116.185696
	   48 B(8,6,10)       =    117.903363     0.000686     1.050909   118.954273
	   49 B(8,6,19)       =    120.318678    -0.000460    -0.728429   119.590248
	   50 B(9,1,14)       =    120.823969    -0.000204    -0.271132   120.552837
	   51 B(9,2,15)       =    120.855683    -0.000144    -0.200080   120.655603
	   52 B(10,5,18)      =    121.818776    -0.000234    -0.339553   121.479223
	   53 B(10,6,19)      =    121.777935    -0.000225    -0.322526   121.455408
	   54 B(11,3,16)      =    120.328425    -0.000239    -0.371683   119.956742
	   55 B(11,4,17)      =    120.315955    -0.000183    -0.269199   120.046756
	   56 B(11,13,22)     =    110.322421    -0.000437    -0.727631   109.594789
	   57 B(12,7,20)      =    115.210153    -0.000009     0.029291   115.239444
	   58 B(12,8,21)      =    115.207871    -0.000000     0.041173   115.249045
	   59 D(1,3,11,4)     =     -0.018609    -0.000001    -0.006802    -0.025411
	   60 D(1,3,11,13)    =    179.964785    -0.000001    -0.019349   179.945436
	   61 D(1,9,2,4)      =      0.018608     0.000000     0.022697     0.041305
	   62 D(1,9,2,15)     =   -179.994534     0.000016     0.188959  -179.805575
	   63 D(1,9,10,5)     =     14.939108     0.000028     0.183673    15.122781
	   64 D(1,9,10,6)     =   -165.030834     0.000032     0.280016  -164.750818
	   65 D(2,4,11,3)     =      0.017261    -0.000002    -0.025393    -0.008132
	   66 D(2,4,11,13)    =   -179.966135    -0.000002    -0.012108  -179.978243
	   67 D(2,9,1,3)      =     -0.019945    -0.000003    -0.055390    -0.075335
	   68 D(2,9,1,14)     =   -179.978731     0.000012     0.107593  -179.871139
	   69 D(2,9,10,5)     =   -165.008389     0.000033     0.280749  -164.727640
	   70 D(2,9,10,6)     =     15.021669     0.000037     0.377093    15.398762
	   71 D(3,1,9,10)     =   -179.967461     0.000001     0.038237  -179.929224
	   72 D(3,11,4,17)    =    179.978848    -0.000005    -0.057293   179.921555
	   73 D(3,11,13,22)   =    179.956172     0.000000     0.004860   179.961032
	   74 D(4,2,9,10)     =    179.966149    -0.000004    -0.070872   179.895278
	   75 D(4,11,3,16)    =    180.000000    -0.000004    -0.036099   179.963901
	   76 D(4,11,13,22)   =     -0.060434    -0.000000    -0.008209    -0.068644
	   77 D(5,7,12,8)     =     -0.001964    -0.000001    -0.002037    -0.004000
	   78 D(5,10,6,8)     =      0.088423     0.000001     0.026574     0.114997
	   79 D(5,10,6,19)    =   -179.968240     0.000016     0.180388  -179.787852
	   80 D(6,8,12,7)     =      0.019481    -0.000002    -0.021921    -0.002441
	   81 D(6,10,5,7)     =     -0.072765    -0.000003    -0.048085    -0.120850
	   82 D(6,10,5,18)    =   -179.962229     0.000011     0.102265  -179.859963
	   83 D(7,5,10,9)     =    179.957164     0.000002     0.044035   180.001198
	   84 D(7,12,8,21)    =    179.932635    -0.000006    -0.069677   179.862958
	   85 D(8,6,10,9)     =   -179.941502    -0.000004    -0.065603  -180.007105
	   86 D(8,12,7,20)    =    179.872737    -0.000003    -0.026401   179.846335
	   87 D(9,1,3,11)     =      0.019955     0.000004     0.048204     0.068159
	   88 D(9,1,3,16)     =   -179.998735     0.000007     0.077589  -179.921145
	   89 D(9,2,4,11)     =     -0.017270     0.000002     0.017270     0.000000
	   90 D(9,2,4,17)     =   -179.979086     0.000005     0.048925  -179.930161
	   91 D(9,10,5,18)    =      0.067700     0.000016     0.194385     0.262085
	   92 D(9,10,6,19)    =      0.001835     0.000011     0.088211     0.090046
	   93 D(10,5,7,12)    =      0.029236     0.000003     0.038594     0.067831
	   94 D(10,5,7,20)    =   -179.838787     0.000006     0.063994  -179.774793
	   95 D(10,6,8,12)    =     -0.063086     0.000001     0.007899    -0.055187
	   96 D(10,6,8,21)    =   -179.971674     0.000006     0.057944  -179.913730
	   97 D(10,9,1,14)    =      0.073752     0.000016     0.201220     0.274973
	   98 D(10,9,2,15)    =     -0.046992     0.000012     0.095390     0.048398
	   99 D(11,3,1,14)    =    179.979432    -0.000011    -0.111270   179.868162
	  100 D(11,4,2,15)    =    179.995641    -0.000013    -0.145973   179.849668
	  101 D(12,7,5,18)    =    179.920519    -0.000011    -0.108423   179.812096
	  102 D(12,8,6,19)    =    179.992714    -0.000013    -0.143205   179.849509
	  103 D(13,11,3,16)   =     -0.016400    -0.000004    -0.048853    -0.065252
	  104 D(13,11,4,17)   =     -0.004548    -0.000004    -0.044007    -0.048555
	  105 D(14,1,3,16)    =     -0.039257    -0.000008    -0.081885    -0.121142
	  106 D(15,2,4,17)    =      0.033826    -0.000011    -0.114048    -0.080223
	  107 D(18,5,7,20)    =      0.052496    -0.000008    -0.083024    -0.030528
	  108 D(19,6,8,21)    =      0.084126    -0.000009    -0.093161    -0.009034
	 ---------------------------------------------------------------------------
	Successfully symmetrized geometry.
	 Forces used to impose fixed constraints are not included.
	  Forces zeroed: 63 

  ==> Convergence Check <==

  Measures of convergence in internal coordinates in au.
  Criteria marked as inactive (o), active & met (*), and active & unmet ( ).
  --------------------------------------------------------------------------------------------- ~
   Step     Total Energy     Delta E     MAX Force     RMS Force      MAX Disp      RMS Disp    ~
  --------------------------------------------------------------------------------------------- ~
    Convergence Criteria    1.00e-06 *    3.00e-04 *             o    1.20e-03 *             o  ~
  --------------------------------------------------------------------------------------------- ~
      1    -553.71950452   -5.54e+02      2.62e-02      5.82e-03 o    3.86e-02      9.61e-03 o  ~
  ---------------------------------------------------------------------------------------------

	Writing optimization data to binary file.
	Structure for next step:
	Cartesian Geometry (in Angstrom)
	    C    -1.2730689806   0.7161235796  -0.5630111512
	    C    -0.2802449259   0.1070969582   1.5338930458
	    C    -2.3477559896   1.2872243686   0.1057794326
	    C    -1.3536181555   0.6781973027   2.2054267626
	    C     1.1416449791  -0.2129523304  -1.9178102888
	    C     1.7912112927  -1.3465017538   0.0763524753
	    C     2.2262048616  -0.8048698502  -2.5439826736
	    C     2.8466176643  -1.8876973077  -0.6393352722
	    C    -0.2246187384   0.1174075311   0.1393502611
	    C     0.9095371736  -0.4833813502  -0.5709308283
	    C    -2.3907087909   1.2699914118   1.4916320655
	    N     3.0845034808  -1.6366713528  -1.9348448274
	    O    -3.4533861308   1.8368465979   2.1243778517
	    H    -1.2665004229   0.7418565111  -1.6432788821
	    H     0.5128623120  -0.3436296978   2.1138052053
	    H    -3.1525110990   1.7459485888  -0.4542846851
	    H    -1.3803270506   0.6624204723   3.2885019973
	    H     0.4987507770   0.4485724444  -2.4790220977
	    H     1.6673184576  -1.6012583408   1.1185340609
	    H     2.4340682045  -0.6108717253  -3.5886602744
	    H     3.5470650011  -2.5625612667  -0.1634130955
	    H    -3.3461387692   1.7488859905   3.0786332409
			--------------------------
			 OPTKING Finished Execution 
			--------------------------

    Structure for next step:
    Molecular point group: c1
    Full point group: C1

    Geometry (in Angstrom), charge = 0, multiplicity = 1:

    C           -1.273122222076     0.716237014350    -0.562862629535
    C           -0.280298167313     0.107210392948     1.534041567471
    C           -2.347809231012     1.287337803358     0.105927954220
    C           -1.353671396970     0.678310737493     2.205575284240
    C            1.141591737696    -0.212838895586    -1.917661767128
    C            1.791158051280    -1.346388319021     0.076500996948
    C            2.226151620206    -0.804756415422    -2.543834152007
    C            2.846564422839    -1.887583872976    -0.639186750537
    C           -0.224671979790     0.117520965908     0.139498782735
    C            0.909483932200    -0.483267915442    -0.570782306700
    C           -2.390762032292     1.270104846595     1.491780587104
    N            3.084450239399    -1.636557918034    -1.934696305797
    O           -3.453439372224     1.836960032669     2.124526373386
    H           -1.266553664340     0.741969945874    -1.643130360496
    H            0.512809070607    -0.343516263019     2.113953726938
    H           -3.152564340420     1.746062023620    -0.454136163440
    H           -1.380380292061     0.662533907091     3.288650518916
    H            0.498697535574     0.448685879212    -2.478873576032
    H            1.667265216161    -1.601144906052     1.118682582548
    H            2.434014963104    -0.610758290546    -3.588511752780
    H            3.547011759629    -2.562447831976    -0.163264573829
    H           -3.346192010674     1.748999425267     3.078781762506

gradient() will perform analytic gradient computation.

*** tstart() called on gpu-1-14.local
*** at Sun Nov 12 11:51:40 2017

    SCF Algorithm Type (re)set to DF.

*** tstart() called on gpu-1-14.local
*** at Sun Nov 12 11:51:40 2017

   => Loading Basis Set <=

    Name: AUG-CC-PVTZ
    Role: ORBITAL
    Keyword: BASIS
    atoms 1-11  entry C          line   221 file /cbio/jclab/home/chayas/anaconda/envs/py35/share/psi4/basis/aug-cc-pvtz.gbs 
    atoms 12    entry N          line   267 file /cbio/jclab/home/chayas/anaconda/envs/py35/share/psi4/basis/aug-cc-pvtz.gbs 
    atoms 13    entry O          line   313 file /cbio/jclab/home/chayas/anaconda/envs/py35/share/psi4/basis/aug-cc-pvtz.gbs 
    atoms 14-22 entry H          line    34 file /cbio/jclab/home/chayas/anaconda/envs/py35/share/psi4/basis/aug-cc-pvtz.gbs 


         ---------------------------------------------------------
                                   SCF
            by Justin Turney, Rob Parrish, and Andy Simmonett
                              RHF Reference
                        8 Threads,   4768 MiB Core
         ---------------------------------------------------------

  ==> Geometry <==

    Molecular point group: c1
    Full point group: C1

    Geometry (in Angstrom), charge = 0, multiplicity = 1:

       Center              X                  Y                   Z               Mass       
    ------------   -----------------  -----------------  -----------------  -----------------
           C         -1.273122222076     0.716237014350    -0.562862629535    12.000000000000
           C         -0.280298167313     0.107210392948     1.534041567471    12.000000000000
           C         -2.347809231012     1.287337803358     0.105927954220    12.000000000000
           C         -1.353671396970     0.678310737493     2.205575284240    12.000000000000
           C          1.141591737696    -0.212838895586    -1.917661767128    12.000000000000
           C          1.791158051280    -1.346388319021     0.076500996948    12.000000000000
           C          2.226151620206    -0.804756415422    -2.543834152007    12.000000000000
           C          2.846564422839    -1.887583872976    -0.639186750537    12.000000000000
           C         -0.224671979790     0.117520965908     0.139498782735    12.000000000000
           C          0.909483932200    -0.483267915442    -0.570782306700    12.000000000000
           C         -2.390762032292     1.270104846595     1.491780587104    12.000000000000
           N          3.084450239399    -1.636557918034    -1.934696305797    14.003074004780
           O         -3.453439372224     1.836960032669     2.124526373386    15.994914619560
           H         -1.266553664340     0.741969945874    -1.643130360496     1.007825032070
           H          0.512809070607    -0.343516263019     2.113953726938     1.007825032070
           H         -3.152564340420     1.746062023620    -0.454136163440     1.007825032070
           H         -1.380380292061     0.662533907091     3.288650518916     1.007825032070
           H          0.498697535574     0.448685879212    -2.478873576032     1.007825032070
           H          1.667265216161    -1.601144906052     1.118682582548     1.007825032070
           H          2.434014963104    -0.610758290546    -3.588511752780     1.007825032070
           H          3.547011759629    -2.562447831976    -0.163264573829     1.007825032070
           H         -3.346192010674     1.748999425267     3.078781762506     1.007825032070

  Running in c1 symmetry.

  Rotational constants: A =      0.09833  B =      0.01341  C =      0.01185 [cm^-1]
  Rotational constants: A =   2947.96367  B =    401.93366  C =    355.21647 [MHz]
  Nuclear repulsion =  697.563427953888663

  Charge       = 0
  Multiplicity = 1
  Electrons    = 90
  Nalpha       = 45
  Nbeta        = 45

  ==> Algorithm <==

  SCF Algorithm Type is DF.
  DIIS enabled.
  MOM disabled.
  Fractional occupation disabled.
  Guess Type is READ.
  Energy threshold   = 1.00e-10
  Density threshold  = 1.00e-10
  Integral threshold = 0.00e+00

  ==> Primary Basis <==

  Basis Set: AUG-CC-PVTZ
    Blend: AUG-CC-PVTZ
    Number of shells: 263
    Number of basis function: 805
    Number of Cartesian functions: 940
    Spherical Harmonics?: true
    Max angular momentum: 3

   => Loading Basis Set <=

    Name: (AUG-CC-PVTZ AUX)
    Role: JKFIT
    Keyword: DF_BASIS_SCF
    atoms 1-11  entry C          line   161 file /cbio/jclab/home/chayas/anaconda/envs/py35/share/psi4/basis/aug-cc-pvtz-jkfit.gbs 
    atoms 12    entry N          line   223 file /cbio/jclab/home/chayas/anaconda/envs/py35/share/psi4/basis/aug-cc-pvtz-jkfit.gbs 
    atoms 13    entry O          line   285 file /cbio/jclab/home/chayas/anaconda/envs/py35/share/psi4/basis/aug-cc-pvtz-jkfit.gbs 
    atoms 14-22 entry H          line    69 file /cbio/jclab/home/chayas/anaconda/envs/py35/share/psi4/basis/aug-cc-pvtz-jkfit.gbs 

  Reading orbitals from file 180, no projection.

  ==> Pre-Iterations <==

   -------------------------------------------------------
    Irrep   Nso     Nmo     Nalpha   Nbeta   Ndocc  Nsocc
   -------------------------------------------------------
     A        805     805       0       0       0       0
   -------------------------------------------------------
    Total     805     805      45      45      45       0
   -------------------------------------------------------

  ==> Integral Setup <==

  ==> DFJK: Density-Fitted J/K Matrices <==

    J tasked:                  Yes
    K tasked:                  Yes
    wK tasked:                  No
    OpenMP threads:              8
    Integrals threads:           8
    Memory (MB):              3576
    Algorithm:                Disk
    Integral Cache:           NONE
    Schwarz Cutoff:          1E-12
    Fitting Condition:       1E-12

   => Auxiliary Basis Set <=

  Basis Set: (AUG-CC-PVTZ AUX)
    Blend: AUG-CC-PVTZ-JKFIT
    Number of shells: 516
    Number of basis function: 1766
    Number of Cartesian functions: 2198
    Spherical Harmonics?: true
    Max angular momentum: 4

  Minimum eigenvalue in the overlap matrix is 5.1110103403E-07.
  Using Symmetric Orthogonalization.

  SCF Guess: Orbitals guess was supplied from a previous computation.

  ==> Iterations <==

                           Total Energy        Delta E     RMS |[F,P]|

   @DF-RHF iter   0:  -551.45094982929504   -5.51451e+02   5.05256e-04 
   @DF-RHF iter   1:  -551.28638736252799    1.64562e-01   1.58656e-04 
   @DF-RHF iter   2:  -551.28767889773565   -1.29154e-03   9.81961e-05 DIIS
   @DF-RHF iter   3:  -551.28894707277345   -1.26818e-03   1.43035e-05 DIIS
   @DF-RHF iter   4:  -551.28896516510804   -1.80923e-05   3.25259e-06 DIIS
   @DF-RHF iter   5:  -551.28896740552432   -2.24042e-06   8.28102e-07 DIIS
   @DF-RHF iter   6:  -551.28896769468668   -2.89162e-07   4.53006e-07 DIIS
   @DF-RHF iter   7:  -551.28896779674494   -1.02058e-07   1.96405e-07 DIIS
   @DF-RHF iter   8:  -551.28896783115931   -3.44144e-08   9.31852e-08 DIIS
   @DF-RHF iter   9:  -551.28896783746688   -6.30757e-09   3.41680e-08 DIIS
   @DF-RHF iter  10:  -551.28896783814730   -6.80416e-10   1.23526e-08 DIIS
   @DF-RHF iter  11:  -551.28896783821460   -6.73026e-11   4.30884e-09 DIIS
   @DF-RHF iter  12:  -551.28896783824268   -2.80806e-11   2.74969e-09 DIIS
   @DF-RHF iter  13:  -551.28896783827781   -3.51292e-11   1.31209e-09 DIIS
   @DF-RHF iter  14:  -551.28896783825928    1.85310e-11   4.67936e-10 DIIS
   @DF-RHF iter  15:  -551.28896783827417   -1.48930e-11   1.87225e-10 DIIS
   @DF-RHF iter  16:  -551.28896783824393    3.02407e-11   5.76985e-11 DIIS

  ==> Post-Iterations <==

    Orbital Energies (a.u.)
    -----------------------

    Doubly Occupied:                                                      

       1A    -20.602807     2A    -15.558901     3A    -11.315675  
       4A    -11.271733     5A    -11.271663     6A    -11.266914  
       7A    -11.255200     8A    -11.253422     9A    -11.247962  
      10A    -11.245371    11A    -11.240067    12A    -11.235102  
      13A    -11.234846    14A     -1.419833    15A     -1.253260  
      16A     -1.174853    17A     -1.104483    18A     -1.040660  
      19A     -1.029064    20A     -1.012301    21A     -0.883024  
      22A     -0.875104    23A     -0.839999    24A     -0.812697  
      25A     -0.752397    26A     -0.725912    27A     -0.686446  
      28A     -0.667667    29A     -0.649884    30A     -0.633677  
      31A     -0.614981    32A     -0.609268    33A     -0.604633  
      34A     -0.589659    35A     -0.577161    36A     -0.547924  
      37A     -0.533053    38A     -0.525627    39A     -0.501801  
      40A     -0.494771    41A     -0.416815    42A     -0.400596  
      43A     -0.357999    44A     -0.347055    45A     -0.305328  

    Virtual:                                                              

      46A      0.021099    47A      0.029481    48A      0.032046  
      49A      0.040175    50A      0.043020    51A      0.047351  
      52A      0.057813    53A      0.059469    54A      0.066259  
      55A      0.075110    56A      0.077565    57A      0.083559  
      58A      0.086792    59A      0.090548    60A      0.095833  
      61A      0.101494    62A      0.103119    63A      0.108999  
      64A      0.110192    65A      0.111373    66A      0.115844  
      67A      0.120299    68A      0.126593    69A      0.128407  
      70A      0.133147    71A      0.135282    72A      0.138763  
      73A      0.139184    74A      0.143572    75A      0.144748  
      76A      0.148908    77A      0.150417    78A      0.155364  
      79A      0.164078    80A      0.167102    81A      0.170591  
      82A      0.172103    83A      0.179347    84A      0.182637  
      85A      0.186993    86A      0.189904    87A      0.197430  
      88A      0.201484    89A      0.209210    90A      0.215086  
      91A      0.220097    92A      0.226249    93A      0.229378  
      94A      0.236260    95A      0.237894    96A      0.248197  
      97A      0.249831    98A      0.252130    99A      0.254592  
     100A      0.258330   101A      0.259805   102A      0.264776  
     103A      0.267496   104A      0.270724   105A      0.274977  
     106A      0.280321   107A      0.289118   108A      0.290928  
     109A      0.293630   110A      0.298130   111A      0.302000  
     112A      0.305820   113A      0.308161   114A      0.311556  
     115A      0.318274   116A      0.320817   117A      0.328239  
     118A      0.328501   119A      0.331110   120A      0.335982  
     121A      0.342784   122A      0.345570   123A      0.352863  
     124A      0.359015   125A      0.364073   126A      0.367956  
     127A      0.373560   128A      0.381515   129A      0.384069  
     130A      0.394109   131A      0.396506   132A      0.400401  
     133A      0.406372   134A      0.412419   135A      0.417408  
     136A      0.421177   137A      0.422730   138A      0.429795  
     139A      0.431470   140A      0.435751   141A      0.438349  
     142A      0.439503   143A      0.444159   144A      0.447394  
     145A      0.449912   146A      0.450340   147A      0.457961  
     148A      0.464284   149A      0.465561   150A      0.468769  
     151A      0.474075   152A      0.477900   153A      0.486566  
     154A      0.487906   155A      0.493067   156A      0.496262  
     157A      0.500355   158A      0.500804   159A      0.503584  
     160A      0.506150   161A      0.508936   162A      0.510421  
     163A      0.513502   164A      0.517127   165A      0.519397  
     166A      0.522431   167A      0.526517   168A      0.531523  
     169A      0.538471   170A      0.543521   171A      0.549786  
     172A      0.551420   173A      0.555772   174A      0.562804  
     175A      0.567792   176A      0.569587   177A      0.571158  
     178A      0.579418   179A      0.588097   180A      0.593045  
     181A      0.594365   182A      0.601737   183A      0.609966  
     184A      0.614703   185A      0.621657   186A      0.630992  
     187A      0.634894   188A      0.639834   189A      0.648951  
     190A      0.657007   191A      0.659354   192A      0.660129  
     193A      0.680524   194A      0.686871   195A      0.690163  
     196A      0.694368   197A      0.699463   198A      0.700707  
     199A      0.705194   200A      0.707661   201A      0.708194  
     202A      0.716030   203A      0.722271   204A      0.727118  
     205A      0.736620   206A      0.740919   207A      0.747114  
     208A      0.749417   209A      0.755366   210A      0.768486  
     211A      0.771780   212A      0.775751   213A      0.781852  
     214A      0.795617   215A      0.800190   216A      0.807129  
     217A      0.807801   218A      0.811366   219A      0.821573  
     220A      0.825153   221A      0.833222   222A      0.836155  
     223A      0.840869   224A      0.846693   225A      0.847791  
     226A      0.858820   227A      0.860463   228A      0.872097  
     229A      0.874525   230A      0.880983   231A      0.883267  
     232A      0.886057   233A      0.890897   234A      0.892739  
     235A      0.898209   236A      0.899634   237A      0.904779  
     238A      0.914714   239A      0.915864   240A      0.921159  
     241A      0.927100   242A      0.936235   243A      0.937113  
     244A      0.938883   245A      0.942100   246A      0.946144  
     247A      0.955187   248A      0.959941   249A      0.965661  
     250A      0.973012   251A      0.973728   252A      0.976253  
     253A      0.983956   254A      0.986801   255A      0.990985  
     256A      0.993006   257A      0.995276   258A      0.999281  
     259A      1.006722   260A      1.013725   261A      1.016869  
     262A      1.024154   263A      1.025849   264A      1.028693  
     265A      1.030392   266A      1.038379   267A      1.039391  
     268A      1.043169   269A      1.045848   270A      1.054673  
     271A      1.057714   272A      1.064681   273A      1.068265  
     274A      1.069589   275A      1.078664   276A      1.080005  
     277A      1.084810   278A      1.093968   279A      1.098009  
     280A      1.099270   281A      1.104234   282A      1.109751  
     283A      1.120068   284A      1.126809   285A      1.127500  
     286A      1.133869   287A      1.140028   288A      1.144802  
     289A      1.149745   290A      1.154707   291A      1.160955  
     292A      1.166272   293A      1.168850   294A      1.177337  
     295A      1.178204   296A      1.182745   297A      1.183135  
     298A      1.191251   299A      1.193603   300A      1.201276  
     301A      1.207127   302A      1.211535   303A      1.215479  
     304A      1.217966   305A      1.220751   306A      1.228561  
     307A      1.233672   308A      1.242128   309A      1.249311  
     310A      1.253820   311A      1.258906   312A      1.265082  
     313A      1.278489   314A      1.282055   315A      1.284336  
     316A      1.288902   317A      1.301096   318A      1.304888  
     319A      1.308567   320A      1.311337   321A      1.315803  
     322A      1.323395   323A      1.329866   324A      1.331907  
     325A      1.344112   326A      1.352875   327A      1.363546  
     328A      1.378393   329A      1.385417   330A      1.389285  
     331A      1.393159   332A      1.399241   333A      1.406153  
     334A      1.412038   335A      1.419750   336A      1.436440  
     337A      1.440565   338A      1.457943   339A      1.459147  
     340A      1.466510   341A      1.469175   342A      1.480291  
     343A      1.483218   344A      1.493712   345A      1.495047  
[...]
	 R(8,12)          =         2.522383	       1.334788
	 R(8,21)          =         2.043217	       1.081224
	 R(9,10)          =         2.768554	       1.465056
	 R(11,13)         =         2.571906	       1.360994
	 R(13,22)         =         1.817922	       0.962003
	 B(1,3,11)        =         2.094441	     120.002656
	 B(1,3,16)        =         2.111742	     120.993908
	 B(1,9,2)         =         2.049261	     117.414034
	 B(1,9,10)        =         2.119041	     121.412085
	 B(2,4,11)        =         2.096596	     120.126082
	 B(2,4,17)        =         2.092167	     119.872320
	 B(2,9,10)        =         2.114256	     121.137921
	 B(3,1,9)         =         2.122732	     121.623572
	 B(3,1,14)        =         2.064548	     118.289898
	 B(3,11,4)        =         2.083873	     119.397123
	 B(3,11,13)       =         2.049831	     117.446666
	 B(4,2,9)         =         2.119356	     121.430165
	 B(4,2,15)        =         2.066635	     118.409490
	 B(4,11,13)       =         2.149476	     123.155895
	 B(5,7,12)        =         2.162259	     123.888343
	 B(5,7,20)        =         2.091736	     119.847666
	 B(5,10,6)        =         2.022090	     115.857249
	 B(5,10,9)        =         2.131611	     122.132300
	 B(6,8,12)        =         2.161768	     123.860192
	 B(6,8,21)        =         2.092021	     119.863991
	 B(6,10,9)        =         2.128944	     121.979492
	 B(7,5,10)        =         2.095758	     120.078062
	 B(7,5,18)        =         2.073753	     118.817321
	 B(7,12,8)        =         2.028152	     116.204577
	 B(8,6,10)        =         2.096232	     120.105249
	 B(8,6,19)        =         2.073757	     118.817497
	 B(9,1,14)        =         2.095436	     120.059636
	 B(9,2,15)        =         2.096824	     120.139148
	 B(10,5,18)       =         2.113249	     121.080265
	 B(10,6,19)       =         2.112932	     121.062072
	 B(11,3,16)       =         2.076981	     119.002251
	 B(11,4,17)       =         2.094375	     119.998855
	 B(11,13,22)      =         1.902635	     109.012933
	 B(12,7,20)       =         2.029188	     116.263907
	 B(12,8,21)       =         2.029369	     116.274301
	 D(1,3,11,4)      =         0.003848	       0.220466
	 D(1,3,11,13)     =        -3.141207	    -179.977893
	 D(1,9,2,4)       =         0.015041	       0.861762
	 D(1,9,2,15)      =        -3.096855	    -177.436718
	 D(1,9,10,5)      =         0.266634	      15.276983
	 D(1,9,10,6)      =        -2.838165	    -162.614861
	 D(2,4,11,3)      =        -0.004339	      -0.248622
	 D(2,4,11,13)     =         3.140923	     179.961645
	 D(2,9,1,3)       =        -0.015568	      -0.891987
	 D(2,9,1,14)      =        -3.123670	    -178.973096
	 D(2,9,10,5)      =        -2.835903	    -162.485284
	 D(2,9,10,6)      =         0.342484	      19.622872
	 D(3,1,9,10)      =        -3.119504	    -178.734398
	 D(3,11,4,17)     =         3.126725	     179.148124
	 D(3,11,13,22)    =         3.138652	     179.831524
	 D(4,2,9,10)      =         3.119086	     178.710438
	 D(4,11,3,16)     =         3.138599	     179.828457
	 D(4,11,13,22)    =        -0.006543	      -0.374904
	 D(5,7,12,8)      =         0.002624	       0.150317
	 D(5,10,6,8)      =         0.015958	       0.914314
	 D(5,10,6,19)     =        -3.100604	    -177.651516
	 D(6,8,12,7)      =        -0.001202	      -0.068849
	 D(6,10,5,7)      =        -0.014645	      -0.839072
	 D(6,10,5,18)     =        -3.124537	    -179.022786
	 D(7,5,10,9)      =        -3.121556	    -178.851957
	 D(7,12,8,21)     =         3.132542	     179.481455
	 D(8,6,10,9)      =         3.122927	     178.930516
	 D(8,12,7,20)     =        -3.140813	    -179.955349
	 D(9,1,3,11)      =         0.006383	       0.365746
	 D(9,1,3,16)      =        -3.128229	    -179.234297
	 D(9,2,4,11)      =        -0.005384	      -0.308495
	 D(9,2,4,17)      =        -3.136462	    -179.706007
	 D(9,10,5,18)     =         0.051737	       2.964329
	 D(9,10,6,19)     =         0.006365	       0.364686
	 D(10,5,7,12)     =         0.005701	       0.326660
	 D(10,5,7,20)     =        -3.133985	    -179.564090
	 D(10,6,8,12)     =        -0.008535	      -0.488993
	 D(10,6,8,21)     =         3.141174	     179.975987
	 D(10,9,1,14)     =         0.055580	       3.184493
	 D(10,9,2,15)     =         0.007190	       0.411958
	 D(11,3,1,14)     =         3.115058	     178.479678
	 D(11,4,2,15)     =         3.107010	     178.018549
	 D(12,7,5,18)     =         3.116307	     178.551259
	 D(12,8,6,19)     =         3.108586	     178.108846
	 D(13,11,3,16)    =        -0.006456	      -0.369902
	 D(13,11,4,17)    =        -0.011198	      -0.641610
	 D(14,1,3,16)     =        -0.019554	      -1.120365
	 D(15,2,4,17)     =        -0.024067	      -1.378963
	 D(18,5,7,20)     =        -0.023379	      -1.339492
	 D(19,6,8,21)     =        -0.024891	      -1.426174

	Current energy   :      -553.7245864643

	Energy change for the previous step:
		Projected    :        -0.0000012530
		Actual       :         0.0000008280

	Performing BFGS update.
	Previous computed or guess Hessian on step 1.
	Steps to be used in Hessian update: 5 4
	Adding user-defined constraint: Fragment 1; Coordinate 63:
		Value =     0.266634; Fixed value    =     0.261800
		Force =    -0.003021; Force constant =     0.625000
	Removing off-diagonal coupling between coordinate 63 and others.
	Taking RFO optimization step.
	Going to follow RFO solution 1.
	Using RFO vector 1.
	Norm of target step-size    0.00607
	Projected energy change by RFO approximation:         0.0000001507

	Back-transformation to cartesian coordinates...
	Could not converge backtransformation.
	Using first guess instead.

	--- Internal Coordinate Step in ANG or DEG, aJ/ANG or AJ/DEG ---
	 ---------------------------------------------------------------------------
	   Coordinate                Previous        Force       Change         New 
	   ----------                --------       ------       ------       ------
	    1 R(1,3)          =      1.382717    -0.000116     0.000065     1.382782
	    2 R(1,9)          =      1.396270     0.000413     0.000063     1.396332
	    3 R(1,14)         =      1.078520    -0.000119    -0.000010     1.078511
	    4 R(2,4)          =      1.384947     0.000065    -0.000001     1.384946
	    5 R(2,9)          =      1.394394    -0.000061    -0.000003     1.394392
	    6 R(2,15)         =      1.078580     0.000202     0.000132     1.078712
	    7 R(3,11)         =      1.387447     0.000246     0.000093     1.387540
	    8 R(3,16)         =      1.078856     0.000074     0.000030     1.078885
	    9 R(4,11)         =      1.387826    -0.000030     0.000016     1.387842
	   10 R(4,17)         =      1.081282     0.000040     0.000040     1.081322
	   11 R(5,7)          =      1.385210    -0.000002     0.000063     1.385273
	   12 R(5,10)         =      1.393599     0.000267     0.000081     1.393679
	   13 R(5,18)         =      1.078412    -0.000080     0.000008     1.078420
	   14 R(6,8)          =      1.385092    -0.000058     0.000059     1.385151
	   15 R(6,10)         =      1.393759    -0.000110    -0.000071     1.393688
	   16 R(6,19)         =      1.078526     0.000211     0.000142     1.078668
	   17 R(7,12)         =      1.334750    -0.000035    -0.000007     1.334743
	   18 R(7,20)         =      1.081198     0.000024    -0.000017     1.081181
	   19 R(8,12)         =      1.334788     0.000042    -0.000022     1.334766
	   20 R(8,21)         =      1.081224     0.000008    -0.000021     1.081203
	   21 R(9,10)         =      1.465056     0.000310     0.000053     1.465109
	   22 R(11,13)        =      1.360994     0.000230     0.000018     1.361012
	   23 R(13,22)        =      0.962003     0.000100     0.000075     0.962078
	   24 B(1,3,11)       =    120.002656     0.000000    -0.002740   119.999916
	   25 B(1,3,16)       =    120.993908     0.000001    -0.005175   120.988733
	   26 B(1,9,2)        =    117.414034     0.000001    -0.008997   117.405036
	   27 B(1,9,10)       =    121.412085     0.000004     0.046583   121.458668
	   28 B(2,4,11)       =    120.126082    -0.000001     0.002377   120.128459
	   29 B(2,4,17)       =    119.872320     0.000000     0.001886   119.874206
	   30 B(2,9,10)       =    121.137921    -0.000005    -0.036515   121.101406
	   31 B(3,1,9)        =    121.623572    -0.000001     0.006259   121.629831
	   32 B(3,1,14)       =    118.289898     0.000001    -0.033950   118.255948
	   33 B(3,11,4)       =    119.397123     0.000001    -0.004057   119.393066
	   34 B(3,11,13)      =    117.446666    -0.000000     0.004975   117.451640
	   35 B(4,2,9)        =    121.430165     0.000000     0.007598   121.437763
	   36 B(4,2,15)       =    118.409490     0.000001    -0.012928   118.396561
	   37 B(4,11,13)      =    123.155895    -0.000001    -0.000826   123.155069
	   38 B(5,7,12)       =    123.888343    -0.000000     0.003994   123.892337
	   39 B(5,7,20)       =    119.847666     0.000001    -0.006628   119.841039
	   40 B(5,10,6)       =    115.857249     0.000000    -0.013353   115.843896
	   41 B(5,10,9)       =    122.132300     0.000005     0.049836   122.182136
	   42 B(6,8,12)       =    123.860192    -0.000000     0.004805   123.864997
	   43 B(6,8,21)       =    119.863991     0.000001    -0.008554   119.855437
	   44 B(6,10,9)       =    121.979492    -0.000005    -0.035455   121.944038
	   45 B(7,5,10)       =    120.078062    -0.000001     0.005573   120.083635
	   46 B(7,5,18)       =    118.817321     0.000000    -0.023397   118.793925
	   47 B(7,12,8)       =    116.204577     0.000001    -0.009807   116.194770
	   48 B(8,6,10)       =    120.105249    -0.000000     0.008866   120.114115
	   49 B(8,6,19)       =    118.817497     0.000002    -0.007162   118.810335
	   50 B(9,1,14)       =    120.059636     0.000000     0.027380   120.087016
	   51 B(9,2,15)       =    120.139148    -0.000001     0.005025   120.144174
	   52 B(10,5,18)      =    121.080265     0.000000     0.017439   121.097704
	   53 B(10,6,19)      =    121.062072    -0.000002    -0.000954   121.061117
	   54 B(11,3,16)      =    119.002251    -0.000001     0.007545   119.009797
	   55 B(11,4,17)      =    119.998855     0.000001    -0.004305   119.994550
	   56 B(11,13,22)     =    109.012933     0.000001     0.001423   109.014356
	   57 B(12,7,20)      =    116.263907    -0.000000     0.002168   116.266075
	   58 B(12,8,21)      =    116.274301    -0.000001     0.003123   116.277424
	   59 D(1,3,11,4)     =      0.220466     0.000000     0.021812     0.242279
	   60 D(1,3,11,13)    =   -179.977893     0.000000     0.053112  -179.924781
	   61 D(1,9,2,4)      =      0.861762    -0.000000    -0.018598     0.843164
	   62 D(1,9,2,15)     =   -177.436718    -0.000000    -0.006178  -177.442897
	   63 D(1,9,10,5)     =     15.276983     0.000000    -0.011106    15.265877
	   64 D(1,9,10,6)     =   -162.614861    -0.000000    -0.046140  -162.661001
	   65 D(2,4,11,3)     =     -0.248622     0.000000     0.008797    -0.239825
	   66 D(2,4,11,13)    =    179.961645    -0.000000    -0.024391   179.937254
	   67 D(2,9,1,3)      =     -0.891987     0.000000     0.049930    -0.842057
	   68 D(2,9,1,14)     =   -178.973096     0.000000     0.061622  -178.911474
	   69 D(2,9,10,5)     =   -162.485284    -0.000000    -0.044435  -162.529719
	   70 D(2,9,10,6)     =     19.622872    -0.000000    -0.079470    19.543402
	   71 D(3,1,9,10)     =   -178.734398     0.000000     0.018440  -178.715958
	   72 D(3,11,4,17)    =    179.148124     0.000000     0.004169   179.152293
	   73 D(3,11,13,22)   =    179.831524    -0.000000    -0.033511   179.798013
	   74 D(4,2,9,10)     =    178.710438     0.000000     0.014670   178.725108
	   75 D(4,11,3,16)    =    179.828457    -0.000000    -0.035158   179.793299
	   76 D(4,11,13,22)   =     -0.374904     0.000000    -0.000944    -0.375848
	   77 D(5,7,12,8)     =      0.150317     0.000000     0.022533     0.172850
	   78 D(5,10,6,8)     =      0.914314     0.000000     0.016047     0.930361
	   79 D(5,10,6,19)    =   -177.651516    -0.000000    -0.019707  -177.671223
	   80 D(6,8,12,7)     =     -0.068849     0.000000     0.048887    -0.019962
	   81 D(6,10,5,7)     =     -0.839072     0.000000     0.049749    -0.789323
	   82 D(6,10,5,18)    =   -179.022786     0.000000     0.064470  -178.958316
	   83 D(7,5,10,9)     =   -178.851957     0.000000     0.017262  -178.834695
	   84 D(7,12,8,21)    =    179.481455    -0.000000    -0.036046   179.445410
	   85 D(8,6,10,9)     =    178.930516     0.000000     0.050300   178.980816
	   86 D(8,12,7,20)    =   -179.955349    -0.000000    -0.142646  -180.097995
	   87 D(9,1,3,11)     =      0.365746    -0.000000    -0.052276     0.313470
	   88 D(9,1,3,16)     =   -179.234297     0.000000     0.005791  -179.228506
	   89 D(9,2,4,11)     =     -0.308495     0.000000    -0.010200    -0.318694
	   90 D(9,2,4,17)     =   -179.706007     0.000000    -0.005540  -179.711547
	   91 D(9,10,5,18)    =      2.964329     0.000000     0.031983     2.996312
	   92 D(9,10,6,19)    =      0.364686     0.000000     0.014546     0.379232
	   93 D(10,5,7,12)    =      0.326660    -0.000000    -0.073103     0.253558
	   94 D(10,5,7,20)    =   -179.564090     0.000000     0.097654  -179.466436
	   95 D(10,6,8,12)    =     -0.488993    -0.000000    -0.069291    -0.558285
	   96 D(10,6,8,21)    =    179.975987     0.000000     0.018467   179.994453
	   97 D(10,9,1,14)    =      3.184493     0.000000     0.030132     3.214625
	   98 D(10,9,2,15)    =      0.411958     0.000000     0.027089     0.439047
	   99 D(11,3,1,14)    =    178.479678    -0.000000    -0.062638   178.417040
	  100 D(11,4,2,15)    =    178.018549     0.000000    -0.022119   177.996430
	  101 D(12,7,5,18)    =    178.551259    -0.000000    -0.086762   178.464497
	  102 D(12,8,6,19)    =    178.108846    -0.000000    -0.034256   178.074590
	  103 D(13,11,3,16)   =     -0.369902    -0.000000    -0.003859    -0.373761
	  104 D(13,11,4,17)   =     -0.641610    -0.000000    -0.029018    -0.670628
	  105 D(14,1,3,16)    =     -1.120365     0.000000    -0.004571    -1.124937
	  106 D(15,2,4,17)    =     -1.378963     0.000000    -0.017459    -1.396422
	  107 D(18,5,7,20)    =     -1.339492     0.000000     0.083995    -1.255497
	  108 D(19,6,8,21)    =     -1.426174     0.000000     0.053502    -1.372672
	 ---------------------------------------------------------------------------
	Successfully symmetrized geometry.
	 Forces used to impose fixed constraints are not included.
	  Forces zeroed: 63 

  ==> Convergence Check <==

  Measures of convergence in internal coordinates in au.
  Criteria marked as inactive (o), active & met (*), and active & unmet ( ).
  ---------------------------------------------------------------------------------------------
   Step     Total Energy     Delta E     MAX Force     RMS Force      MAX Disp      RMS Disp   
  ---------------------------------------------------------------------------------------------
    Convergence Criteria    1.00e-06 *    3.00e-04 *             o    1.20e-03 *             o
  ---------------------------------------------------------------------------------------------
      6    -553.72458646    8.28e-07 *    7.22e-05 *    1.76e-05 o    2.49e-03      5.84e-04 o  ~
  ---------------------------------------------------------------------------------------------


  **** Optimization is complete! (in 6 steps) ****

  ==> Optimization Summary <==

  Measures of convergence in internal coordinates in au.
  --------------------------------------------------------------------------------------------------------------- ~
   Step         Total Energy             Delta E       MAX Force       RMS Force        MAX Disp        RMS Disp  ~
  --------------------------------------------------------------------------------------------------------------- ~
      1    -553.719504520963   -553.719504520963      0.02618620      0.00582420      0.03863032      0.00961422  ~
      2    -553.723514259834     -0.004009738871      0.00800718      0.00214396      0.02721874      0.00960825  ~
      3    -553.724495051744     -0.000980791910      0.00131883      0.00035487      0.03823648      0.00746567  ~
      4    -553.724577305832     -0.000082254088      0.00056678      0.00012236      0.00955885      0.00204911  ~
      5    -553.724587292216     -0.000009986384      0.00019163      0.00004385      0.00153038      0.00040027  ~
      6    -553.724586464253      0.000000827963      0.00007221      0.00001759      0.00248964      0.00058403  ~
  --------------------------------------------------------------------------------------------------------------- ~

	Writing optimization data to binary file.
	Final energy is   -553.7245864642525
	Final (previous) structure:
	Cartesian Geometry (in Angstrom)
	    C    -1.2889734013   0.7009698385  -0.5459139596
	    C    -0.2802864282   0.1279746139   1.5375808899
	    C    -2.3571916005   1.2742478200   0.1190432252
	    C    -1.3451225247   0.6999500832   2.2136323430
	    C     1.1679845595  -0.2038380784  -1.9069970793
	    C     1.7856670203  -1.3691730139   0.0524340341
	    C     2.2475797424  -0.7960531324  -2.5414751334
	    C     2.8411142400  -1.9130042974  -0.6608394870
	    C    -0.2307950490   0.1063896391   0.1442322350
	    C     0.9119394494  -0.4754251479  -0.5643137458
	    C    -2.3916903630   1.2744926764   1.5060611808
	    N     3.0888360734  -1.6429755538  -1.9443411894
	    O    -3.4676353213   1.8523113837   2.1067047015
	    H    -1.3023797896   0.6940061981  -1.6243285234
	    H     0.5335377769  -0.2817156801   2.1147979203
	    H    -3.1754534749   1.7201180939  -0.4246261928
	    H    -1.3553571852   0.7069691584   3.2948433576
	    H     0.5540305062   0.4874854601  -2.4620696248
	    H     1.6432280154  -1.6678734842   1.0789367706
	    H     2.4469115749  -0.5772258548  -3.5813651525
	    H     3.5167858544  -2.6056597833  -0.1784063706
	    H    -3.3687097735   1.7826449963   3.0610684680
	Saving final (previous) structure.
			--------------------------
			 OPTKING Finished Execution 
			--------------------------

    Final optimized geometry and variables:
    Molecular point group: c1
    Full point group: C1

    Geometry (in Angstrom), charge = 0, multiplicity = 1:

    C           -1.288973401321     0.700969838526    -0.545913959568
    C           -0.280286428162     0.127974613910     1.537580889917
    C           -2.357191600521     1.274247819974     0.119043225247
    C           -1.345122524676     0.699950083168     2.213632342993
    C            1.167984559472    -0.203838078382    -1.906997079283
    C            1.785667020271    -1.369173013914     0.052434034101
    C            2.247579742395    -0.796053132409    -2.541475133359
    C            2.841114240028    -1.913004297417    -0.660839487015
    C           -0.230795048969     0.106389639118     0.144232235036
    C            0.911939449443    -0.475425147949    -0.564313745831
    C           -2.391690363032     1.274492676357     1.506061180758
    N            3.088836073420    -1.642975553784    -1.944341189352
    O           -3.467635321318     1.852311383731     2.106704701517
    H           -1.302379789600     0.694006198054    -1.624328523432
    H            0.533537776859    -0.281715680144     2.114797920337
    H           -3.175453474886     1.720118093905    -0.424626192812
    H           -1.355357185248     0.706969158360     3.294843357588
    H            0.554030506209     0.487485460129    -2.462069624819
    H            1.643228015359    -1.667873484232     1.078936770629
    H            2.446911574928    -0.577225854805    -3.581365152549
    H            3.516785854368    -2.605659783303    -0.178406370590
    H           -3.368709773510     1.782644996269     3.061068467971

	Cleaning optimization helper files.

*** Psi4 exiting successfully. Buy a developer a beer!
