
    -----------------------------------------------------------------------
          Psi4: An Open-Source Ab Initio Electronic Structure Package
                               Psi4 1.1 release

                         Git: Rev {HEAD} add49b9 


    R. M. Parrish, L. A. Burns, D. G. A. Smith, A. C. Simmonett,
    A. E. DePrince III, E. G. Hohenstein, U. Bozkaya, A. Yu. Sokolov,
    R. Di Remigio, R. M. Richard, J. F. Gonthier, A. M. James,
    H. R. McAlexander, A. Kumar, M. Saitow, X. Wang, B. P. Pritchard,
    P. Verma, H. F. Schaefer III, K. Patkowski, R. A. King, E. F. Valeev,
    F. A. Evangelista, J. M. Turney, T. D. Crawford, and C. D. Sherrill,
    J. Chem. Theory Comput. in press (2017).
    (doi: 10.1021/acs.jctc.7b00174)

    -----------------------------------------------------------------------


    Psi4 started on: Sunday, 12 November 2017 02:04PM

    Process ID:  24548
    PSIDATADIR: /cbio/jclab/home/chayas/anaconda/envs/py35/share/psi4
    Memory:     500.0 MiB
    Threads:    8
    
  ==> Input File <==

--------------------------------------------------------------------------

memory 5 Gb

molecule phepyrOH_neutral {
  symmetry C1
  0 1 
  C      1.885   -1.036   -0.112
  C      2.878   -1.652   2.002
  C      0.807   -0.463   0.561
  C      1.800   -1.079   2.676
  C      3.862   -2.773   -1.356
  C      5.298   -2.250   0.501
  C      4.965   -3.329   -1.983
  C      6.337   -2.829   -0.209
  C      2.921   -1.631   0.608
  C      4.040   -2.225   -0.090
  C      0.764   -0.484   1.955
  N      6.202   -3.372   -1.440
  O      -0.288   0.076   2.612
  H      1.904   -1.012   -1.199
  H      3.678   -2.112   2.578
  H      0.003   -0.001   -0.006
  H      1.772   -1.098   3.762
  H      2.895   -2.772   -1.850
  H      5.475   -1.833   1.487
  H      4.879   -3.768   -2.972
  H      7.337   -2.875   0.208
  H      -0.109   1.011   2.800
  units Angstrom
}

dih_string = "3 11 13 22 270"
set optking fixed_dihedral = $dih_string

optimize('MP2/aug-cc-PVTZ')
--------------------------------------------------------------------------

  Memory set to   4.657 GiB by Python driver.
gradient() will perform analytic gradient computation.

*** tstart() called on gpu-1-7.local
*** at Sun Nov 12 14:04:36 2017

    SCF Algorithm Type (re)set to DF.

*** tstart() called on gpu-1-7.local
*** at Sun Nov 12 14:04:36 2017

   => Loading Basis Set <=

    Name: AUG-CC-PVTZ
    Role: ORBITAL
    Keyword: BASIS
    atoms 1-11  entry C          line   221 file /cbio/jclab/home/chayas/anaconda/envs/py35/share/psi4/basis/aug-cc-pvtz.gbs 
    atoms 12    entry N          line   267 file /cbio/jclab/home/chayas/anaconda/envs/py35/share/psi4/basis/aug-cc-pvtz.gbs 
    atoms 13    entry O          line   313 file /cbio/jclab/home/chayas/anaconda/envs/py35/share/psi4/basis/aug-cc-pvtz.gbs 
    atoms 14-22 entry H          line    34 file /cbio/jclab/home/chayas/anaconda/envs/py35/share/psi4/basis/aug-cc-pvtz.gbs 


         ---------------------------------------------------------
                                   SCF
            by Justin Turney, Rob Parrish, and Andy Simmonett
                              RHF Reference
                        8 Threads,   4768 MiB Core
         ---------------------------------------------------------

  ==> Geometry <==

    Molecular point group: c1
    Full point group: C1

    Geometry (in Angstrom), charge = 0, multiplicity = 1:

       Center              X                  Y                   Z               Mass       
    ------------   -----------------  -----------------  -----------------  -----------------
           C         -1.253956626926     0.703584153438    -0.586055445530    12.000000000000
           C         -0.260956626926     0.087584153438     1.527944554470    12.000000000000
           C         -2.331956626926     1.276584153438     0.086944554470    12.000000000000
           C         -1.338956626926     0.660584153438     2.201944554470    12.000000000000
           C          0.723043373074    -1.033415846562    -1.830055445530    12.000000000000
           C          2.159043373074    -0.510415846562     0.026944554470    12.000000000000
           C          1.826043373074    -1.589415846562    -2.457055445530    12.000000000000
           C          3.198043373074    -1.089415846562    -0.683055445530    12.000000000000
           C         -0.217956626926     0.108584153438     0.133944554470    12.000000000000
           C          0.901043373074    -0.485415846562    -0.564055445530    12.000000000000
           C         -2.374956626926     1.255584153438     1.480944554470    12.000000000000
           N          3.063043373074    -1.632415846562    -1.914055445530    14.003074004780
           O         -3.426956626926     1.815584153438     2.137944554470    15.994914619560
           H         -1.234956626926     0.727584153438    -1.673055445530     1.007825032070
           H          0.539043373074    -0.372415846562     2.103944554470     1.007825032070
           H         -3.135956626926     1.738584153438    -0.480055445530     1.007825032070
           H         -1.366956626926     0.641584153438     3.287944554470     1.007825032070
           H         -0.243956626926    -1.032415846562    -2.324055445530     1.007825032070
           H          2.336043373074    -0.093415846562     1.012944554470     1.007825032070
           H          1.740043373074    -2.028415846562    -3.446055445530     1.007825032070
           H          4.198043373074    -1.135415846562    -0.266055445530     1.007825032070
           H         -3.247956626926     2.750584153438     2.325944554470     1.007825032070

  Running in c1 symmetry.

  Rotational constants: A =      0.09693  B =      0.01354  C =      0.01209 [cm^-1]
  Rotational constants: A =   2905.96140  B =    405.90898  C =    362.48073 [MHz]
  Nuclear repulsion =  698.478838881215438

  Charge       = 0
  Multiplicity = 1
  Electrons    = 90
  Nalpha       = 45
  Nbeta        = 45

  ==> Algorithm <==

  SCF Algorithm Type is DF.
  DIIS enabled.
  MOM disabled.
  Fractional occupation disabled.
  Guess Type is SAD.
  Energy threshold   = 1.00e-10
  Density threshold  = 1.00e-10
  Integral threshold = 0.00e+00

  ==> Primary Basis <==

  Basis Set: AUG-CC-PVTZ
    Blend: AUG-CC-PVTZ
    Number of shells: 263
    Number of basis function: 805
    Number of Cartesian functions: 940
    Spherical Harmonics?: true
    Max angular momentum: 3

   => Loading Basis Set <=

    Name: (AUG-CC-PVTZ AUX)
    Role: JKFIT
    Keyword: DF_BASIS_SCF
    atoms 1-11  entry C          line   161 file /cbio/jclab/home/chayas/anaconda/envs/py35/share/psi4/basis/aug-cc-pvtz-jkfit.gbs 
    atoms 12    entry N          line   223 file /cbio/jclab/home/chayas/anaconda/envs/py35/share/psi4/basis/aug-cc-pvtz-jkfit.gbs 
    atoms 13    entry O          line   285 file /cbio/jclab/home/chayas/anaconda/envs/py35/share/psi4/basis/aug-cc-pvtz-jkfit.gbs 
    atoms 14-22 entry H          line    69 file /cbio/jclab/home/chayas/anaconda/envs/py35/share/psi4/basis/aug-cc-pvtz-jkfit.gbs 

  ==> Pre-Iterations <==

   -------------------------------------------------------
    Irrep   Nso     Nmo     Nalpha   Nbeta   Ndocc  Nsocc
   -------------------------------------------------------
     A        805     805       0       0       0       0
   -------------------------------------------------------
    Total     805     805      45      45      45       0
   -------------------------------------------------------

  ==> Integral Setup <==

  ==> DFJK: Density-Fitted J/K Matrices <==

    J tasked:                  Yes
    K tasked:                  Yes
    wK tasked:                  No
    OpenMP threads:              8
    Integrals threads:           8
    Memory (MB):              3576
    Algorithm:                Disk
    Integral Cache:           NONE
    Schwarz Cutoff:          1E-12
    Fitting Condition:       1E-12

   => Auxiliary Basis Set <=

  Basis Set: (AUG-CC-PVTZ AUX)
    Blend: AUG-CC-PVTZ-JKFIT
    Number of shells: 516
    Number of basis function: 1766
    Number of Cartesian functions: 2198
    Spherical Harmonics?: true
    Max angular momentum: 4

  Minimum eigenvalue in the overlap matrix is 6.4862776642E-07.
  Using Symmetric Orthogonalization.

  SCF Guess: Superposition of Atomic Densities via on-the-fly atomic UHF.

  ==> Iterations <==

                           Total Energy        Delta E     RMS |[F,P]|

   @DF-RHF iter   0:  -557.26677747606982   -5.57267e+02   2.06843e-02 
   @DF-RHF iter   1:  -550.90820459732311    6.35857e+00   2.22089e-03 
   @DF-RHF iter   2:  -551.22087160108481   -3.12667e-01   8.92239e-04 DIIS
   @DF-RHF iter   3:  -551.26680152064478   -4.59299e-02   2.67155e-04 DIIS
   @DF-RHF iter   4:  -551.27995970737402   -1.31582e-02   9.96336e-05 DIIS
   @DF-RHF iter   5:  -551.28133417679953   -1.37447e-03   3.90651e-05 DIIS
   @DF-RHF iter   6:  -551.28157072066438   -2.36544e-04   1.34217e-05 DIIS
   @DF-RHF iter   7:  -551.28159803439621   -2.73137e-05   4.26440e-06 DIIS
   @DF-RHF iter   8:  -551.28160077054747   -2.73615e-06   1.94521e-06 DIIS
   @DF-RHF iter   9:  -551.28160153283090   -7.62283e-07   9.19603e-07 DIIS
   @DF-RHF iter  10:  -551.28160181272051   -2.79890e-07   4.50204e-07 DIIS
   @DF-RHF iter  11:  -551.28160187109813   -5.83776e-08   1.95098e-07 DIIS
   @DF-RHF iter  12:  -551.28160187974436   -8.64623e-09   8.17432e-08 DIIS
   @DF-RHF iter  13:  -551.28160188082893   -1.08457e-09   3.49755e-08 DIIS
   @DF-RHF iter  14:  -551.28160188101401   -1.85082e-10   1.08155e-08 DIIS
   @DF-RHF iter  15:  -551.28160188104744   -3.34239e-11   8.29104e-09 DIIS
   @DF-RHF iter  16:  -551.28160188106733   -1.98952e-11   2.43559e-09 DIIS
   @DF-RHF iter  17:  -551.28160188107336   -6.02540e-12   1.47499e-09 DIIS
   @DF-RHF iter  18:  -551.28160188107120    2.16005e-12   4.60383e-10 DIIS
   @DF-RHF iter  19:  -551.28160188107154   -3.41061e-13   1.93067e-10 DIIS
   @DF-RHF iter  20:  -551.28160188108052   -8.98126e-12   8.41330e-11 DIIS

  ==> Post-Iterations <==

    Orbital Energies (a.u.)
    -----------------------

    Doubly Occupied:                                                      

       1A    -20.588063     2A    -15.563133     3A    -11.306210  
       4A    -11.275030     5A    -11.274964     6A    -11.264224  
       7A    -11.251816     8A    -11.251555     9A    -11.248731  
      10A    -11.244428    11A    -11.244338    12A    -11.237566  
      13A    -11.237529    14A     -1.406640    15A     -1.249701  
      16A     -1.174041    17A     -1.104110    18A     -1.039717  
      19A     -1.028102    20A     -1.008574    21A     -0.879875  
      22A     -0.872777    23A     -0.834903    24A     -0.810640  
      25A     -0.747248    26A     -0.723230    27A     -0.683093  
      28A     -0.665944    29A     -0.645220    30A     -0.642478  
      31A     -0.631174    32A     -0.610441    33A     -0.595272  
      34A     -0.591892    35A     -0.550236    36A     -0.542252  
      37A     -0.527696    38A     -0.514859    39A     -0.504939  
      40A     -0.480735    41A     -0.418734    42A     -0.401464  
      43A     -0.353791    44A     -0.349531    45A     -0.314888  

    Virtual:                                                              

      46A      0.023011    47A      0.028652    48A      0.031859  
      49A      0.038791    50A      0.041401    51A      0.045260  
      52A      0.054086    53A      0.056282    54A      0.059873  
      55A      0.073781    56A      0.078503    57A      0.083756  
      58A      0.087657    59A      0.092271    60A      0.094112  
      61A      0.102045    62A      0.107003    63A      0.108006  
      64A      0.111399    65A      0.113438    66A      0.116842  
      67A      0.118045    68A      0.120960    69A      0.127249  
      70A      0.128731    71A      0.132290    72A      0.133279  
      73A      0.137667    74A      0.141520    75A      0.146534  
      76A      0.148315    77A      0.150673    78A      0.153349  
      79A      0.157700    80A      0.160085    81A      0.168315  
      82A      0.170004    83A      0.176446    84A      0.181792  
      85A      0.184958    86A      0.186463    87A      0.201354  
      88A      0.203680    89A      0.210794    90A      0.216202  
      91A      0.222239    92A      0.224812    93A      0.229275  
      94A      0.232973    95A      0.240795    96A      0.242233  
      97A      0.244326    98A      0.248471    99A      0.253274  
     100A      0.258198   101A      0.261200   102A      0.262712  
     103A      0.265546   104A      0.273339   105A      0.274568  
     106A      0.280375   107A      0.287212   108A      0.289112  
     109A      0.291244   110A      0.295685   111A      0.299970  
     112A      0.300925   113A      0.304652   114A      0.313547  
     115A      0.316139   116A      0.319388   117A      0.327582  
     118A      0.328223   119A      0.328621   120A      0.331655  
     121A      0.339198   122A      0.341432   123A      0.352036  
     124A      0.355508   125A      0.359298   126A      0.361104  
     127A      0.367886   128A      0.371557   129A      0.378489  
     130A      0.382177   131A      0.387617   132A      0.396679  
     133A      0.398214   134A      0.408430   135A      0.418436  
     136A      0.420850   137A      0.425699   138A      0.428847  
     139A      0.431404   140A      0.435764   141A      0.436621  
     142A      0.438005   143A      0.443242   144A      0.447381  
     145A      0.451064   146A      0.457105   147A      0.460899  
     148A      0.462446   149A      0.466323   150A      0.471546  
     151A      0.474779   152A      0.479725   153A      0.484213  
     154A      0.487653   155A      0.489989   156A      0.496907  
     157A      0.500169   158A      0.500931   159A      0.505071  
     160A      0.506236   161A      0.508517   162A      0.512955  
     163A      0.516637   164A      0.518812   165A      0.521761  
     166A      0.525004   167A      0.527055   168A      0.529601  
     169A      0.533373   170A      0.539753   171A      0.542225  
     172A      0.547197   173A      0.551225   174A      0.555614  
     175A      0.561755   176A      0.562902   177A      0.569764  
     178A      0.577018   179A      0.581801   180A      0.589260  
     181A      0.592942   182A      0.606519   183A      0.607937  
     184A      0.611795   185A      0.613604   186A      0.622983  
     187A      0.627439   188A      0.630097   189A      0.636759  
     190A      0.641768   191A      0.651981   192A      0.652762  
     193A      0.663752   194A      0.677305   195A      0.687447  
     196A      0.689039   197A      0.693397   198A      0.697448  
     199A      0.703854   200A      0.705858   201A      0.710413  
     202A      0.720340   203A      0.722361   204A      0.727753  
     205A      0.732768   206A      0.735104   207A      0.739106  
     208A      0.748404   209A      0.758668   210A      0.760539  
     211A      0.767227   212A      0.768859   213A      0.772785  
     214A      0.775832   215A      0.781229   216A      0.795620  
     217A      0.802637   218A      0.807576   219A      0.819298  
     220A      0.825728   221A      0.827068   222A      0.840271  
     223A      0.843293   224A      0.845413   225A      0.850194  
     226A      0.859561   227A      0.861302   228A      0.871623  
     229A      0.873309   230A      0.876445   231A      0.879603  
     232A      0.883693   233A      0.886215   234A      0.894685  
     235A      0.901069   236A      0.903556   237A      0.905946  
     238A      0.912686   239A      0.916908   240A      0.920875  
     241A      0.925111   242A      0.928923   243A      0.940621  
     244A      0.946228   245A      0.949358   246A      0.953035  
     247A      0.958925   248A      0.964341   249A      0.968620  
     250A      0.973564   251A      0.978145   252A      0.980767  
     253A      0.984890   254A      0.987422   255A      0.991675  
     256A      0.999465   257A      1.002324   258A      1.005150  
     259A      1.012193   260A      1.014329   261A      1.017324  
     262A      1.024755   263A      1.027200   264A      1.034055  
     265A      1.036559   266A      1.039892   267A      1.042506  
     268A      1.047422   269A      1.051464   270A      1.056230  
     271A      1.058728   272A      1.063553   273A      1.069833  
     274A      1.083501   275A      1.086592   276A      1.087965  
     277A      1.091551   278A      1.095736   279A      1.099021  
     280A      1.100765   281A      1.105337   282A      1.106454  
     283A      1.111521   284A      1.116571   285A      1.118999  
     286A      1.127289   287A      1.133480   288A      1.137659  
     289A      1.154349   290A      1.158118   291A      1.159467  
     292A      1.164114   293A      1.169988   294A      1.172690  
     295A      1.178604   296A      1.181684   297A      1.182415  
     298A      1.184283   299A      1.191310   300A      1.194942  
     301A      1.203263   302A      1.207918   303A      1.211684  
     304A      1.216472   305A      1.217005   306A      1.221979  
     307A      1.228241   308A      1.241726   309A      1.243848  
     310A      1.244527   311A      1.264730   312A      1.267386  
     313A      1.275174   314A      1.281321   315A      1.289128  
     316A      1.291805   317A      1.292154   318A      1.297360  
     319A      1.302527   320A      1.309969   321A      1.315370  
     322A      1.318842   323A      1.321540   324A      1.333055  
     325A      1.333594   326A      1.338553   327A      1.354334  
     328A      1.364372   329A      1.367669   330A      1.374923  
     331A      1.382505   332A      1.388922   333A      1.401655  
     334A      1.411466   335A      1.414717   336A      1.426620  
     337A      1.437532   338A      1.446370   339A      1.452604  
     340A      1.456470   341A      1.466801   342A      1.482071  
     343A      1.490971   344A      1.492190   345A      1.507359  
     346A      1.514251   347A      1.517651   348A      1.522074  
     349A      1.531854   350A      1.541370   351A      1.544337  
     352A      1.550144   353A      1.561788   354A      1.573356  
     355A      1.586760   356A      1.592355   357A      1.599190  
     358A      1.609477   359A      1.613348   360A      1.622820  
     361A      1.631620   362A      1.638519   363A      1.643486  
     364A      1.657756   365A      1.664934   366A      1.667599  
     367A      1.672269   368A      1.678377   369A      1.694435  
     370A      1.696521   371A      1.702570   372A      1.709561  
     373A      1.722254   374A      1.726662   375A      1.734619  
     376A      1.741143   377A      1.744492   378A      1.745947  
     379A      1.764351   380A      1.775119   381A      1.781607  
     382A      1.787133   383A      1.795497   384A      1.808303  
     385A      1.812343   386A      1.814900   387A      1.822809  
     388A      1.829174   389A      1.839947   390A      1.844050  
     391A      1.852870   392A      1.865714   393A      1.867388  
     394A      1.872242   395A      1.892076   396A      1.899803  
     397A      1.905370   398A      1.913451   399A      1.922235  
     400A      1.924035   401A      1.927619   402A      1.942648  
     403A      1.958849   404A      1.961168   405A      1.969883  
     406A      1.973609   407A      1.980526   408A      1.998190  
     409A      2.001684   410A      2.009786   411A      2.013620  
     412A      2.015608   413A      2.021666   414A      2.029384  
     415A      2.034961   416A      2.044626   417A      2.055693  
     418A      2.060111   419A      2.065331   420A      2.074613  
     421A      2.084989   422A      2.090357   423A      2.092982  
     424A      2.103725   425A      2.106073   426A      2.114931  
     427A      2.116706   428A      2.124229   429A      2.134914  
     430A      2.144588   431A      2.147983   432A      2.158285  
     433A      2.168495   434A      2.180868   435A      2.191309  
     436A      2.194691   437A      2.202335   438A      2.205313  
     439A      2.214642   440A      2.223991   441A      2.229670  
     442A      2.235842   443A      2.245559   444A      2.261393  
     445A      2.265049   446A      2.293434   447A      2.300902  
     448A      2.309089   449A      2.310684   450A      2.322354  
     451A      2.341043   452A      2.356013   453A      2.360058  
     454A      2.369709   455A      2.371023   456A      2.381086  
     457A      2.391845   458A      2.403525   459A      2.407364  
     460A      2.410339   461A      2.417559   462A      2.424986  
     463A      2.441476   464A      2.461839   465A      2.478176  
     466A      2.491579   467A      2.510132   468A      2.514502  
     469A      2.527352   470A      2.540766   471A      2.548195  
     472A      2.554715   473A      2.570755   474A      2.574212  
     475A      2.583941   476A      2.592155   477A      2.594788  
     478A      2.617014   479A      2.623775   480A      2.652276  
     481A      2.681605   482A      2.688697   483A      2.698363  
     484A      2.714125   485A      2.730668   486A      2.746351  
     487A      2.763143   488A      2.777782   489A      2.783372  
     490A      2.789983   491A      2.806340   492A      2.826079  
     493A      2.837295   494A      2.862878   495A      2.866531  
     496A      2.889271   497A      2.891240   498A      2.920304  
     499A      2.962185   500A      2.980901   501A      2.990711  
     502A      3.007665   503A      3.033524   504A      3.047873  
     505A      3.057962   506A      3.078810   507A      3.102021  
     508A      3.121534   509A      3.141475   510A      3.165843  
     511A      3.183684   512A      3.191453   513A      3.204568  
     514A      3.215012   515A      3.239257   516A      3.244036  
     517A      3.259098   518A      3.287391   519A      3.300007  
     520A      3.308889   521A      3.316159   522A      3.336321  
     523A      3.349235   524A      3.362858   525A      3.368553  
     526A      3.371483   527A      3.392200   528A      3.402140  
     529A      3.409211   530A      3.418616   531A      3.428103  
     532A      3.433279   533A      3.439935   534A      3.449432  
     535A      3.465418   536A      3.474907   537A      3.481994  
     538A      3.495479   539A      3.504237   540A      3.516578  
     541A      3.519081   542A      3.535126   543A      3.539189  
     544A      3.545632   545A      3.556114   546A      3.562444  
     547A      3.567085   548A      3.575644   549A      3.579160  
     550A      3.585302   551A      3.592271   552A      3.598997  
     553A      3.606702   554A      3.628588   555A      3.637504  
     556A      3.641584   557A      3.650834   558A      3.656018  
     559A      3.680239   560A      3.686458   561A      3.699635  
     562A      3.702206   563A      3.721825   564A      3.728565  
     565A      3.738723   566A      3.754276   567A      3.772812  
     568A      3.779160   569A      3.782458   570A      3.790733  
     571A      3.793709   572A      3.808405   573A      3.811758  
     574A      3.826208   575A      3.832530   576A      3.848471  
     577A      3.854253   578A      3.863807   579A      3.864680  
     580A      3.882755   581A      3.891095   582A      3.893573  
     583A      3.904413   584A      3.913981   585A      3.927931  
     586A      3.934544   587A      3.939019   588A      3.942226  
     589A      3.946660   590A      3.950802   591A      3.961977  
     592A      3.979412   593A      3.994045   594A      3.999889  
     595A      4.003127   596A      4.015168   597A      4.019630  
     598A      4.026231   599A      4.030500   600A      4.038482  
     601A      4.040312   602A      4.044625   603A      4.066931  
     604A      4.089210   605A      4.094419   606A      4.107374  
     607A      4.119873   608A      4.128778   609A      4.132647  
     610A      4.139172   611A      4.144627   612A      4.157891  
     613A      4.166925   614A      4.171633   615A      4.183684  
     616A      4.187662   617A      4.205934   618A      4.216008  
     619A      4.220311   620A      4.234593   621A      4.254144  
     622A      4.260354   623A      4.263750   624A      4.277563  
     625A      4.285113   626A      4.290134   627A      4.300763  
     628A      4.302947   629A      4.319380   630A      4.325372  
     631A      4.338225   632A      4.341290   633A      4.352484  
     634A      4.355047   635A      4.381887   636A      4.384286  
     637A      4.388969   638A      4.392960   639A      4.398966  
     640A      4.409165   641A      4.434999   642A      4.442277  
     643A      4.442543   644A      4.452165   645A      4.457828  
     646A      4.459933   647A      4.474678   648A      4.489515  
     649A      4.496221   650A      4.509175   651A      4.516429  
     652A      4.518318   653A      4.533449   654A      4.537955  
     655A      4.559369   656A      4.570765   657A      4.586940  
     658A      4.593447   659A      4.629067   660A      4.630899  
     661A      4.636859   662A      4.664295   663A      4.668724  
     664A      4.685786   665A      4.691315   666A      4.705443  
     667A      4.722338   668A      4.734375   669A      4.741514  
     670A      4.746113   671A      4.759154   672A      4.788256  
     673A      4.802483   674A      4.820678   675A      4.838113  
     676A      4.850582   677A      4.865218   678A      4.875082  
     679A      4.885194   680A      4.907993   681A      4.915277  
     682A      4.939841   683A      4.943349   684A      4.947229  
     685A      4.968338   686A      4.985167   687A      4.995086  
     688A      5.004247   689A      5.011312   690A      5.027652  
     691A      5.028624   692A      5.046179   693A      5.050980  
     694A      5.066507   695A      5.087979   696A      5.093617  
     697A      5.102624   698A      5.110220   699A      5.119013  
     700A      5.142059   701A      5.147230   702A      5.158963  
     703A      5.162451   704A      5.168919   705A      5.173596  
     706A      5.178593   707A      5.183611   708A      5.216362  
     709A      5.232072   710A      5.236095   711A      5.259514  
     712A      5.276623   713A      5.292158   714A      5.309738  
     715A      5.314152   716A      5.321408   717A      5.344239  
     718A      5.360630   719A      5.366814   720A      5.390266  
     721A      5.424527   722A      5.428283   723A      5.443450  
     724A      5.446714   725A      5.478106   726A      5.491192  
     727A      5.493908   728A      5.512053   729A      5.553977  
     730A      5.562856   731A      5.568964   732A      5.617969  
     733A      5.629133   734A      5.690148   735A      5.692694  
     736A      5.715329   737A      5.728646   738A      5.731742  
     739A      5.758708   740A      5.760579   741A      5.800222  
     742A      5.820723   743A      5.825046   744A      5.846221  
     745A      5.875430   746A      5.879891   747A      5.914048  
     748A      5.940823   749A      5.985181   750A      6.059494  
     751A      6.084822   752A      6.104219   753A      6.163399  
     754A      6.180917   755A      6.227391   756A      6.235390  
     757A      6.273390   758A      6.280307   759A      6.368554  
     760A      6.403910   761A      6.411650   762A      6.463860  
     763A      6.481452   764A      6.520255   765A      6.539416  
     766A      6.593163   767A      6.620842   768A      6.709590  
     769A      6.715955   770A      6.740711   771A      6.749529  
     772A      6.865789   773A      6.884354   774A      6.886299  
     775A      6.906540   776A      6.913535   777A      6.943752  
     778A      6.977818   779A      7.091326   780A      7.105225  
     781A      7.148747   782A      7.302982   783A      7.375823  
     784A      7.400540   785A      7.426070   786A      7.546220  
     787A      7.590466   788A      7.667364   789A      7.899940  
     790A      7.948697   791A      8.146394   792A      8.598977  
     793A     15.625351   794A     16.364766   795A     16.757861  
     796A     16.804069   797A     17.051195   798A     18.432657  
     799A     18.831748   800A     19.210714   801A     19.969489  
     802A     20.057001   803A     20.368038   804A     20.590035  
     805A     21.778484  

    Final Occupation by Irrep:
              A 
    DOCC [    45 ]

  Energy converged.

  @DF-RHF Final Energy:  -551.28160188108052

   => Energetics <=

    Nuclear Repulsion Energy =            698.4788388812154381
    One-Electron Energy =               -2133.7373116299772846
    Two-Electron Energy =                 883.9768708676814413
    DFT Exchange-Correlation Energy =       0.0000000000000000
    Empirical Dispersion Energy =           0.0000000000000000
    PCM Polarization Energy =               0.0000000000000000
    EFP Energy =                            0.0000000000000000
    Total Energy =                       -551.2816018810805190



Properties will be evaluated at   0.000000,   0.000000,   0.000000 Bohr

Properties computed using the SCF density matrix

  Nuclear Dipole Moment: (a.u.)
     X:    -0.4159      Y:     1.1349      Z:     0.5235

  Electronic Dipole Moment: (a.u.)
     X:    -0.0719      Y:    -0.2217      Z:    -0.0300

  Dipole Moment: (a.u.)
     X:    -0.4879      Y:     0.9132      Z:     0.4935     Total:     1.1470

  Dipole Moment: (Debye)
     X:    -1.2400      Y:     2.3211      Z:     1.2544     Total:     2.9153


*** tstop() called on gpu-1-7.local at Sun Nov 12 14:12:46 2017
Module time:
	user time   =    1089.60 seconds =      18.16 minutes
	system time =      49.48 seconds =       0.82 minutes
	total time  =        490 seconds =       8.17 minutes
Total time:
	user time   =    1089.61 seconds =      18.16 minutes
	system time =      49.48 seconds =       0.82 minutes
	total time  =        490 seconds =       8.17 minutes

  //>>>>>>>>>>>>>>>>>>>>>>>>>>>>>>>>>>>//
  //               DFMP2               //
  //<<<<<<<<<<<<<<<<<<<<<<<<<<<<<<<<<<<//

   => Loading Basis Set <=

    Name: (AUG-CC-PVTZ AUX)
    Role: RIFIT
    Keyword: DF_BASIS_MP2
    atoms 1-11  entry C          line   147 file /cbio/jclab/home/chayas/anaconda/envs/py35/share/psi4/basis/aug-cc-pvtz-ri.gbs 
    atoms 12    entry N          line   205 file /cbio/jclab/home/chayas/anaconda/envs/py35/share/psi4/basis/aug-cc-pvtz-ri.gbs 
    atoms 13    entry O          line   263 file /cbio/jclab/home/chayas/anaconda/envs/py35/share/psi4/basis/aug-cc-pvtz-ri.gbs 
    atoms 14-22 entry H          line    29 file /cbio/jclab/home/chayas/anaconda/envs/py35/share/psi4/basis/aug-cc-pvtz-ri.gbs 

	 --------------------------------------------------------
	                          DF-MP2                         
	      2nd-Order Density-Fitted Moller-Plesset Theory     
	              RMP2 Wavefunction,   8 Threads             
	                                                         
	        Rob Parrish, Justin Turney, Andy Simmonett,      
	           Ed Hohenstein, and C. David Sherrill          
	 --------------------------------------------------------

   => Auxiliary Basis Set <=

  Basis Set: (AUG-CC-PVTZ AUX)
    Blend: AUG-CC-PVTZ-RI
    Number of shells: 490
    Number of basis function: 1792
    Number of Cartesian functions: 2263
    Spherical Harmonics?: true
    Max angular momentum: 4

	 --------------------------------------------------------
	                 NBF =   805, NAUX =  1792
	 --------------------------------------------------------
	   CLASS    FOCC     OCC    AOCC    AVIR     VIR    FVIR
	   PAIRS       0      45      45     760     760       0
	 --------------------------------------------------------


         ------------------------------------------------------------
                                     CPHF                           
                                  Rob Parrish                       
         ------------------------------------------------------------

  ==> Geometry <==

    Molecular point group: c1
    Full point group: C1

    Geometry (in Angstrom), charge = 0, multiplicity = 1:

       Center              X                  Y                   Z               Mass       
    ------------   -----------------  -----------------  -----------------  -----------------
           C         -1.253956626926     0.703584153438    -0.586055445530    12.000000000000
           C         -0.260956626926     0.087584153438     1.527944554470    12.000000000000
           C         -2.331956626926     1.276584153438     0.086944554470    12.000000000000
           C         -1.338956626926     0.660584153438     2.201944554470    12.000000000000
           C          0.723043373074    -1.033415846562    -1.830055445530    12.000000000000
           C          2.159043373074    -0.510415846562     0.026944554470    12.000000000000
           C          1.826043373074    -1.589415846562    -2.457055445530    12.000000000000
           C          3.198043373074    -1.089415846562    -0.683055445530    12.000000000000
           C         -0.217956626926     0.108584153438     0.133944554470    12.000000000000
           C          0.901043373074    -0.485415846562    -0.564055445530    12.000000000000
           C         -2.374956626926     1.255584153438     1.480944554470    12.000000000000
           N          3.063043373074    -1.632415846562    -1.914055445530    14.003074004780
           O         -3.426956626926     1.815584153438     2.137944554470    15.994914619560
           H         -1.234956626926     0.727584153438    -1.673055445530     1.007825032070
           H          0.539043373074    -0.372415846562     2.103944554470     1.007825032070
           H         -3.135956626926     1.738584153438    -0.480055445530     1.007825032070
           H         -1.366956626926     0.641584153438     3.287944554470     1.007825032070
           H         -0.243956626926    -1.032415846562    -2.324055445530     1.007825032070
           H          2.336043373074    -0.093415846562     1.012944554470     1.007825032070
           H          1.740043373074    -2.028415846562    -3.446055445530     1.007825032070
           H          4.198043373074    -1.135415846562    -0.266055445530     1.007825032070
           H         -3.247956626926     2.750584153438     2.325944554470     1.007825032070

  Nuclear repulsion =  698.478838881215438
  Reference energy  = -551.281601881080519

  ==> Basis Set <==

  Basis Set: AUG-CC-PVTZ
    Blend: AUG-CC-PVTZ
    Number of shells: 263
    Number of basis function: 805
    Number of Cartesian functions: 940
    Spherical Harmonics?: true
    Max angular momentum: 3

  ==> CGRSolver (by Rob Parrish) <==

   Number of roots    =         1
   Preconditioning    =    JACOBI
   Convergence cutoff =     1E-06
   Maximum iterations =       100

  ==> CPHFRHamiltonian (by Rob Parrish) <== 

  ==> DFJK: Density-Fitted J/K Matrices <==

    J tasked:                  Yes
    K tasked:                  Yes
    wK tasked:                  No
    OpenMP threads:              8
    Integrals threads:           8
    Memory (MB):              3576
    Algorithm:                Disk
    Integral Cache:           NONE
    Schwarz Cutoff:          1E-12
    Fitting Condition:       1E-12

   => Auxiliary Basis Set <=

  Basis Set: (AUG-CC-PVTZ AUX)
    Blend: AUG-CC-PVTZ-JKFIT
    Number of shells: 516
    Number of basis function: 1766
    Number of Cartesian functions: 2198
    Spherical Harmonics?: true
    Max angular momentum: 4

  ==> CPHF Iterations <==

  => Iterations <=

             Iter  Converged  Remaining    Residual
  CGR           1          0          1   8.447E-02
  CGR           2          0          1   3.362E-02
  CGR           3          0          1   2.373E-02
  CGR           4          0          1   9.870E-03
  CGR           5          0          1   3.724E-03
  CGR           6          0          1   1.524E-03
  CGR           7          0          1   4.714E-04
  CGR           8          0          1   1.848E-04
  CGR           9          0          1   9.381E-05
  CGR          10          0          1   3.878E-05
  CGR          11          0          1   1.284E-05
  CGR          12          0          1   4.723E-06
  CGR          13          0          1   1.335E-06
  CGR          14          1          0   3.998E-07

    CGRSolver converged.

  ==> DFCorrGrad: Density-Fitted Correlated Gradients <==

    OpenMP threads:              8
    Integrals threads:           8
    Memory (MB):              3576
    Schwarz Cutoff:          0E+00
    Fitting Condition:       1E-12

   => Auxiliary Basis Set <=

  Basis Set: (AUG-CC-PVTZ AUX)
    Blend: AUG-CC-PVTZ-JKFIT
    Number of shells: 516
    Number of basis function: 1766
    Number of Cartesian functions: 2198
    Spherical Harmonics?: true
    Max angular momentum: 4

	-----------------------------------------------------------
	 ==================> DF-MP2 Energies <==================== 
	-----------------------------------------------------------
	 Reference Energy          =    -551.2816018810805190 [Eh]
	 Singles Energy            =      -0.0000000000000002 [Eh]
	 Same-Spin Energy          =      -0.6046415736532389 [Eh]
	 Opposite-Spin Energy      =      -1.8302847113660028 [Eh]
	 Correlation Energy        =      -2.4349262850192419 [Eh]
	 Total Energy              =    -553.7165281660998062 [Eh]
	-----------------------------------------------------------
	 ================> DF-SCS-MP2 Energies <================== 
	-----------------------------------------------------------
	 SCS Same-Spin Scale       =       0.3333333333333333 [-]
	 SCS Opposite-Spin Scale   =       1.2000000000000000 [-]
	 SCS Same-Spin Energy      =      -0.2015471912177463 [Eh]
	 SCS Opposite-Spin Energy  =      -2.1963416536392031 [Eh]
	 SCS Correlation Energy    =      -2.3978888448569493 [Eh]
	 SCS Total Energy          =    -553.6794907259375123 [Eh]
	-----------------------------------------------------------


  -Total Gradient:
     Atom            X                  Y                   Z
    ------   -----------------  -----------------  -----------------
       1        0.009168117860    -0.001853142162    -0.006574529930
       2        0.008721811344    -0.006028216988    -0.004590595703
       3       -0.002728611092     0.003121194552     0.003035395842
       4       -0.003601904689     0.002689614785     0.002547757787
       5       -0.009690579130     0.001417610674     0.002074079881
       6       -0.004941024450     0.006189513263     0.007015869124
       7       -0.012754632203     0.002237735606    -0.000201880868
       8       -0.003101985354     0.006894477190     0.011009372897
       9        0.003273260982    -0.001890272787    -0.002182476787
      10        0.003919140157    -0.001774821904    -0.001643203402
      11       -0.016344163959     0.000300814184     0.007253241370
      12        0.012529515099    -0.007007548012    -0.008128414658
      13        0.012297338800    -0.011842090087    -0.009161766736
      14       -0.001556472189    -0.001019205528    -0.006351540482
      15        0.005206763287    -0.001036478727     0.004330014837
      16       -0.002669843243     0.001368316155    -0.005262235511
      17        0.002532224294    -0.001125151306     0.005126145706
      18       -0.004506018272     0.001223271085    -0.003945329096
      19        0.001118183683     0.000317186115     0.005469172335
      20        0.000484308418    -0.001044965844    -0.002887648099
      21        0.002325033614    -0.000736317379     0.000440340211
      22        0.000319537042     0.009598477110     0.002628231265


*** tstop() called on gpu-1-7.local at Sun Nov 12 14:44:31 2017
Module time:
	user time   =    5034.38 seconds =      83.91 minutes
	system time =     105.03 seconds =       1.75 minutes
	total time  =       2395 seconds =      39.92 minutes
Total time:
	user time   =    5034.39 seconds =      83.91 minutes
	system time =     105.03 seconds =       1.75 minutes
	total time  =       2395 seconds =      39.92 minutes

			-----------------------------------------
			 OPTKING 2.0: for geometry optimizations 
			  - R.A. King,  Bethel University        
			-----------------------------------------

	Internal coordinates to be generated automatically.
	Detected frag 1 with atoms:  1 2 3 4 5 6 7 8 9 10 11 12 13 14 15 16 17 18 19 20
	 21 22
	---Fragment 1 Bond Connectivity---
	 1 : 3 9 14
	 2 : 4 9 15
	 3 : 1 11 16
	 4 : 2 11 17
	 5 : 7 10 18
	 6 : 8 10 19
	 7 : 5 12 20
	 8 : 6 12 21
	 9 : 1 2 10
	 10 : 5 6 9
	 11 : 3 4 13
	 12 : 7 8
	 13 : 11 22
	 14 : 1
	 15 : 2
	 16 : 3
	 17 : 4
	 18 : 5
	 19 : 6
	 20 : 7
	 21 : 8
	 22 : 13

	Assuming in current code that numbering for constraints corresponds to unified fragment.
	Fixed dihedral atom list: 
	     3    11    13    22
	---Fragment 1 Geometry and Gradient---
	 C          -2.3696346074        1.3295813614       -1.1074842907
	 C          -0.4931365575        0.1655100636        2.8873967542
	 C          -4.4067593787        2.4123944356        0.1643013967
	 C          -2.5302613287        1.2483231377        4.1610721677
	 C           1.3663539573       -1.9528729314       -3.4583036000
	 C           4.0800006841       -0.9645461639        0.0509178287
	 C           3.4507218819       -3.0035606613       -4.6431618854
	 C           6.0434261362       -2.0586975948       -1.2907877256
	 C          -0.4118783337        0.2051943124        0.2531185249
	 C           1.7027252090       -0.9173030106       -1.0659103158
	 C          -4.4880176024        2.3727101868        2.7985796259
	 N           5.7883131083       -3.0848188850       -3.6170405952
	 O          -6.4760094942        3.4309568212        4.0401296952
	 H          -2.3337298109        1.3749347886       -3.1616165972
	 H           1.0186443489       -0.7037639575        3.9758790067
	 H          -5.9260991895        3.2854479090       -0.9071733207
	 H          -2.5831736604        1.2124183412        6.2133147481
	 H          -0.4610112132       -1.9509832053       -4.3918283097
	 H           4.4144822097       -0.1765303665        1.9141877957
	 H           3.2882054345       -3.8331504336       -6.5121010308
	 H           7.9331522691       -2.1456249969       -0.5027719282
	 H          -6.1377485164        5.1978507555        4.3953982082
	             0.0091681179       -0.0018531422       -0.0065745299
	             0.0087218113       -0.0060282170       -0.0045905957
	            -0.0027286111        0.0031211946        0.0030353958
	            -0.0036019047        0.0026896148        0.0025477578
	            -0.0096905791        0.0014176107        0.0020740799
	            -0.0049410245        0.0061895133        0.0070158691
	            -0.0127546322        0.0022377356       -0.0002018809
	            -0.0031019854        0.0068944772        0.0110093729
	             0.0032732610       -0.0018902728       -0.0021824768
	             0.0039191402       -0.0017748219       -0.0016432034
	            -0.0163441640        0.0003008142        0.0072532414
	             0.0125295151       -0.0070075480       -0.0081284147
	             0.0122973388       -0.0118420901       -0.0091617667
	            -0.0015564722       -0.0010192055       -0.0063515405
	             0.0052067633       -0.0010364787        0.0043300148
	            -0.0026698432        0.0013683162       -0.0052622355
	             0.0025322243       -0.0011251513        0.0051261457
	            -0.0045060183        0.0012232711       -0.0039453291
	             0.0011181837        0.0003171861        0.0054691723
	             0.0004843084       -0.0010449658       -0.0028876481
	             0.0023250336       -0.0007363174        0.0004403402
	             0.0003195370        0.0095984771        0.0026282313

	Previous optimization step data not found.  Starting new optimization.

	---Fragment 1 Intrafragment Coordinates---
	 - Coordinate -           - BOHR/RAD -       - ANG/DEG -
	 R(1,3)           =         2.634350	       1.394038
	 R(1,9)           =         2.635962	       1.394891
	 R(1,14)          =         2.054947	       1.087431
	 R(2,4)           =         2.635263	       1.394521
	 R(2,9)           =         2.635830	       1.394821
	 R(2,15)          =         2.055702	       1.087831
	 R(3,11)          =         2.635830	       1.394821
	 R(3,16)          =         2.053941	       1.086899
	 R(4,11)          =         2.636938	       1.395407
	 R(4,17)          =         2.053239	       1.086527
	 R(5,7)           =         2.617713	       1.385234
	 R(5,10)          =         2.628516	       1.390951
	 R(5,18)          =         2.052008	       1.085876
	 R(6,8)           =         2.617705	       1.385230
	 R(6,10)          =         2.626971	       1.390133
	 R(6,19)          =         2.050517	       1.085087
	 R(7,12)          =         2.554185	       1.351616
	 R(7,20)          =         2.051235	       1.085467
	 R(8,12)          =         2.555281	       1.352196
	 R(8,21)          =         2.049290	       1.084438
	 R(9,10)          =         2.733384	       1.446444
	 R(11,13)         =         2.571662	       1.360865
	 R(13,22)         =         1.833726	       0.970366
	 B(1,3,11)        =         2.094553	     120.009056
	 B(1,3,16)        =         2.088505	     119.662516
	 B(1,9,2)         =         2.093692	     119.959722
	 B(1,9,10)        =         2.095161	     120.043881
	 B(2,4,11)        =         2.093699	     119.960108
	 B(2,4,17)        =         2.089577	     119.723926
	 B(2,9,10)        =         2.094332	     119.996376
	 B(3,1,9)         =         2.094940	     120.031219
	 B(3,1,14)        =         2.079469	     119.144799
	 B(3,11,4)        =         2.094306	     119.994870
	 B(3,11,13)       =         2.094549	     120.008801
	 B(4,2,9)         =         2.095181	     120.045019
	 B(4,2,15)        =         2.078675	     119.099297
	 B(4,11,13)       =         2.094331	     119.996326
	 B(5,7,12)        =         2.164774	     124.032419
	 B(5,7,20)        =         2.107900	     120.773750
	 B(5,10,6)        =         2.089402	     119.713913
	 B(5,10,9)        =         2.096711	     120.132663
	 B(6,8,12)        =         2.164670	     124.026428
	 B(6,8,21)        =         2.108649	     120.816676
	 B(6,10,9)        =         2.097073	     120.153413
	 B(7,5,10)        =         2.058056	     117.917911
	 B(7,5,18)        =         2.098486	     120.234396
	 B(7,12,8)        =         2.031222	     116.380442
	 B(8,6,10)        =         2.058246	     117.928826
	 B(8,6,19)        =         2.099051	     120.266760
	 B(9,1,14)        =         2.108776	     120.823969
	 B(9,2,15)        =         2.109330	     120.855683
	 B(10,5,18)       =         2.126643	     121.847689
	 B(10,6,19)       =         2.125888	     121.804412
	 B(11,3,16)       =         2.100127	     120.328425
	 B(11,4,17)       =         2.099910	     120.315955
	 B(11,13,22)      =         1.925637	     110.330846
	 B(12,7,20)       =         2.010511	     115.193804
	 B(12,8,21)       =         2.009864	     115.156734
	 D(1,3,11,4)      =        -0.000325	      -0.018609
	 D(1,3,11,13)     =         3.140978	     179.964785
	 D(1,9,2,4)       =         0.000325	       0.018608
	 D(1,9,2,15)      =        -3.141497	    -179.994534
	 D(1,9,10,5)      =        -0.524224	     -30.035797
	 D(1,9,10,6)      =         2.616694	     149.925506
	 D(2,4,11,3)      =         0.000301	       0.017261
	 D(2,4,11,13)     =        -3.141002	    -179.966135
	 D(2,9,1,3)       =        -0.000348	      -0.019945
	 D(2,9,1,14)      =        -3.141221	    -179.978731
	 D(2,9,10,5)      =         2.618285	     150.016707
	 D(2,9,10,6)      =        -0.523983	     -30.021991
	 D(3,1,9,10)      =        -3.141025	    -179.967461
	 D(3,11,4,17)     =         3.141223	     179.978848
	 D(3,11,13,22)    =        -1.570386	     -89.976506
	 D(4,2,9,10)      =         3.141002	     179.966149
	 D(4,11,3,16)     =         3.141593	     180.000000
	 D(4,11,13,22)    =         1.570917	      90.006888
	 D(5,7,12,8)      =        -0.001332	      -0.076323
	 D(5,10,6,8)      =         0.000381	       0.021838
	 D(5,10,6,19)     =        -3.140989	    -179.965395
	 D(6,8,12,7)      =         0.001671	       0.095732
	 D(6,10,5,7)      =        -0.000077	      -0.004437
	 D(6,10,5,18)     =        -3.141299	    -179.983151
	 D(7,5,10,9)      =         3.140843	     179.957036
	 D(7,12,8,21)     =         3.140716	     179.949799
	 D(8,6,10,9)      =        -3.140539	    -179.939628
	 D(8,12,7,20)     =         3.139212	     179.863574
	 D(9,1,3,11)      =         0.000348	       0.019955
	 D(9,1,3,16)      =        -3.141571	    -179.998735
	 D(9,2,4,11)      =        -0.000301	      -0.017270
	 D(9,2,4,17)      =        -3.141228	    -179.979086
	 D(9,10,5,18)     =        -0.000378	      -0.021678
	 D(9,10,6,19)     =         0.001277	       0.073140
	 D(10,5,7,12)     =         0.000580	       0.033223
	 D(10,5,7,20)     =        -3.139908	    -179.903478
	 D(10,6,8,12)     =        -0.001235	      -0.070741
	 D(10,6,8,21)     =        -3.140143	    -179.916933
	 D(10,9,1,14)     =         0.001287	       0.073752
	 D(10,9,2,15)     =        -0.000820	      -0.046992
	 D(11,3,1,14)     =         3.141234	     179.979432
	 D(11,4,2,15)     =         3.141517	     179.995641
	 D(12,7,5,18)     =        -3.141378	    -179.987706
	 D(12,8,6,19)     =         3.140139	     179.916697
	 D(13,11,3,16)    =        -0.000286	      -0.016400
	 D(13,11,4,17)    =        -0.000079	      -0.004548
	 D(14,1,3,16)     =        -0.000685	      -0.039257
	 D(15,2,4,17)     =         0.000590	       0.033826
	 D(18,5,7,20)     =         0.001319	       0.075593
	 D(19,6,8,21)     =         0.001231	       0.070505

	Current energy   :      -553.7165281661

	Generating empirical Hessian (Schlegel '84) for each fragment.
	Adding user-defined constraint: Fragment 1; Coordinate 73:
		Value =    -1.570386; Fixed value    =    -1.570796
		Force =    -0.000205; Force constant =     0.500000
	Removing off-diagonal coupling between coordinate 73 and others.
	Taking RFO optimization step.
	Going to follow RFO solution 1.
	Using RFO vector 1.

	Determining step-restricting scale parameter for RS-RFO.
	Maximum step size allowed    0.10000

	 Iter      |step|        alpha        rfo_root  
	------------------------------------------------
	    0     0.28194       1.00000           1
	    1     0.19341       3.64419           1
	    2     0.14604       9.25538           1
	    3     0.11859      19.46482           1
	    4     0.10445      30.35321           1
	    5     0.10034      34.76476           1
	    6     0.10000      35.15768           1
	------------------------------------------------
	Norm of target step-size    0.10000
	Projected energy change by RFO approximation:        -0.0044396025

	Back-transformation to cartesian coordinates...
	Could not converge backtransformation.
	Using first guess instead.

	--- Internal Coordinate Step in ANG or DEG, aJ/ANG or AJ/DEG ---
	 ---------------------------------------------------------------------------
	   Coordinate                Previous        Force       Change         New 
	   ----------                --------       ------       ------       ------
	    1 R(1,3)          =      1.394038    -0.050323    -0.005134     1.388904
	    2 R(1,9)          =      1.394891    -0.004314    -0.000170     1.394721
	    3 R(1,14)         =      1.087431    -0.051898    -0.006466     1.080965
	    4 R(2,4)          =      1.394521    -0.053069    -0.005443     1.389078
	    5 R(2,9)          =      1.394821    -0.003712    -0.000110     1.394711
	    6 R(2,15)         =      1.087831    -0.054047    -0.006721     1.081110
	    7 R(3,11)         =      1.394821    -0.061860    -0.006483     1.388338
	    8 R(3,16)         =      1.086899    -0.043679    -0.005421     1.081478
	    9 R(4,11)         =      1.395407    -0.065198    -0.006831     1.388577
	   10 R(4,17)         =      1.086527    -0.041837    -0.005166     1.081361
	   11 R(5,7)          =      1.385234     0.002111     0.000195     1.385429
	   12 R(5,10)         =      1.390951     0.002950     0.000908     1.391859
	   13 R(5,18)         =      1.085876    -0.047857    -0.005916     1.079960
	   14 R(6,8)          =      1.385230     0.001296     0.000114     1.385344
	   15 R(6,10)         =      1.390133     0.009109     0.001554     1.391687
	   16 R(6,19)         =      1.085087    -0.043451    -0.005342     1.079745
	   17 R(7,12)         =      1.351616    -0.122875    -0.011461     1.340155
	   18 R(7,20)         =      1.085467    -0.024842    -0.003063     1.082404
	   19 R(8,12)         =      1.352196    -0.126242    -0.011784     1.340412
	   20 R(8,21)         =      1.084438    -0.019316    -0.002377     1.082060
	   21 R(9,10)         =      1.446444     0.155862     0.018234     1.464678
	   22 R(11,13)        =      1.360865     0.113949     0.010632     1.371497
	   23 R(13,22)        =      0.970366    -0.080878    -0.007466     0.962900
	   24 B(1,3,11)       =    120.009056     0.000097     0.143420   120.152476
	   25 B(1,3,16)       =    119.662516     0.000179     0.464461   120.126978
	   26 B(1,9,2)        =    119.959722    -0.000761    -1.357502   118.602220
	   27 B(1,9,10)       =    120.043881     0.000370     0.659214   120.703096
	   28 B(2,4,11)       =    119.960108     0.000112     0.167685   120.127793
	   29 B(2,4,17)       =    119.723926     0.000165     0.434963   120.158889
	   30 B(2,9,10)       =    119.996376     0.000391     0.698308   120.694684
	   31 B(3,1,9)        =    120.031219     0.000351     0.702689   120.733908
	   32 B(3,1,14)       =    119.144799    -0.000105    -0.189115   118.955684
	   33 B(3,11,4)       =    119.994870    -0.000153    -0.356208   119.638662
	   34 B(3,11,13)      =    120.008801     0.000073     0.172613   120.181415
	   35 B(4,2,9)        =    120.045019     0.000353     0.699739   120.744758
	   36 B(4,2,15)       =    119.099297    -0.000102    -0.177922   118.921375
	   37 B(4,11,13)      =    119.996326     0.000080     0.181633   120.177959
	   38 B(5,7,12)       =    124.032419     0.000041    -0.003062   124.029357
	   39 B(5,7,20)       =    120.773750    -0.000072    -0.120441   120.653308
	   40 B(5,10,6)       =    119.713913    -0.001193    -2.063752   117.650161
	   41 B(5,10,9)       =    120.132663     0.000594     1.026382   121.159045
	   42 B(6,8,12)       =    124.026428     0.000037    -0.010509   124.015919
	   43 B(6,8,21)       =    120.816676    -0.000075    -0.128731   120.687945
	   44 B(6,10,9)       =    120.153413     0.000600     1.037372   121.190785
	   45 B(7,5,10)       =    117.917911     0.000522     1.082859   119.000770
	   46 B(7,5,18)       =    120.234396    -0.000204    -0.411562   119.822834
	   47 B(7,12,8)       =    116.380442     0.000068    -0.092143   116.288299
	   48 B(8,6,10)       =    117.928826     0.000524     1.086618   119.015444
	   49 B(8,6,19)       =    120.266760    -0.000211    -0.428375   119.838385
	   50 B(9,1,14)       =    120.823969    -0.000246    -0.514078   120.309891
	   51 B(9,2,15)       =    120.855683    -0.000251    -0.522666   120.333017
	   52 B(10,5,18)      =    121.847689    -0.000318    -0.671865   121.175824
	   53 B(10,6,19)      =    121.804412    -0.000313    -0.658808   121.145604
	   54 B(11,3,16)      =    120.328425    -0.000277    -0.607883   119.720542
	   55 B(11,4,17)      =    120.315955    -0.000277    -0.602732   119.713222
	   56 B(11,13,22)     =    110.330846    -0.000232    -0.542799   109.788047
	   57 B(12,7,20)      =    115.193804     0.000031     0.123485   115.317289
	   58 B(12,8,21)      =    115.156734     0.000038     0.139402   115.296136
	   59 D(1,3,11,4)     =     -0.018609    -0.000005    -0.086361    -0.104969
	   60 D(1,3,11,13)    =    179.964785     0.000025     0.439037   180.403822
	   61 D(1,9,2,4)      =      0.018608    -0.000001    -0.025789    -0.007181
	   62 D(1,9,2,15)     =   -179.994534    -0.000020    -0.351726  -180.346260
	   63 D(1,9,10,5)     =    -30.035797    -0.000027    -0.515421   -30.551218
	   64 D(1,9,10,6)     =    149.925506    -0.000027    -0.512811   149.412695
	   65 D(2,4,11,3)     =      0.017261     0.000009     0.144875     0.162136
	   66 D(2,4,11,13)    =   -179.966135    -0.000022    -0.380503  -180.346637
	   67 D(2,9,1,3)      =     -0.019945     0.000005     0.084722     0.064777
	   68 D(2,9,1,14)     =   -179.978731    -0.000012    -0.220542  -180.199273
	   69 D(2,9,10,5)     =    150.016707    -0.000030    -0.561956   149.454750
	   70 D(2,9,10,6)     =    -30.021991    -0.000029    -0.559346   -30.581337
	   71 D(3,1,9,10)     =   -179.967461     0.000002     0.038084  -179.929377
	   72 D(3,11,4,17)    =    179.978848     0.000017     0.295188   180.274036
	   73 D(3,11,13,22)   =    -89.976506    -0.000009    -0.058019   -90.034525
	   74 D(4,2,9,10)     =    179.966149     0.000001     0.020825   179.986974
	   75 D(4,11,3,16)    =    180.000000    -0.000005    -0.080201   179.919799
	   76 D(4,11,13,22)   =     90.006888     0.000021     0.470141    90.477029
	   77 D(5,7,12,8)     =     -0.076323     0.000001     0.026708    -0.049614
	   78 D(5,10,6,8)     =      0.021838     0.000000     0.007254     0.029091
	   79 D(5,10,6,19)    =   -179.965395    -0.000016    -0.279753  -180.245148
	   80 D(6,8,12,7)     =      0.095732    -0.000001    -0.010610     0.085123
	   81 D(6,10,5,7)     =     -0.004437     0.000000     0.007529     0.003091
	   82 D(6,10,5,18)    =   -179.983151    -0.000016    -0.289366  -180.272518
	   83 D(7,5,10,9)     =    179.957036     0.000001     0.011205   179.968241
	   84 D(7,12,8,21)    =    179.949799     0.000008     0.141289   180.091087
	   85 D(8,6,10,9)     =   -179.939628     0.000000     0.003581  -179.936047
	   86 D(8,12,7,20)    =    179.863574     0.000009     0.163787   180.027361
	   87 D(9,1,3,11)     =      0.019955    -0.000001    -0.028898    -0.008943
	   88 D(9,1,3,16)     =   -179.998735    -0.000002    -0.035079  -180.033813
	   89 D(9,2,4,11)     =     -0.017270    -0.000005    -0.089212    -0.106482
	   90 D(9,2,4,17)     =   -179.979086    -0.000013    -0.239798  -180.218884
	   91 D(9,10,5,18)    =     -0.021678    -0.000016    -0.285690    -0.307368
	   92 D(9,10,6,19)    =      0.073140    -0.000016    -0.283426    -0.210286
	   93 D(10,5,7,12)    =      0.033223    -0.000001    -0.025753     0.007469
	   94 D(10,5,7,20)    =   -179.903478    -0.000009    -0.169936  -180.073415
	   95 D(10,6,8,12)    =     -0.070741    -0.000000    -0.006422    -0.077162
	   96 D(10,6,8,21)    =   -179.916933    -0.000009    -0.166500  -180.083433
	   97 D(10,9,1,14)    =      0.073752    -0.000015    -0.267180    -0.193428
	   98 D(10,9,2,15)    =     -0.046992    -0.000017    -0.305112    -0.352105
	   99 D(11,3,1,14)    =    179.979432     0.000015     0.272148   180.251581
	  100 D(11,4,2,15)    =    179.995641     0.000013     0.232237   180.227878
	  101 D(12,7,5,18)    =   -179.987706     0.000015     0.266977  -179.720729
	  102 D(12,8,6,19)    =    179.916697     0.000015     0.276720   180.193417
	  103 D(13,11,3,16)   =     -0.016400     0.000025     0.444991     0.428591
	  104 D(13,11,4,17)   =     -0.004548    -0.000014    -0.230190    -0.234738
	  105 D(14,1,3,16)    =     -0.039257     0.000015     0.265967     0.226711
	  106 D(15,2,4,17)    =      0.033826     0.000005     0.081651     0.115477
	  107 D(18,5,7,20)    =      0.075593     0.000007     0.122794     0.198387
	  108 D(19,6,8,21)    =      0.070505     0.000006     0.116642     0.187146
	 ---------------------------------------------------------------------------
	Successfully symmetrized geometry.
	 Forces used to impose fixed constraints are not included.
	  Forces zeroed: 73 

  ==> Convergence Check <==

  Measures of convergence in internal coordinates in au.
  Criteria marked as inactive (o), active & met (*), and active & unmet ( ).
  --------------------------------------------------------------------------------------------- ~
   Step     Total Energy     Delta E     MAX Force     RMS Force      MAX Disp      RMS Disp    ~
  --------------------------------------------------------------------------------------------- ~
    Convergence Criteria    1.00e-06 *    3.00e-04 *             o    1.20e-03 *             o  ~
  --------------------------------------------------------------------------------------------- ~
      1    -553.71652817   -5.54e+02      1.89e-02      4.65e-03 o    3.60e-02      9.61e-03 o  ~
  ---------------------------------------------------------------------------------------------

	Writing optimization data to binary file.
	Structure for next step:
	Cartesian Geometry (in Angstrom)
	    C    -1.2659643321   0.7175306790  -0.5666994033
	    C    -0.2856984427   0.0966103508   1.5324596403
	    C    -2.3394765666   1.2902904651   0.1030553101
	    C    -1.3591260252   0.6678853828   2.2039766265
	    C     0.7513161741  -1.0480795218  -1.8325269913
	    C     2.1770252355  -0.5206374771   0.0007938810
	    C     1.8531526668  -1.6053869562  -2.4608406479
	    C     3.2162319770  -1.1005129595  -0.7084106678
	    C    -0.2253219685   0.1141540817   0.1391664418
	    C     0.9071890506  -0.4882938804  -0.5677685083
	    C    -2.3881770076   1.2678412654   1.4903571903
	    N     3.0814335645  -1.6441339967  -1.9261995455
	    O    -3.4519835832   1.8259293563   2.1520643906
	    H    -1.2457551545   0.7496114192  -1.6469996127
	    H     0.5029366586  -0.3685651203   2.1073198283
	    H    -3.1408661961   1.7560598870  -0.4541045628
	    H    -1.3980136831   0.6457906415   3.2844120065
	    H    -0.2097802844  -1.0578797996  -2.3249811820
	    H     2.3624995090  -0.0992929259   0.9774804457
	    H     1.7620582092  -2.0489857348  -3.4439579718
	    H     4.2145207828  -1.1391610590  -0.2927422587
	    H    -3.2702463764   2.7530772782   2.3379257890
			--------------------------
			 OPTKING Finished Execution 
			--------------------------

    Structure for next step:
    Molecular point group: c1
    Full point group: C1

    Geometry (in Angstrom), charge = 0, multiplicity = 1:

    C           -1.265983125441     0.717066287131    -0.566703716893
    C           -0.285717235968     0.096145958908     1.532455326705
    C           -2.339495359924     1.289826073273     0.103050996555
    C           -1.359144818542     0.667420990940     2.203972312955
    C            0.751297380827    -1.048543913636    -1.832531304854
    C            2.177006442204    -0.521101869013     0.000789567399
    C            1.853133873492    -1.605851348078    -2.460844961457
    C            3.216213183714    -1.100977351340    -0.708414981341
    C           -0.225340761830     0.113689689832     0.139162128229
    C            0.907170257272    -0.488758272280    -0.567772821839
    C           -2.388195800924     1.267376873538     1.490352876731
    N            3.081414771241    -1.644598388594    -1.926203859038
    O           -3.452002376512     1.825464964461     2.152060077069
    H           -1.245773947846     0.749147027305    -1.647003926284
    H            0.502917865273    -0.369029512162     2.107315514718
    H           -3.140884989425     1.755595495084    -0.454108876338
    H           -1.398032476399     0.645326249597     3.284407692940
    H           -0.209799077673    -1.058344191422    -2.324985495537
    H            2.362480715705    -0.099757317727     0.977476132106
    H            1.762039415883    -2.049450126691    -3.443962285418
    H            4.214501989510    -1.139625450904    -0.292746572228
    H           -3.270265169661     2.752612886308     2.337921475456

gradient() will perform analytic gradient computation.

*** tstart() called on gpu-1-7.local
*** at Sun Nov 12 14:44:32 2017

    SCF Algorithm Type (re)set to DF.

*** tstart() called on gpu-1-7.local
*** at Sun Nov 12 14:44:32 2017

   => Loading Basis Set <=

    Name: AUG-CC-PVTZ
    Role: ORBITAL
    Keyword: BASIS
    atoms 1-11  entry C          line   221 file /cbio/jclab/home/chayas/anaconda/envs/py35/share/psi4/basis/aug-cc-pvtz.gbs 
    atoms 12    entry N          line   267 file /cbio/jclab/home/chayas/anaconda/envs/py35/share/psi4/basis/aug-cc-pvtz.gbs 
    atoms 13    entry O          line   313 file /cbio/jclab/home/chayas/anaconda/envs/py35/share/psi4/basis/aug-cc-pvtz.gbs 
    atoms 14-22 entry H          line    34 file /cbio/jclab/home/chayas/anaconda/envs/py35/share/psi4/basis/aug-cc-pvtz.gbs 


         ---------------------------------------------------------
                                   SCF
            by Justin Turney, Rob Parrish, and Andy Simmonett
                              RHF Reference
                        8 Threads,   4768 MiB Core
         ---------------------------------------------------------

  ==> Geometry <==

    Molecular point group: c1
    Full point group: C1

    Geometry (in Angstrom), charge = 0, multiplicity = 1:

       Center              X                  Y                   Z               Mass       
    ------------   -----------------  -----------------  -----------------  -----------------
           C         -1.265983125441     0.717066287131    -0.566703716893    12.000000000000
           C         -0.285717235968     0.096145958908     1.532455326705    12.000000000000
           C         -2.339495359924     1.289826073273     0.103050996555    12.000000000000
           C         -1.359144818542     0.667420990940     2.203972312955    12.000000000000
           C          0.751297380827    -1.048543913636    -1.832531304854    12.000000000000
           C          2.177006442204    -0.521101869013     0.000789567399    12.000000000000
           C          1.853133873492    -1.605851348078    -2.460844961457    12.000000000000
           C          3.216213183714    -1.100977351340    -0.708414981341    12.000000000000
           C         -0.225340761830     0.113689689832     0.139162128229    12.000000000000
           C          0.907170257272    -0.488758272280    -0.567772821839    12.000000000000
           C         -2.388195800924     1.267376873538     1.490352876731    12.000000000000
           N          3.081414771241    -1.644598388594    -1.926203859038    14.003074004780
           O         -3.452002376512     1.825464964461     2.152060077069    15.994914619560
           H         -1.245773947846     0.749147027305    -1.647003926284     1.007825032070
           H          0.502917865273    -0.369029512162     2.107315514718     1.007825032070
           H         -3.140884989425     1.755595495084    -0.454108876338     1.007825032070
           H         -1.398032476399     0.645326249597     3.284407692940     1.007825032070
           H         -0.209799077673    -1.058344191422    -2.324985495537     1.007825032070
           H          2.362480715705    -0.099757317727     0.977476132106     1.007825032070
           H          1.762039415883    -2.049450126691    -3.443962285418     1.007825032070
           H          4.214501989510    -1.139625450904    -0.292746572228     1.007825032070
           H         -3.270265169661     2.752612886308     2.337921475456     1.007825032070

  Running in c1 symmetry.

  Rotational constants: A =      0.09845  B =      0.01331  C =      0.01194 [cm^-1]
  Rotational constants: A =   2951.31847  B =    399.14627  C =    357.88047 [MHz]
  Nuclear repulsion =  697.232343472094385

  Charge       = 0
  Multiplicity = 1
  Electrons    = 90
  Nalpha       = 45
  Nbeta        = 45

  ==> Algorithm <==

  SCF Algorithm Type is DF.
  DIIS enabled.
  MOM disabled.
  Fractional occupation disabled.
  Guess Type is READ.
  Energy threshold   = 1.00e-10
  Density threshold  = 1.00e-10
  Integral threshold = 0.00e+00

  ==> Primary Basis <==

  Basis Set: AUG-CC-PVTZ
    Blend: AUG-CC-PVTZ
    Number of shells: 263
    Number of basis function: 805
    Number of Cartesian functions: 940
    Spherical Harmonics?: true
    Max angular momentum: 3

   => Loading Basis Set <=

    Name: (AUG-CC-PVTZ AUX)
    Role: JKFIT
    Keyword: DF_BASIS_SCF
    atoms 1-11  entry C          line   161 file /cbio/jclab/home/chayas/anaconda/envs/py35/share/psi4/basis/aug-cc-pvtz-jkfit.gbs 
    atoms 12    entry N          line   223 file /cbio/jclab/home/chayas/anaconda/envs/py35/share/psi4/basis/aug-cc-pvtz-jkfit.gbs 
    atoms 13    entry O          line   285 file /cbio/jclab/home/chayas/anaconda/envs/py35/share/psi4/basis/aug-cc-pvtz-jkfit.gbs 
    atoms 14-22 entry H          line    69 file /cbio/jclab/home/chayas/anaconda/envs/py35/share/psi4/basis/aug-cc-pvtz-jkfit.gbs 

  Reading orbitals from file 180, no projection.

  ==> Pre-Iterations <==

   -------------------------------------------------------
    Irrep   Nso     Nmo     Nalpha   Nbeta   Ndocc  Nsocc
   -------------------------------------------------------
     A        805     805       0       0       0       0
   -------------------------------------------------------
    Total     805     805      45      45      45       0
   -------------------------------------------------------

  ==> Integral Setup <==

  ==> DFJK: Density-Fitted J/K Matrices <==

    J tasked:                  Yes
    K tasked:                  Yes
    wK tasked:                  No
    OpenMP threads:              8
    Integrals threads:           8
    Memory (MB):              3576
    Algorithm:                Disk
    Integral Cache:           NONE
    Schwarz Cutoff:          1E-12
    Fitting Condition:       1E-12

   => Auxiliary Basis Set <=

  Basis Set: (AUG-CC-PVTZ AUX)
    Blend: AUG-CC-PVTZ-JKFIT
    Number of shells: 516
    Number of basis function: 1766
    Number of Cartesian functions: 2198
    Spherical Harmonics?: true
    Max angular momentum: 4

  Minimum eigenvalue in the overlap matrix is 6.3472836699E-07.
  Using Symmetric Orthogonalization.

  SCF Guess: Orbitals guess was supplied from a previous computation.

  ==> Iterations <==

                           Total Energy        Delta E     RMS |[F,P]|

   @DF-RHF iter   0:  -551.43136855931425   -5.51431e+02   5.30811e-04 
   @DF-RHF iter   1:  -551.28549447268915    1.45874e-01   1.64036e-04 
   @DF-RHF iter   2:  -551.28644272679935   -9.48254e-04   8.43499e-05 DIIS
   @DF-RHF iter   3:  -551.28736469557589   -9.21969e-04   1.70887e-05 DIIS
   @DF-RHF iter   4:  -551.28737905518256   -1.43596e-05   2.93355e-06 DIIS
   @DF-RHF iter   5:  -551.28738134185312   -2.28667e-06   1.38231e-06 DIIS
   @DF-RHF iter   6:  -551.28738167219808   -3.30345e-07   5.96610e-07 DIIS
   @DF-RHF iter   7:  -551.28738179341349   -1.21215e-07   2.18600e-07 DIIS
   @DF-RHF iter   8:  -551.28738182838936   -3.49759e-08   1.59848e-07 DIIS
   @DF-RHF iter   9:  -551.28738183462713   -6.23777e-09   4.59663e-08 DIIS
   @DF-RHF iter  10:  -551.28738183537496   -7.47832e-10   2.03465e-08 DIIS
   @DF-RHF iter  11:  -551.28738183548830   -1.13346e-10   6.52003e-09 DIIS
   @DF-RHF iter  12:  -551.28738183548205    6.25278e-12   2.97956e-09 DIIS
   @DF-RHF iter  13:  -551.28738183549262   -1.05729e-11   1.68460e-09 DIIS
   @DF-RHF iter  14:  -551.28738183550229   -9.66338e-12   7.40166e-10 DIIS
   @DF-RHF iter  15:  -551.28738183550104    1.25056e-12   2.86167e-10 DIIS
   @DF-RHF iter  16:  -551.28738183550672   -5.68434e-12   1.00758e-10 DIIS
   @DF-RHF iter  17:  -551.28738183548899    1.77351e-11   4.18502e-11 DIIS

  ==> Post-Iterations <==

    Orbital Energies (a.u.)
    -----------------------

    Doubly Occupied:                                                      

       1A    -20.587609     2A    -15.562133     3A    -11.305072  
       4A    -11.273375     5A    -11.273304     6A    -11.267129  
       7A    -11.252651     8A    -11.250719     9A    -11.250324  
      10A    -11.242709    11A    -11.242680    12A    -11.237570  
      13A    -11.237467    14A     -1.404179    15A     -1.256356  
      16A     -1.174923    17A     -1.105588    18A     -1.039581  
      19A     -1.029683    20A     -1.012033    21A     -0.879631  
      22A     -0.872899    23A     -0.838363    24A     -0.812510  
      25A     -0.747495    26A     -0.724082    27A     -0.683690  
      28A     -0.664828    29A     -0.647620    30A     -0.644771  
      31A     -0.633749    32A     -0.608221    33A     -0.596911  
      34A     -0.592681    35A     -0.550823    36A     -0.542117  
      37A     -0.531300    38A     -0.515903    39A     -0.507012  
      40A     -0.481503    41A     -0.419264    42A     -0.403376  
      43A     -0.354317    44A     -0.349262    45A     -0.318526  

    Virtual:                                                              

      46A      0.023212    47A      0.028818    48A      0.031862  
      49A      0.038820    50A      0.041448    51A      0.045364  
      52A      0.054090    53A      0.056291    54A      0.059919  
      55A      0.074433    56A      0.078598    57A      0.083752  
      58A      0.088050    59A      0.092268    60A      0.094325  
      61A      0.101925    62A      0.107030    63A      0.108090  
      64A      0.111181    65A      0.113403    66A      0.116920  
      67A      0.118076    68A      0.120890    69A      0.127326  
      70A      0.128837    71A      0.132147    72A      0.132913  
      73A      0.137528    74A      0.141456    75A      0.146425  
      76A      0.148107    77A      0.150395    78A      0.153016  
      79A      0.157764    80A      0.159604    81A      0.168095  
      82A      0.169922    83A      0.176167    84A      0.180963  
      85A      0.184633    86A      0.186370    87A      0.201237  
      88A      0.203826    89A      0.210356    90A      0.216205  
      91A      0.222073    92A      0.225153    93A      0.228678  
      94A      0.233129    95A      0.241264    96A      0.241749  
      97A      0.243869    98A      0.248171    99A      0.253335  
     100A      0.258264   101A      0.260771   102A      0.262622  
     103A      0.265569   104A      0.273192   105A      0.275020  
     106A      0.280097   107A      0.286927   108A      0.290070  
     109A      0.291594   110A      0.296298   111A      0.300811  
     112A      0.301787   113A      0.304378   114A      0.313281  
     115A      0.316466   116A      0.319714   117A      0.326540  
     118A      0.327323   119A      0.328388   120A      0.331893  
     121A      0.338512   122A      0.341120   123A      0.351762  
     124A      0.355213   125A      0.359230   126A      0.360849  
     127A      0.367960   128A      0.371876   129A      0.378412  
     130A      0.382609   131A      0.387031   132A      0.396204  
     133A      0.398317   134A      0.407596   135A      0.417868  
     136A      0.420396   137A      0.425722   138A      0.427077  
     139A      0.429655   140A      0.435755   141A      0.437607  
     142A      0.437930   143A      0.444001   144A      0.447162  
     145A      0.450548   146A      0.458097   147A      0.461868  
     148A      0.463169   149A      0.466296   150A      0.470364  
     151A      0.474253   152A      0.479858   153A      0.483725  
     154A      0.486777   155A      0.491084   156A      0.497789  
     157A      0.499611   158A      0.501069   159A      0.505095  
     160A      0.506662   161A      0.508906   162A      0.513132  
     163A      0.516204   164A      0.518514   165A      0.521096  
     166A      0.525970   167A      0.527406   168A      0.528878  
     169A      0.532684   170A      0.538398   171A      0.541865  
     172A      0.547591   173A      0.550044   174A      0.554142  
     175A      0.559636   176A      0.560961   177A      0.567879  
     178A      0.576153   179A      0.579533   180A      0.588304  
     181A      0.592360   182A      0.605369   183A      0.607481  
     184A      0.610022   185A      0.614511   186A      0.623120  
     187A      0.624529   188A      0.629072   189A      0.635617  
     190A      0.641037   191A      0.650794   192A      0.654268  
     193A      0.665267   194A      0.677955   195A      0.687781  
     196A      0.690618   197A      0.693086   198A      0.697218  
     199A      0.704200   200A      0.705929   201A      0.711401  
     202A      0.719869   203A      0.721952   204A      0.726497  
     205A      0.732954   206A      0.734592   207A      0.739488  
     208A      0.745909   209A      0.757416   210A      0.759833  
     211A      0.765846   212A      0.767035   213A      0.773087  
     214A      0.775567   215A      0.780441   216A      0.794956  
     217A      0.802439   218A      0.806821   219A      0.818974  
     220A      0.823774   221A      0.828162   222A      0.841269  
     223A      0.843015   224A      0.845066   225A      0.851300  
     226A      0.860981   227A      0.861685   228A      0.869833  
     229A      0.874130   230A      0.876621   231A      0.879704  
     232A      0.883931   233A      0.886172   234A      0.894234  
     235A      0.900335   236A      0.903351   237A      0.906738  
     238A      0.912601   239A      0.918171   240A      0.921214  
     241A      0.925069   242A      0.929297   243A      0.940163  
     244A      0.944912   245A      0.948002   246A      0.952096  
     247A      0.959448   248A      0.963294   249A      0.968180  
     250A      0.971756   251A      0.976969   252A      0.979070  
     253A      0.982593   254A      0.986018   255A      0.991235  
     256A      1.000309   257A      1.002685   258A      1.004478  
     259A      1.010209   260A      1.014979   261A      1.018331  
     262A      1.025358   263A      1.027768   264A      1.033616  
     265A      1.035544   266A      1.038393   267A      1.043584  
     268A      1.046690   269A      1.049833   270A      1.056577  
     271A      1.058220   272A      1.063100   273A      1.068948  
     274A      1.083155   275A      1.085891   276A      1.086393  
     277A      1.090701   278A      1.094822   279A      1.097048  
     280A      1.100026   281A      1.102951   282A      1.104917  
     283A      1.110870   284A      1.115214   285A      1.117869  
     286A      1.126260   287A      1.131350   288A      1.137659  
     289A      1.151438   290A      1.158613   291A      1.159253  
     292A      1.164042   293A      1.167709   294A      1.173524  
     295A      1.177764   296A      1.180974   297A      1.181889  
     298A      1.183460   299A      1.191063   300A      1.193152  
     301A      1.200222   302A      1.206804   303A      1.212745  
     304A      1.215310   305A      1.217397   306A      1.220367  
     307A      1.227100   308A      1.241519   309A      1.241903  
     310A      1.245636   311A      1.265272   312A      1.270288  
     313A      1.275048   314A      1.282378   315A      1.288634  
     316A      1.290516   317A      1.291654   318A      1.297654  
     319A      1.300229   320A      1.309287   321A      1.315786  
     322A      1.316889   323A      1.320394   324A      1.332697  
     325A      1.333668   326A      1.337188   327A      1.352361  
     328A      1.364044   329A      1.367710   330A      1.373291  
     331A      1.381722   332A      1.387944   333A      1.402509  
     334A      1.411526   335A      1.412538   336A      1.425461  
     337A      1.434363   338A      1.444179   339A      1.451461  
     340A      1.457615   341A      1.464298   342A      1.477588  
[...]
	 R(9,10)          =         2.762911	       1.462070
	 R(11,13)         =         2.609837	       1.381066
	 R(13,22)         =         1.816256	       0.961121
	 B(1,3,11)        =         2.092771	     119.906945
	 B(1,3,16)        =         2.111575	     120.984323
	 B(1,9,2)         =         2.066962	     118.428217
	 B(1,9,10)        =         2.108260	     120.794402
	 B(2,4,11)        =         2.092839	     119.910856
	 B(2,4,17)        =         2.112191	     121.019622
	 B(2,9,10)        =         2.107955	     120.776917
	 B(3,1,9)         =         2.110281	     120.910185
	 B(3,1,14)        =         2.085660	     119.499524
	 B(3,11,4)        =         2.093184	     119.930604
	 B(3,11,13)       =         2.095579	     120.067805
	 B(4,2,9)         =         2.110209	     120.906046
	 B(4,2,15)        =         2.085860	     119.510961
	 B(4,11,13)       =         2.092646	     119.899797
	 B(5,7,12)        =         2.159207	     123.713476
	 B(5,7,20)        =         2.095324	     120.053198
	 B(5,10,6)        =         2.036721	     116.695522
	 B(5,10,9)        =         2.123665	     121.677058
	 B(6,8,12)        =         2.159064	     123.705279
	 B(6,8,21)        =         2.095398	     120.057458
	 B(6,10,9)        =         2.122799	     121.627419
	 B(7,5,10)        =         2.087891	     119.627317
	 B(7,5,18)        =         2.091608	     119.840337
	 B(7,12,8)        =         2.035404	     116.620051
	 B(8,6,10)        =         2.088083	     119.638330
	 B(8,6,19)        =         2.091932	     119.858878
	 B(9,1,14)        =         2.086955	     119.573692
	 B(9,2,15)        =         2.086634	     119.555331
	 B(10,5,18)       =         2.103349	     120.513000
	 B(10,6,19)       =         2.102856	     120.484790
	 B(11,3,16)       =         2.078833	     119.108373
	 B(11,4,17)       =         2.078057	     119.063909
	 B(11,13,22)      =         1.898989	     108.804072
	 B(12,7,20)       =         2.028630	     116.231962
	 B(12,8,21)       =         2.028700	     116.235951
	 D(1,3,11,4)      =        -0.015862	      -0.908812
	 D(1,3,11,13)     =        -3.093374	    -177.237263
	 D(1,9,2,4)       =        -0.003213	      -0.184109
	 D(1,9,2,15)      =         3.104826	     177.893430
	 D(1,9,10,5)      =        -0.628277	     -35.997625
	 D(1,9,10,6)      =         2.513584	     144.017751
	 D(2,4,11,3)      =         0.017043	       0.976518
	 D(2,4,11,13)     =         3.094664	     177.311183
	 D(2,9,1,3)       =         0.004410	       0.252650
	 D(2,9,1,14)      =         3.120006	     178.763169
	 D(2,9,10,5)      =         2.508924	     143.750774
	 D(2,9,10,6)      =        -0.632400	     -36.233851
	 D(3,1,9,10)      =        -3.141473	    -179.993158
	 D(3,11,4,17)     =        -3.109663	    -178.170555
	 D(3,11,13,22)    =        -1.570587	     -89.988022
	 D(4,2,9,10)      =        -3.140517	    -179.938345
	 D(4,11,3,16)     =         3.129499	     179.307063
	 D(4,11,13,22)    =         1.635066	      93.682390
	 D(5,7,12,8)      =         0.000081	       0.004630
	 D(5,10,6,8)      =         0.000066	       0.003796
	 D(5,10,6,19)     =         3.114685	     178.458312
	 D(6,8,12,7)      =        -0.000787	      -0.045090
	 D(6,10,5,7)      =        -0.000714	      -0.040921
	 D(6,10,5,18)     =         3.112910	     178.356623
	 D(7,5,10,9)      =         3.141134	     179.973733
	 D(7,12,8,21)     =        -3.135093	    -179.627575
	 D(8,6,10,9)      =         3.141403	     179.989149
	 D(8,12,7,20)     =        -3.134077	    -179.569396
	 D(9,1,3,11)      =         0.005090	       0.291610
	 D(9,1,3,16)      =        -3.140343	    -179.928393
	 D(9,2,4,11)      =        -0.007478	      -0.428467
	 D(9,2,4,17)      =         3.118931	     178.701599
	 D(9,10,5,18)     =        -0.028427	      -1.628723
	 D(9,10,6,19)     =        -0.027163	      -1.556334
	 D(10,5,7,12)     =         0.000676	       0.038746
	 D(10,5,7,20)     =         3.134564	     179.597294
	 D(10,6,8,12)     =         0.000723	       0.041402
	 D(10,6,8,21)     =         3.134763	     179.608712
	 D(10,9,1,14)     =        -0.025877	      -1.482639
	 D(10,9,2,15)     =        -0.032477	      -1.860806
	 D(11,3,1,14)     =        -3.110526	    -178.220002
	 D(11,4,2,15)     =        -3.115532	    -178.506850
	 D(12,7,5,18)     =        -3.113139	    -178.369703
	 D(12,8,6,19)     =        -3.114067	    -178.422901
	 D(13,11,3,16)    =         0.051987	       2.978612
	 D(13,11,4,17)    =        -0.032042	      -1.835890
	 D(14,1,3,16)     =         0.027227	       1.559995
	 D(15,2,4,17)     =         0.010877	       0.623215
	 D(18,5,7,20)     =         0.020749	       1.188845
	 D(19,6,8,21)     =         0.019974	       1.144409

	Current energy   :      -553.7202591625

	Energy change for the previous step:
		Projected    :        -0.0000018902
		Actual       :        -0.0000003007

	Performing BFGS update.
	Previous computed or guess Hessian on step 1.
	Steps to be used in Hessian update: 6 5
	Adding user-defined constraint: Fragment 1; Coordinate 73:
		Value =    -1.570587; Fixed value    =    -1.570800
		Force =    -0.000138; Force constant =     0.650000
	Removing off-diagonal coupling between coordinate 73 and others.
	Taking RFO optimization step.
	Going to follow RFO solution 1.
	Using RFO vector 1.
	Norm of target step-size    0.00102
	Projected energy change by RFO approximation:         0.0000000519

	Back-transformation to cartesian coordinates...
	Successfully converged to displaced geometry.

	--- Internal Coordinate Step in ANG or DEG, aJ/ANG or AJ/DEG ---
	 ---------------------------------------------------------------------------
	   Coordinate                Previous        Force       Change         New 
	   ----------                --------       ------       ------       ------
	    1 R(1,3)          =      1.385543     0.000014     0.000004     1.385546
	    2 R(1,9)          =      1.394190     0.000021     0.000002     1.394192
	    3 R(1,14)         =      1.079898     0.000033     0.000006     1.079904
	    4 R(2,4)          =      1.385578     0.000035     0.000006     1.385583
	    5 R(2,9)          =      1.394220    -0.000036    -0.000006     1.394214
	    6 R(2,15)         =      1.079898     0.000019     0.000005     1.079903
	    7 R(3,11)         =      1.386990     0.000004     0.000003     1.386994
	    8 R(3,16)         =      1.079164     0.000019     0.000004     1.079168
	    9 R(4,11)         =      1.386883     0.000004     0.000001     1.386884
	   10 R(4,17)         =      1.079096    -0.000002     0.000001     1.079097
	   11 R(5,7)          =      1.385607     0.000044     0.000006     1.385612
	   12 R(5,10)         =      1.391882    -0.000055    -0.000007     1.391875
	   13 R(5,18)         =      1.079555    -0.000008    -0.000001     1.079555
	   14 R(6,8)          =      1.385550     0.000056     0.000007     1.385557
	   15 R(6,10)         =      1.391888    -0.000074    -0.000011     1.391877
	   16 R(6,19)         =      1.079586    -0.000026    -0.000003     1.079583
	   17 R(7,12)         =      1.335082    -0.000077    -0.000008     1.335073
	   18 R(7,20)         =      1.081102    -0.000038    -0.000006     1.081095
	   19 R(8,12)         =      1.335059    -0.000090    -0.000010     1.335049
	   20 R(8,21)         =      1.081114    -0.000036    -0.000006     1.081108
	   21 R(9,10)         =      1.462070     0.000256     0.000053     1.462123
	   22 R(11,13)        =      1.381066     0.000029     0.000002     1.381069
	   23 R(13,22)        =      0.961121     0.000043     0.000006     0.961128
	   24 B(1,3,11)       =    119.906945    -0.000000     0.000289   119.907233
	   25 B(1,3,16)       =    120.984323     0.000000     0.000428   120.984751
	   26 B(1,9,2)        =    118.428217    -0.000000    -0.001122   118.427096
	   27 B(1,9,10)       =    120.794402    -0.000001    -0.001925   120.792477
	   28 B(2,4,11)       =    119.910856     0.000000     0.000270   119.911126
	   29 B(2,4,17)       =    121.019622    -0.000000    -0.000813   121.018809
	   30 B(2,9,10)       =    120.776917     0.000001     0.003021   120.779938
	   31 B(3,1,9)        =    120.910185     0.000000     0.000644   120.910828
	   32 B(3,1,14)       =    119.499524    -0.000000    -0.001775   119.497749
	   33 B(3,11,4)       =    119.930604    -0.000000    -0.000953   119.929652
	   34 B(3,11,13)      =    120.067805     0.000000     0.000368   120.068173
	   35 B(4,2,9)        =    120.906046     0.000000     0.000779   120.906825
	   36 B(4,2,15)       =    119.510961    -0.000001    -0.002422   119.508539
	   37 B(4,11,13)      =    119.899797     0.000000     0.000061   119.899859
	   38 B(5,7,12)       =    123.713476    -0.000000    -0.000692   123.712784
	   39 B(5,7,20)       =    120.053198     0.000000     0.001505   120.054703
	   40 B(5,10,6)       =    116.695522     0.000001     0.002859   116.698381
	   41 B(5,10,9)       =    121.677058    -0.000001    -0.004217   121.672841
	   42 B(6,8,12)       =    123.705279    -0.000000    -0.001025   123.704254
	   43 B(6,8,21)       =    120.057458     0.000000     0.001797   120.059255
	   44 B(6,10,9)       =    121.627419     0.000001     0.001359   121.628778
	   45 B(7,5,10)       =    119.627317    -0.000000    -0.001834   119.625483
	   46 B(7,5,18)       =    119.840337     0.000001     0.004529   119.844865
	   47 B(7,12,8)       =    116.620051     0.000001     0.002123   116.622174
	   48 B(8,6,10)       =    119.638330    -0.000000    -0.001437   119.636893
	   49 B(8,6,19)       =    119.858878     0.000001     0.003571   119.862449
	   50 B(9,1,14)       =    119.573692     0.000000     0.000813   119.574505
	   51 B(9,2,15)       =    119.555331     0.000000     0.001680   119.557010
	   52 B(10,5,18)      =    120.513000    -0.000000    -0.002401   120.510599
	   53 B(10,6,19)      =    120.484790    -0.000000    -0.001954   120.482836
	   54 B(11,3,16)      =    119.108373    -0.000000    -0.000687   119.107686
	   55 B(11,4,17)      =    119.063909     0.000000     0.000678   119.064587
	   56 B(11,13,22)     =    108.804072    -0.000001    -0.002177   108.801894
	   57 B(12,7,20)      =    116.231962    -0.000000    -0.000816   116.231146
	   58 B(12,8,21)      =    116.235951    -0.000000    -0.000878   116.235073
	   59 D(1,3,11,4)     =     -0.908812    -0.000000     0.002323    -0.906490
	   60 D(1,3,11,13)    =   -177.237263     0.000000     0.011744  -177.225518
	   61 D(1,9,2,4)      =     -0.184109    -0.000000    -0.009662    -0.193772
	   62 D(1,9,2,15)     =    177.893430    -0.000000    -0.008427   177.885003
	   63 D(1,9,10,5)     =    -35.997625     0.000000     0.014512   -35.983113
	   64 D(1,9,10,6)     =    144.017751    -0.000000    -0.000060   144.017690
	   65 D(2,4,11,3)     =      0.976518     0.000000     0.006459     0.982977
	   66 D(2,4,11,13)    =    177.311183    -0.000000    -0.002935   177.308248
	   67 D(2,9,1,3)      =      0.252650     0.000000     0.018557     0.271207
	   68 D(2,9,1,14)     =    178.763169     0.000000     0.004310   178.767479
	   69 D(2,9,10,5)     =    143.750774     0.000000     0.007601   143.758374
	   70 D(2,9,10,6)     =    -36.233851    -0.000000    -0.006971   -36.240822
	   71 D(3,1,9,10)     =   -179.993158     0.000000     0.011816  -179.981343
	   72 D(3,11,4,17)    =   -178.170555     0.000000    -0.003821  -178.174377
	   73 D(3,11,13,22)   =    -89.988022    -0.000000    -0.002768   -89.990790
	   74 D(4,2,9,10)     =   -179.938345    -0.000000    -0.002910  -179.941255
	   75 D(4,11,3,16)    =    179.307063    -0.000000    -0.006607   179.300455
	   76 D(4,11,13,22)   =     93.682390    -0.000000     0.006688    93.689078
	   77 D(5,7,12,8)     =      0.004630    -0.000000    -0.002613     0.002018
	   78 D(5,10,6,8)     =      0.003796    -0.000000    -0.008833    -0.005038
	   79 D(5,10,6,19)    =    178.458312    -0.000000    -0.001057   178.457255
	   80 D(6,8,12,7)     =     -0.045090    -0.000000    -0.005197    -0.050288
	   81 D(6,10,5,7)     =     -0.040921     0.000000     0.001667    -0.039255
	   82 D(6,10,5,18)    =    178.356623     0.000000     0.013945   178.370568
	   83 D(7,5,10,9)     =    179.973733    -0.000000    -0.012222   179.961511
	   84 D(7,12,8,21)    =   -179.627575     0.000000     0.011345  -179.616230
	   85 D(8,6,10,9)     =    179.989149     0.000000     0.005048   179.994197
	   86 D(8,12,7,20)    =   -179.569396    -0.000000    -0.002217  -179.571613
	   87 D(9,1,3,11)     =      0.291610    -0.000000    -0.015059     0.276551
	   88 D(9,1,3,16)     =   -179.928393    -0.000000    -0.005961  -179.934354
	   89 D(9,2,4,11)     =     -0.428467    -0.000000    -0.002696    -0.431163
	   90 D(9,2,4,17)     =    178.701599     0.000000     0.007803   178.709401
	   91 D(9,10,5,18)    =     -1.628723     0.000000     0.000057    -1.628666
	   92 D(9,10,6,19)    =     -1.556334     0.000000     0.012824    -1.543511
	   93 D(10,5,7,12)    =      0.038746     0.000000     0.004299     0.043045
	   94 D(10,5,7,20)    =    179.597294     0.000000     0.003879   179.601173
	   95 D(10,6,8,12)    =      0.041402     0.000000     0.011171     0.052573
	   96 D(10,6,8,21)    =    179.608712    -0.000000    -0.005984   179.602727
	   97 D(10,9,1,14)    =     -1.482639    -0.000000    -0.002431    -1.485070
	   98 D(10,9,2,15)    =     -1.860806    -0.000000    -0.001674    -1.862480
	   99 D(11,3,1,14)    =   -178.220002     0.000000    -0.000861  -178.220863
	  100 D(11,4,2,15)    =   -178.506850    -0.000000    -0.004008  -178.510858
	  101 D(12,7,5,18)    =   -178.369703    -0.000000    -0.007786  -178.377488
	  102 D(12,8,6,19)    =   -178.422901     0.000000     0.003529  -178.419372
	  103 D(13,11,3,16)   =      2.978612     0.000000     0.002814     2.981427
	  104 D(13,11,4,17)   =     -1.835890    -0.000000    -0.013216    -1.849106
	  105 D(14,1,3,16)    =      1.559995     0.000000     0.008237     1.568233
	  106 D(15,2,4,17)    =      0.623215     0.000000     0.006490     0.629705
	  107 D(18,5,7,20)    =      1.188845    -0.000000    -0.008205     1.180640
	  108 D(19,6,8,21)    =      1.144409    -0.000000    -0.013626     1.130783
	 ---------------------------------------------------------------------------
	Successfully symmetrized geometry.
	 Forces used to impose fixed constraints are not included.
	  Forces zeroed: 73 

  ==> Convergence Check <==

  Measures of convergence in internal coordinates in au.
  Criteria marked as inactive (o), active & met (*), and active & unmet ( ).
  ---------------------------------------------------------------------------------------------
   Step     Total Energy     Delta E     MAX Force     RMS Force      MAX Disp      RMS Disp   
  ---------------------------------------------------------------------------------------------
    Convergence Criteria    1.00e-06 *    3.00e-04 *             o    1.20e-03 *             o
  ---------------------------------------------------------------------------------------------
      7    -553.72025916   -3.01e-07 *    3.11e-05 *    5.89e-06 o    3.24e-04 *    9.81e-05 o  ~
  ---------------------------------------------------------------------------------------------


  **** Optimization is complete! (in 7 steps) ****

  ==> Optimization Summary <==

  Measures of convergence in internal coordinates in au.
  --------------------------------------------------------------------------------------------------------------- ~
   Step         Total Energy             Delta E       MAX Force       RMS Force        MAX Disp        RMS Disp  ~
  --------------------------------------------------------------------------------------------------------------- ~
      1    -553.716528166100   -553.716528166100      0.01891829      0.00465276      0.03601926      0.00961451  ~
      2    -553.719472577054     -0.002944410954      0.00572720      0.00141005      0.03165229      0.00960578  ~
      3    -553.720092550987     -0.000619973933      0.00148813      0.00034015      0.03811779      0.00962183  ~
      4    -553.720227081070     -0.000134530083      0.00047047      0.00016818      0.02980086      0.00581221  ~
      5    -553.720254400177     -0.000027319107      0.00037133      0.00008885      0.01149120      0.00232653  ~
      6    -553.720258861871     -0.000004461694      0.00022325      0.00002740      0.00216972      0.00050777  ~
      7    -553.720259162546     -0.000000300675      0.00003108      0.00000620      0.00032388      0.00009814  ~
  --------------------------------------------------------------------------------------------------------------- ~

	Writing optimization data to binary file.
	Final energy is   -553.7202591625456
	Final (previous) structure:
	Cartesian Geometry (in Angstrom)
	    C    -1.2374684658   0.7725684374  -0.5615345988
	    C    -0.3143437707   0.0557695997   1.5294897057
	    C    -2.3075363214   1.3478212800   0.1046240178
	    C    -1.3828765985   0.6280430970   2.2007318011
	    C     0.7459546747  -1.1022284816  -1.8034572967
	    C     2.1896782771  -0.4740477622  -0.0324582590
	    C     1.8446917975  -1.6625717523  -2.4348825881
	    C     3.2287438383  -1.0609371949  -0.7364838116
	    C    -0.2240262600   0.1206855088   0.1397133551
	    C     0.9040806206  -0.4853340668  -0.5658096342
	    C    -2.3758573692   1.2838580975   1.4884532391
	    N     3.0781245235  -1.6520744686  -1.9240243432
	    O    -3.4687672168   1.8057791267   2.1521481491
	    H    -1.1760257302   0.8512719082  -1.6368067076
	    H     0.4426351467  -0.4742186000   2.0883059551
	    H    -3.0932177495   1.8516969356  -0.4370484792
	    H    -1.4653174018   0.5609527563   3.2745802939
	    H    -0.2291877055  -1.1696275432  -2.2617090541
	    H     2.3864121056   0.0097596838   0.9123868696
	    H     1.7285461746  -2.1491457357  -3.3932861683
	    H     4.2310895623  -1.0505038437  -0.3315121972
	    H    -3.2943165750   2.7280680048   2.3587984048
	Saving final (previous) structure.
			--------------------------
			 OPTKING Finished Execution 
			--------------------------

    Final optimized geometry and variables:
    Molecular point group: c1
    Full point group: C1

    Geometry (in Angstrom), charge = 0, multiplicity = 1:

    C           -1.237468465793     0.772568437375    -0.561534598833
    C           -0.314343770749     0.055769599699     1.529489705652
    C           -2.307536321357     1.347821280038     0.104624017807
    C           -1.382876598543     0.628043097026     2.200731801126
    C            0.745954674727    -1.102228481557    -1.803457296707
    C            2.189678277114    -0.474047762170    -0.032458258990
    C            1.844691797547    -1.662571752269    -2.434882588149
    C            3.228743838343    -1.060937194859    -0.736483811580
    C           -0.224026259988     0.120685508811     0.139713355076
    C            0.904080620598    -0.485334066760    -0.565809634177
    C           -2.375857369155     1.283858097497     1.488453239072
    N            3.078124523480    -1.652074468600    -1.924024343204
    O           -3.468767216812     1.805779126740     2.152148149109
    H           -1.176025730152     0.851271908214    -1.636806707573
    H            0.442635146749    -0.474218599981     2.088305955088
    H           -3.093217749480     1.851696935603    -0.437048479171
    H           -1.465317401833     0.560952756251     3.274580293899
    H           -0.229187705454    -1.169627543200    -2.261709054127
    H            2.386412105620     0.009759683759     0.912386869612
    H            1.728546174634    -2.149145735733    -3.393286168285
    H            4.231089562348    -1.050503843729    -0.331512197215
    H           -3.294316574986     2.728068004784     2.358798404778

	Cleaning optimization helper files.

*** Psi4 exiting successfully. Buy a developer a beer!
