
    -----------------------------------------------------------------------
          Psi4: An Open-Source Ab Initio Electronic Structure Package
                               Psi4 1.1 release

                         Git: Rev {HEAD} add49b9 


    R. M. Parrish, L. A. Burns, D. G. A. Smith, A. C. Simmonett,
    A. E. DePrince III, E. G. Hohenstein, U. Bozkaya, A. Yu. Sokolov,
    R. Di Remigio, R. M. Richard, J. F. Gonthier, A. M. James,
    H. R. McAlexander, A. Kumar, M. Saitow, X. Wang, B. P. Pritchard,
    P. Verma, H. F. Schaefer III, K. Patkowski, R. A. King, E. F. Valeev,
    F. A. Evangelista, J. M. Turney, T. D. Crawford, and C. D. Sherrill,
    J. Chem. Theory Comput. in press (2017).
    (doi: 10.1021/acs.jctc.7b00174)

    -----------------------------------------------------------------------


    Psi4 started on: Sunday, 12 November 2017 12:00AM

    Process ID:  14119
    PSIDATADIR: /cbio/jclab/home/chayas/anaconda/envs/py35/share/psi4
    Memory:     500.0 MiB
    Threads:    8
    
  ==> Input File <==

--------------------------------------------------------------------------

memory 5 Gb

molecule phepyrFOH_neutral {
  symmetry C1
  0 1 
  C      1.885   -1.036   -0.112
  C      0.807   -0.463   0.561
  C      3.825   -3.269   -0.988
  C      5.328   -1.753   0.119
  C      1.800   -1.079   2.676
  C      4.927   -3.802   -1.637
  C      6.363   -2.354   -0.579
  C      2.921   -1.631   0.608
  C      4.038   -2.225   -0.095
  C      0.764   -0.484   1.955
  C      2.878   -1.652   2.002
  N      6.195   -3.370   -1.455
  O      -0.289   0.076   2.612
  F      3.866   -2.220   2.709
  H      1.904   -1.012   -1.199
  H      0.002   -0.002   -0.006
  H      2.833   -3.663   -1.183
  H      5.532   -0.940   0.809
  H      1.772   -1.099   3.762
  H      4.814   -4.616   -2.345
  H      7.387   -2.023   -0.446
  H      -0.221   1.044   2.593
  units Angstrom
}

dih_string = "2 10 13 22 285"
set optking fixed_dihedral = $dih_string

optimize('MP2/aug-cc-PVTZ')
--------------------------------------------------------------------------

  Memory set to   4.657 GiB by Python driver.
gradient() will perform analytic gradient computation.

*** tstart() called on gpu-2-10.local
*** at Sun Nov 12 00:00:48 2017

    SCF Algorithm Type (re)set to DF.

*** tstart() called on gpu-2-10.local
*** at Sun Nov 12 00:00:48 2017

   => Loading Basis Set <=

    Name: AUG-CC-PVTZ
    Role: ORBITAL
    Keyword: BASIS
    atoms 1-11  entry C          line   221 file /cbio/jclab/home/chayas/anaconda/envs/py35/share/psi4/basis/aug-cc-pvtz.gbs 
    atoms 12    entry N          line   267 file /cbio/jclab/home/chayas/anaconda/envs/py35/share/psi4/basis/aug-cc-pvtz.gbs 
    atoms 13    entry O          line   313 file /cbio/jclab/home/chayas/anaconda/envs/py35/share/psi4/basis/aug-cc-pvtz.gbs 
    atoms 14    entry F          line   359 file /cbio/jclab/home/chayas/anaconda/envs/py35/share/psi4/basis/aug-cc-pvtz.gbs 
    atoms 15-22 entry H          line    34 file /cbio/jclab/home/chayas/anaconda/envs/py35/share/psi4/basis/aug-cc-pvtz.gbs 


         ---------------------------------------------------------
                                   SCF
            by Justin Turney, Rob Parrish, and Andy Simmonett
                              RHF Reference
                        8 Threads,   4768 MiB Core
         ---------------------------------------------------------

  ==> Geometry <==

    Molecular point group: c1
    Full point group: C1

    Geometry (in Angstrom), charge = 0, multiplicity = 1:

       Center              X                  Y                   Z               Mass       
    ------------   -----------------  -----------------  -----------------  -----------------
           C         -1.321498215158     0.749339756941    -0.794281492648    12.000000000000
           C         -2.399498215158     1.322339756941    -0.121281492648    12.000000000000
           C          0.618501784842    -1.483660243059    -1.670281492648    12.000000000000
           C          2.121501784842     0.032339756941    -0.563281492648    12.000000000000
           C         -1.406498215158     0.706339756941     1.993718507352    12.000000000000
           C          1.720501784842    -2.016660243059    -2.319281492648    12.000000000000
           C          3.156501784842    -0.568660243059    -1.261281492648    12.000000000000
           C         -0.285498215158     0.154339756941    -0.074281492648    12.000000000000
           C          0.831501784842    -0.439660243059    -0.777281492648    12.000000000000
           C         -2.442498215158     1.301339756941     1.272718507352    12.000000000000
           C         -0.328498215158     0.133339756941     1.319718507352    12.000000000000
           N          2.988501784842    -1.584660243059    -2.137281492648    14.003074004780
           O         -3.495498215158     1.861339756941     1.929718507352    15.994914619560
           F          0.659501784842    -0.434660243059     2.026718507352    18.998403224000
           H         -1.302498215158     0.773339756941    -1.881281492648     1.007825032070
           H         -3.204498215158     1.783339756941    -0.688281492648     1.007825032070
           H         -0.373498215158    -1.877660243059    -1.865281492648     1.007825032070
           H          2.325501784842     0.845339756941     0.126718507352     1.007825032070
           H         -1.434498215158     0.686339756941     3.079718507352     1.007825032070
           H          1.607501784842    -2.830660243059    -3.027281492648     1.007825032070
           H          4.180501784842    -0.237660243059    -1.128281492648     1.007825032070
           H         -3.427498215158     2.829339756941     1.910718507352     1.007825032070

  Running in c1 symmetry.

  Rotational constants: A =      0.06311  B =      0.01307  C =      0.01165 [cm^-1]
  Rotational constants: A =   1891.92175  B =    391.72909  C =    349.33461 [MHz]
  Nuclear repulsion =  813.826112842389648

  Charge       = 0
  Multiplicity = 1
  Electrons    = 98
  Nalpha       = 49
  Nbeta        = 49

  ==> Algorithm <==

  SCF Algorithm Type is DF.
  DIIS enabled.
  MOM disabled.
  Fractional occupation disabled.
  Guess Type is SAD.
  Energy threshold   = 1.00e-10
  Density threshold  = 1.00e-10
  Integral threshold = 0.00e+00

  ==> Primary Basis <==

  Basis Set: AUG-CC-PVTZ
    Blend: AUG-CC-PVTZ
    Number of shells: 268
    Number of basis function: 828
    Number of Cartesian functions: 970
    Spherical Harmonics?: true
    Max angular momentum: 3

   => Loading Basis Set <=

    Name: (AUG-CC-PVTZ AUX)
    Role: JKFIT
    Keyword: DF_BASIS_SCF
    atoms 1-11  entry C          line   161 file /cbio/jclab/home/chayas/anaconda/envs/py35/share/psi4/basis/aug-cc-pvtz-jkfit.gbs 
    atoms 12    entry N          line   223 file /cbio/jclab/home/chayas/anaconda/envs/py35/share/psi4/basis/aug-cc-pvtz-jkfit.gbs 
    atoms 13    entry O          line   285 file /cbio/jclab/home/chayas/anaconda/envs/py35/share/psi4/basis/aug-cc-pvtz-jkfit.gbs 
    atoms 14    entry F          line   347 file /cbio/jclab/home/chayas/anaconda/envs/py35/share/psi4/basis/aug-cc-pvtz-jkfit.gbs 
    atoms 15-22 entry H          line    69 file /cbio/jclab/home/chayas/anaconda/envs/py35/share/psi4/basis/aug-cc-pvtz-jkfit.gbs 

  ==> Pre-Iterations <==

   -------------------------------------------------------
    Irrep   Nso     Nmo     Nalpha   Nbeta   Ndocc  Nsocc
   -------------------------------------------------------
     A        828     828       0       0       0       0
   -------------------------------------------------------
    Total     828     828      49      49      49       0
   -------------------------------------------------------

  ==> Integral Setup <==

  ==> DFJK: Density-Fitted J/K Matrices <==

    J tasked:                  Yes
    K tasked:                  Yes
    wK tasked:                  No
    OpenMP threads:              8
    Integrals threads:           8
    Memory (MB):              3576
    Algorithm:                Disk
    Integral Cache:           NONE
    Schwarz Cutoff:          1E-12
    Fitting Condition:       1E-12

   => Auxiliary Basis Set <=

  Basis Set: (AUG-CC-PVTZ AUX)
    Blend: AUG-CC-PVTZ-JKFIT
    Number of shells: 532
    Number of basis function: 1824
    Number of Cartesian functions: 2274
    Spherical Harmonics?: true
    Max angular momentum: 4

  Minimum eigenvalue in the overlap matrix is 7.7578339757E-07.
  Using Symmetric Orthogonalization.

  SCF Guess: Superposition of Atomic Densities via on-the-fly atomic UHF.

  ==> Iterations <==

                           Total Energy        Delta E     RMS |[F,P]|

   @DF-RHF iter   0:  -656.20061591052558   -6.56201e+02   2.23067e-02 
   @DF-RHF iter   1:  -649.77070889596996    6.42991e+00   2.33728e-03 
   @DF-RHF iter   2:  -650.09373783823207   -3.23029e-01   5.56754e-04 DIIS
   @DF-RHF iter   3:  -650.15243058587930   -5.86927e-02   2.88749e-04 DIIS
   @DF-RHF iter   4:  -650.16802785312950   -1.55973e-02   8.03039e-05 DIIS
   @DF-RHF iter   5:  -650.16954918052681   -1.52133e-03   4.81703e-05 DIIS
   @DF-RHF iter   6:  -650.16984187580010   -2.92695e-04   2.26160e-05 DIIS
   @DF-RHF iter   7:  -650.16988900237436   -4.71266e-05   5.49677e-06 DIIS
   @DF-RHF iter   8:  -650.16989238688211   -3.38451e-06   1.10156e-06 DIIS
   @DF-RHF iter   9:  -650.16989275464016   -3.67758e-07   5.88192e-07 DIIS
   @DF-RHF iter  10:  -650.16989282335692   -6.87168e-08   2.76849e-07 DIIS
   @DF-RHF iter  11:  -650.16989284512499   -2.17681e-08   1.33115e-07 DIIS
   @DF-RHF iter  12:  -650.16989285082536   -5.70037e-09   5.86014e-08 DIIS
   @DF-RHF iter  13:  -650.16989285164868   -8.23320e-10   1.84236e-08 DIIS
   @DF-RHF iter  14:  -650.16989285177044   -1.21759e-10   5.96437e-09 DIIS
   @DF-RHF iter  15:  -650.16989285178488   -1.44382e-11   3.02940e-09 DIIS
   @DF-RHF iter  16:  -650.16989285178033    4.54747e-12   1.13804e-09 DIIS
   @DF-RHF iter  17:  -650.16989285176544    1.48930e-11   4.78077e-10 DIIS
   @DF-RHF iter  18:  -650.16989285177237   -6.93490e-12   3.35877e-10 DIIS
   @DF-RHF iter  19:  -650.16989285176294    9.43601e-12   1.22579e-10 DIIS
   @DF-RHF iter  20:  -650.16989285177510   -1.21645e-11   4.45845e-11 DIIS

  ==> Post-Iterations <==

    Orbital Energies (a.u.)
    -----------------------

    Doubly Occupied:                                                      

       1A    -26.325344     2A    -20.596682     3A    -15.566670  
       4A    -11.346263     5A    -11.318877     6A    -11.276073  
       7A    -11.275383     8A    -11.266836     9A    -11.263467  
      10A    -11.257574    11A    -11.252691    12A    -11.248065  
      13A    -11.241112    14A    -11.239977    15A     -1.643658  
      16A     -1.414616    17A     -1.251753    18A     -1.181803  
      19A     -1.110505    20A     -1.040511    21A     -1.035373  
      22A     -1.018693    23A     -0.889500    24A     -0.874294  
      25A     -0.852944    26A     -0.826294    27A     -0.774654  
      28A     -0.732783    29A     -0.726589    30A     -0.710008  
      31A     -0.700612    32A     -0.665384    33A     -0.662315  
      34A     -0.649234    35A     -0.631856    36A     -0.627973  
      37A     -0.603668    38A     -0.599999    39A     -0.562028  
      40A     -0.538332    41A     -0.535171    42A     -0.525414  
      43A     -0.505215    44A     -0.498140    45A     -0.420685  
      46A     -0.390632    47A     -0.357857    48A     -0.350172  
      49A     -0.333444  

    Virtual:                                                              

      50A      0.021206    51A      0.029724    52A      0.033160  
      53A      0.036904    54A      0.042356    55A      0.046033  
      56A      0.050469    57A      0.057371    58A      0.073875  
      59A      0.082001    60A      0.083852    61A      0.084953  
      62A      0.088018    63A      0.094292    64A      0.096379  
      65A      0.101100    66A      0.106497    67A      0.107889  
      68A      0.108989    69A      0.112515    70A      0.117164  
      71A      0.117638    72A      0.119027    73A      0.125363  
      74A      0.126806    75A      0.132341    76A      0.132854  
      77A      0.134237    78A      0.138848    79A      0.144711  
      80A      0.145767    81A      0.148729    82A      0.151894  
      83A      0.154505    84A      0.155842    85A      0.166230  
      86A      0.172821    87A      0.173907    88A      0.178436  
      89A      0.185514    90A      0.195412    91A      0.199345  
      92A      0.207654    93A      0.212175    94A      0.215877  
      95A      0.223710    96A      0.232723    97A      0.234708  
      98A      0.238253    99A      0.240125   100A      0.240549  
     101A      0.244759   102A      0.249898   103A      0.253718  
     104A      0.256793   105A      0.260910   106A      0.262635  
     107A      0.265413   108A      0.268988   109A      0.274824  
     110A      0.277001   111A      0.282229   112A      0.284588  
     113A      0.290861   114A      0.297455   115A      0.301483  
     116A      0.305002   117A      0.309220   118A      0.314079  
     119A      0.316632   120A      0.319635   121A      0.321879  
     122A      0.323502   123A      0.330053   124A      0.331927  
     125A      0.334670   126A      0.339945   127A      0.346393  
     128A      0.348194   129A      0.352002   130A      0.356821  
     131A      0.366547   132A      0.370158   133A      0.376438  
     134A      0.382201   135A      0.383220   136A      0.389871  
     137A      0.395939   138A      0.404588   139A      0.405820  
     140A      0.414440   141A      0.415765   142A      0.421320  
     143A      0.423443   144A      0.427379   145A      0.429929  
     146A      0.438142   147A      0.440372   148A      0.444218  
     149A      0.447772   150A      0.454198   151A      0.456477  
     152A      0.463820   153A      0.469262   154A      0.473599  
     155A      0.475638   156A      0.477022   157A      0.480395  
     158A      0.482514   159A      0.487436   160A      0.489446  
     161A      0.495565   162A      0.496496   163A      0.498234  
     164A      0.505703   165A      0.508798   166A      0.511831  
     167A      0.514350   168A      0.515558   169A      0.518664  
     170A      0.519644   171A      0.527228   172A      0.531423  
     173A      0.536058   174A      0.539854   175A      0.543152  
     176A      0.547200   177A      0.549189   178A      0.556489  
     179A      0.560765   180A      0.564567   181A      0.570915  
     182A      0.578519   183A      0.580900   184A      0.585292  
     185A      0.591165   186A      0.598309   187A      0.603613  
     188A      0.613965   189A      0.620945   190A      0.623739  
     191A      0.626779   192A      0.628276   193A      0.639281  
     194A      0.641103   195A      0.647717   196A      0.652696  
     197A      0.655784   198A      0.670507   199A      0.672633  
     200A      0.675595   201A      0.683439   202A      0.693648  
     203A      0.699578   204A      0.704173   205A      0.706752  
     206A      0.713602   207A      0.717228   208A      0.724778  
     209A      0.725267   210A      0.733775   211A      0.734385  
     212A      0.741211   213A      0.744487   214A      0.748803  
     215A      0.760508   216A      0.767113   217A      0.770466  
     218A      0.777928   219A      0.790544   220A      0.793139  
     221A      0.799250   222A      0.804180   223A      0.808191  
     224A      0.820206   225A      0.827107   226A      0.828626  
     227A      0.834000   228A      0.836928   229A      0.849369  
     230A      0.851430   231A      0.852512   232A      0.862446  
     233A      0.866186   234A      0.871500   235A      0.876984  
     236A      0.880672   237A      0.884814   238A      0.888581  
     239A      0.895573   240A      0.900279   241A      0.908428  
     242A      0.910714   243A      0.917113   244A      0.925566  
     245A      0.929034   246A      0.932376   247A      0.938464  
     248A      0.943791   249A      0.944263   250A      0.949758  
     251A      0.954804   252A      0.956455   253A      0.962693  
     254A      0.963854   255A      0.964552   256A      0.973795  
     257A      0.980677   258A      0.984863   259A      0.987785  
     260A      0.992814   261A      1.000138   262A      1.000715  
     263A      1.011270   264A      1.013892   265A      1.018988  
     266A      1.020976   267A      1.025777   268A      1.029872  
     269A      1.034705   270A      1.036564   271A      1.043652  
     272A      1.047524   273A      1.051941   274A      1.056440  
     275A      1.068693   276A      1.070210   277A      1.072008  
     278A      1.079945   279A      1.082725   280A      1.085332  
     281A      1.087677   282A      1.090557   283A      1.098695  
     284A      1.101717   285A      1.105076   286A      1.108411  
     287A      1.117176   288A      1.124677   289A      1.128839  
     290A      1.131350   291A      1.136115   292A      1.140132  
     293A      1.143663   294A      1.154351   295A      1.157727  
     296A      1.159297   297A      1.169735   298A      1.173886  
     299A      1.178591   300A      1.180682   301A      1.184015  
     302A      1.190349   303A      1.195961   304A      1.199353  
     305A      1.207361   306A      1.210467   307A      1.211707  
     308A      1.216879   309A      1.226065   310A      1.230422  
     311A      1.236636   312A      1.241416   313A      1.251073  
     314A      1.255613   315A      1.265310   316A      1.270169  
     317A      1.272426   318A      1.277353   319A      1.282189  
     320A      1.291479   321A      1.298957   322A      1.304264  
     323A      1.310495   324A      1.317352   325A      1.323682  
     326A      1.324900   327A      1.332063   328A      1.336660  
     329A      1.348214   330A      1.356350   331A      1.357152  
     332A      1.366932   333A      1.376604   334A      1.382190  
     335A      1.386409   336A      1.390784   337A      1.402468  
     338A      1.405374   339A      1.419839   340A      1.428018  
     341A      1.435595   342A      1.440303   343A      1.449107  
     344A      1.455203   345A      1.461494   346A      1.468632  
     347A      1.481477   348A      1.492854   349A      1.493411  
     350A      1.503482   351A      1.507802   352A      1.517467  
     353A      1.534463   354A      1.538794   355A      1.548198  
     356A      1.557245   357A      1.562458   358A      1.569717  
     359A      1.572801   360A      1.577604   361A      1.585148  
     362A      1.590517   363A      1.602178   364A      1.615591  
     365A      1.618757   366A      1.626862   367A      1.635991  
     368A      1.639710   369A      1.652867   370A      1.654379  
     371A      1.661311   372A      1.669821   373A      1.674772  
     374A      1.680637   375A      1.688675   376A      1.696024  
     377A      1.700442   378A      1.707944   379A      1.719141  
     380A      1.725322   381A      1.732303   382A      1.742576  
     383A      1.748227   384A      1.756204   385A      1.759205  
     386A      1.768718   387A      1.777157   388A      1.782761  
     389A      1.788542   390A      1.801988   391A      1.804464  
     392A      1.811799   393A      1.815259   394A      1.822390  
     395A      1.834758   396A      1.854549   397A      1.862041  
     398A      1.868160   399A      1.872178   400A      1.887613  
     401A      1.892556   402A      1.893006   403A      1.898920  
     404A      1.911230   405A      1.920040   406A      1.928325  
     407A      1.936239   408A      1.940085   409A      1.941704  
     410A      1.947638   411A      1.958856   412A      1.970034  
     413A      1.973279   414A      1.989884   415A      1.996782  
     416A      2.003007   417A      2.009679   418A      2.016341  
     419A      2.023877   420A      2.036029   421A      2.037761  
     422A      2.041419   423A      2.052238   424A      2.062868  
     425A      2.072795   426A      2.075769   427A      2.084634  
     428A      2.089190   429A      2.090488   430A      2.103907  
     431A      2.112955   432A      2.122546   433A      2.124752  
     434A      2.129424   435A      2.137246   436A      2.148991  
     437A      2.157061   438A      2.161167   439A      2.171408  
     440A      2.180790   441A      2.193744   442A      2.196410  
     443A      2.214603   444A      2.218282   445A      2.224304  
     446A      2.235217   447A      2.240000   448A      2.254392  
     449A      2.260726   450A      2.266041   451A      2.276954  
     452A      2.283873   453A      2.290449   454A      2.302820  
     455A      2.308366   456A      2.320256   457A      2.332165  
     458A      2.339607   459A      2.353891   460A      2.356526  
     461A      2.370228   462A      2.379724   463A      2.394584  
     464A      2.404656   465A      2.418496   466A      2.428395  
     467A      2.448359   468A      2.454773   469A      2.463788  
     470A      2.468150   471A      2.479869   472A      2.493533  
     473A      2.525215   474A      2.541823   475A      2.546759  
     476A      2.551567   477A      2.564194   478A      2.576185  
     479A      2.582530   480A      2.587748   481A      2.594714  
     482A      2.602046   483A      2.626842   484A      2.652291  
     485A      2.658669   486A      2.671937   487A      2.690011  
     488A      2.697887   489A      2.712229   490A      2.734283  
     491A      2.745779   492A      2.760470   493A      2.764204  
     494A      2.775191   495A      2.787237   496A      2.803506  
     497A      2.832253   498A      2.833848   499A      2.853215  
     500A      2.862019   501A      2.886065   502A      2.893468  
     503A      2.947970   504A      2.953881   505A      2.979924  
     506A      2.985132   507A      2.999041   508A      3.020321  
     509A      3.051446   510A      3.062481   511A      3.079839  
     512A      3.099840   513A      3.100985   514A      3.113030  
     515A      3.135282   516A      3.147123   517A      3.166753  
     518A      3.175172   519A      3.183598   520A      3.186947  
     521A      3.200367   522A      3.209649   523A      3.213416  
     524A      3.237451   525A      3.260781   526A      3.272258  
     527A      3.282165   528A      3.288652   529A      3.294192  
     530A      3.310793   531A      3.330848   532A      3.344266  
     533A      3.353976   534A      3.364560   535A      3.373947  
     536A      3.394088   537A      3.400859   538A      3.420161  
     539A      3.424415   540A      3.429349   541A      3.433053  
     542A      3.441873   543A      3.447693   544A      3.447865  
     545A      3.452560   546A      3.480294   547A      3.483312  
     548A      3.491878   549A      3.504502   550A      3.521554  
     551A      3.523206   552A      3.533449   553A      3.542882  
     554A      3.545934   555A      3.561022   556A      3.562917  
     557A      3.566664   558A      3.580182   559A      3.584285  
     560A      3.594554   561A      3.597680   562A      3.609629  
     563A      3.621223   564A      3.625669   565A      3.638237  
     566A      3.638784   567A      3.648300   568A      3.653955  
     569A      3.661487   570A      3.678424   571A      3.688971  
     572A      3.699347   573A      3.704118   574A      3.714338  
     575A      3.724784   576A      3.740696   577A      3.741847  
     578A      3.753598   579A      3.765157   580A      3.772123  
     581A      3.784114   582A      3.790424   583A      3.798181  
     584A      3.811586   585A      3.820793   586A      3.827026  
     587A      3.835267   588A      3.848495   589A      3.855690  
     590A      3.864508   591A      3.866576   592A      3.879396  
     593A      3.891400   594A      3.898572   595A      3.904324  
     596A      3.917494   597A      3.922157   598A      3.927141  
     599A      3.935304   600A      3.944514   601A      3.952010  
     602A      3.953727   603A      3.962202   604A      3.970044  
     605A      3.979782   606A      3.988658   607A      4.000987  
     608A      4.006722   609A      4.019151   610A      4.021273  
     611A      4.036233   612A      4.040710   613A      4.048522  
     614A      4.065188   615A      4.073257   616A      4.083202  
     617A      4.091611   618A      4.097483   619A      4.106106  
     620A      4.110408   621A      4.127757   622A      4.133618  
     623A      4.141492   624A      4.144922   625A      4.156292  
     626A      4.168510   627A      4.180051   628A      4.195738  
     629A      4.207029   630A      4.208428   631A      4.213495  
     632A      4.224061   633A      4.228477   634A      4.235547  
     635A      4.258223   636A      4.268192   637A      4.282368  
     638A      4.288798   639A      4.296842   640A      4.302904  
     641A      4.306974   642A      4.313719   643A      4.327520  
     644A      4.341879   645A      4.349944   646A      4.357601  
     647A      4.364332   648A      4.372770   649A      4.382852  
     650A      4.398889   651A      4.405986   652A      4.408442  
     653A      4.424362   654A      4.431450   655A      4.444681  
     656A      4.452257   657A      4.457659   658A      4.464263  
     659A      4.476497   660A      4.482584   661A      4.497475  
     662A      4.509108   663A      4.527373   664A      4.534353  
     665A      4.551843   666A      4.568754   667A      4.580548  
     668A      4.582471   669A      4.601895   670A      4.605906  
     671A      4.614533   672A      4.620102   673A      4.639863  
     674A      4.643616   675A      4.654222   676A      4.687691  
     677A      4.705687   678A      4.707121   679A      4.726111  
     680A      4.731693   681A      4.748065   682A      4.753999  
     683A      4.762639   684A      4.774519   685A      4.786108  
     686A      4.808210   687A      4.814834   688A      4.855204  
     689A      4.863762   690A      4.875963   691A      4.890518  
     692A      4.908940   693A      4.932254   694A      4.945476  
     695A      4.953381   696A      4.966814   697A      4.974297  
     698A      4.980724   699A      4.986142   700A      5.012479  
     701A      5.018183   702A      5.027402   703A      5.034716  
     704A      5.047902   705A      5.053733   706A      5.060623  
     707A      5.068241   708A      5.094811   709A      5.100180  
     710A      5.110522   711A      5.133506   712A      5.143567  
     713A      5.151278   714A      5.168987   715A      5.175803  
     716A      5.178496   717A      5.184843   718A      5.186765  
     719A      5.192193   720A      5.206055   721A      5.222849  
     722A      5.235232   723A      5.280680   724A      5.290867  
     725A      5.299778   726A      5.316198   727A      5.332026  
     728A      5.345080   729A      5.369873   730A      5.376816  
     731A      5.382105   732A      5.410182   733A      5.444558  
     734A      5.455445   735A      5.463817   736A      5.473019  
     737A      5.493235   738A      5.506749   739A      5.542207  
     740A      5.555215   741A      5.584361   742A      5.604945  
     743A      5.621974   744A      5.642260   745A      5.667118  
     746A      5.705639   747A      5.735489   748A      5.748186  
     749A      5.750904   750A      5.769143   751A      5.798283  
     752A      5.802253   753A      5.831293   754A      5.848637  
     755A      5.872039   756A      5.881735   757A      5.908401  
     758A      5.953197   759A      6.008470   760A      6.022952  
     761A      6.080086   762A      6.113491   763A      6.165362  
     764A      6.184815   765A      6.215186   766A      6.253494  
     767A      6.269165   768A      6.289926   769A      6.301434  
     770A      6.341790   771A      6.360546   772A      6.447795  
     773A      6.485267   774A      6.510602   775A      6.552734  
     776A      6.571642   777A      6.677576   778A      6.697674  
     779A      6.706629   780A      6.728085   781A      6.741950  
     782A      6.800810   783A      6.868147   784A      6.872793  
     785A      6.905970   786A      6.927725   787A      6.958233  
     788A      7.051419   789A      7.071613   790A      7.126331  
     791A      7.281609   792A      7.339502   793A      7.399863  
     794A      7.414318   795A      7.439027   796A      7.532769  
     797A      7.562435   798A      7.661730   799A      7.857810  
     800A      7.951047   801A      8.160636   802A      8.598038  
     803A      9.004832   804A      9.046980   805A      9.269072  
     806A      9.289842   807A      9.406902   808A      9.517599  
     809A      9.540526   810A      9.586602   811A      9.639495  
     812A      9.717114   813A     10.028782   814A     10.076048  
     815A     15.525334   816A     16.120378   817A     16.561138  
     818A     16.604678   819A     16.712649   820A     17.086980  
     821A     18.459832   822A     18.705000   823A     19.167130  
     824A     19.897706   825A     20.149715   826A     20.307330  
     827A     20.565597   828A     21.776519  

    Final Occupation by Irrep:
              A 
    DOCC [    49 ]

  Energy converged.

  @DF-RHF Final Energy:  -650.16989285177510

   => Energetics <=

    Nuclear Repulsion Energy =            813.8261128423896480
    One-Electron Energy =               -2502.5577657138242103
    Two-Electron Energy =                1038.5617600196594594
    DFT Exchange-Correlation Energy =       0.0000000000000000
    Empirical Dispersion Energy =           0.0000000000000000
    PCM Polarization Energy =               0.0000000000000000
    EFP Energy =                            0.0000000000000000
    Total Energy =                       -650.1698928517751028



Properties will be evaluated at   0.000000,   0.000000,   0.000000 Bohr

Properties computed using the SCF density matrix

  Nuclear Dipole Moment: (a.u.)
     X:    -2.1747      Y:     2.2720      Z:    -5.1525

  Electronic Dipole Moment: (a.u.)
     X:     1.2680      Y:    -1.1209      Z:     5.1594

  Dipole Moment: (a.u.)
     X:    -0.9067      Y:     1.1511      Z:     0.0069     Total:     1.4653

  Dipole Moment: (Debye)
     X:    -2.3046      Y:     2.9257      Z:     0.0175     Total:     3.7244


*** tstop() called on gpu-2-10.local at Sun Nov 12 00:09:30 2017
Module time:
	user time   =    1190.48 seconds =      19.84 minutes
	system time =      58.06 seconds =       0.97 minutes
	total time  =        522 seconds =       8.70 minutes
Total time:
	user time   =    1190.48 seconds =      19.84 minutes
	system time =      58.06 seconds =       0.97 minutes
	total time  =        522 seconds =       8.70 minutes

  //>>>>>>>>>>>>>>>>>>>>>>>>>>>>>>>>>>>//
  //               DFMP2               //
  //<<<<<<<<<<<<<<<<<<<<<<<<<<<<<<<<<<<//

   => Loading Basis Set <=

    Name: (AUG-CC-PVTZ AUX)
    Role: RIFIT
    Keyword: DF_BASIS_MP2
    atoms 1-11  entry C          line   147 file /cbio/jclab/home/chayas/anaconda/envs/py35/share/psi4/basis/aug-cc-pvtz-ri.gbs 
    atoms 12    entry N          line   205 file /cbio/jclab/home/chayas/anaconda/envs/py35/share/psi4/basis/aug-cc-pvtz-ri.gbs 
    atoms 13    entry O          line   263 file /cbio/jclab/home/chayas/anaconda/envs/py35/share/psi4/basis/aug-cc-pvtz-ri.gbs 
    atoms 14    entry F          line   321 file /cbio/jclab/home/chayas/anaconda/envs/py35/share/psi4/basis/aug-cc-pvtz-ri.gbs 
    atoms 15-22 entry H          line    29 file /cbio/jclab/home/chayas/anaconda/envs/py35/share/psi4/basis/aug-cc-pvtz-ri.gbs 

	 --------------------------------------------------------
	                          DF-MP2                         
	      2nd-Order Density-Fitted Moller-Plesset Theory     
	              RMP2 Wavefunction,   8 Threads             
	                                                         
	        Rob Parrish, Justin Turney, Andy Simmonett,      
	           Ed Hohenstein, and C. David Sherrill          
	 --------------------------------------------------------

   => Auxiliary Basis Set <=

  Basis Set: (AUG-CC-PVTZ AUX)
    Blend: AUG-CC-PVTZ-RI
    Number of shells: 504
    Number of basis function: 1852
    Number of Cartesian functions: 2344
    Spherical Harmonics?: true
    Max angular momentum: 4

	 --------------------------------------------------------
	                 NBF =   828, NAUX =  1852
	 --------------------------------------------------------
	   CLASS    FOCC     OCC    AOCC    AVIR     VIR    FVIR
	   PAIRS       0      49      49     779     779       0
	 --------------------------------------------------------


         ------------------------------------------------------------
                                     CPHF                           
                                  Rob Parrish                       
         ------------------------------------------------------------

  ==> Geometry <==

    Molecular point group: c1
    Full point group: C1

    Geometry (in Angstrom), charge = 0, multiplicity = 1:

       Center              X                  Y                   Z               Mass       
    ------------   -----------------  -----------------  -----------------  -----------------
           C         -1.321498215158     0.749339756941    -0.794281492648    12.000000000000
           C         -2.399498215158     1.322339756941    -0.121281492648    12.000000000000
           C          0.618501784842    -1.483660243059    -1.670281492648    12.000000000000
           C          2.121501784842     0.032339756941    -0.563281492648    12.000000000000
           C         -1.406498215158     0.706339756941     1.993718507352    12.000000000000
           C          1.720501784842    -2.016660243059    -2.319281492648    12.000000000000
           C          3.156501784842    -0.568660243059    -1.261281492648    12.000000000000
           C         -0.285498215158     0.154339756941    -0.074281492648    12.000000000000
           C          0.831501784842    -0.439660243059    -0.777281492648    12.000000000000
           C         -2.442498215158     1.301339756941     1.272718507352    12.000000000000
           C         -0.328498215158     0.133339756941     1.319718507352    12.000000000000
           N          2.988501784842    -1.584660243059    -2.137281492648    14.003074004780
           O         -3.495498215158     1.861339756941     1.929718507352    15.994914619560
           F          0.659501784842    -0.434660243059     2.026718507352    18.998403224000
           H         -1.302498215158     0.773339756941    -1.881281492648     1.007825032070
           H         -3.204498215158     1.783339756941    -0.688281492648     1.007825032070
           H         -0.373498215158    -1.877660243059    -1.865281492648     1.007825032070
           H          2.325501784842     0.845339756941     0.126718507352     1.007825032070
           H         -1.434498215158     0.686339756941     3.079718507352     1.007825032070
           H          1.607501784842    -2.830660243059    -3.027281492648     1.007825032070
           H          4.180501784842    -0.237660243059    -1.128281492648     1.007825032070
           H         -3.427498215158     2.829339756941     1.910718507352     1.007825032070

  Nuclear repulsion =  813.826112842389648
  Reference energy  = -650.169892851775103

  ==> Basis Set <==

  Basis Set: AUG-CC-PVTZ
    Blend: AUG-CC-PVTZ
    Number of shells: 268
    Number of basis function: 828
    Number of Cartesian functions: 970
    Spherical Harmonics?: true
    Max angular momentum: 3

  ==> CGRSolver (by Rob Parrish) <==

   Number of roots    =         1
   Preconditioning    =    JACOBI
   Convergence cutoff =     1E-06
   Maximum iterations =       100

  ==> CPHFRHamiltonian (by Rob Parrish) <== 

  ==> DFJK: Density-Fitted J/K Matrices <==

    J tasked:                  Yes
    K tasked:                  Yes
    wK tasked:                  No
    OpenMP threads:              8
    Integrals threads:           8
    Memory (MB):              3576
    Algorithm:                Disk
    Integral Cache:           NONE
    Schwarz Cutoff:          1E-12
    Fitting Condition:       1E-12

   => Auxiliary Basis Set <=

  Basis Set: (AUG-CC-PVTZ AUX)
    Blend: AUG-CC-PVTZ-JKFIT
    Number of shells: 532
    Number of basis function: 1824
    Number of Cartesian functions: 2274
    Spherical Harmonics?: true
    Max angular momentum: 4

  ==> CPHF Iterations <==

  => Iterations <=

             Iter  Converged  Remaining    Residual
  CGR           1          0          1   9.782E-02
  CGR           2          0          1   3.120E-02
  CGR           3          0          1   2.050E-02
  CGR           4          0          1   9.431E-03
  CGR           5          0          1   3.850E-03
  CGR           6          0          1   1.370E-03
  CGR           7          0          1   3.933E-04
  CGR           8          0          1   1.243E-04
  CGR           9          0          1   4.457E-05
  CGR          10          0          1   1.394E-05
  CGR          11          0          1   6.656E-06
  CGR          12          0          1   2.835E-06
  CGR          13          0          1   1.377E-06
  CGR          14          1          0   5.140E-07

    CGRSolver converged.

  ==> DFCorrGrad: Density-Fitted Correlated Gradients <==

    OpenMP threads:              8
    Integrals threads:           8
    Memory (MB):              3576
    Schwarz Cutoff:          0E+00
    Fitting Condition:       1E-12

   => Auxiliary Basis Set <=

  Basis Set: (AUG-CC-PVTZ AUX)
    Blend: AUG-CC-PVTZ-JKFIT
    Number of shells: 532
    Number of basis function: 1824
    Number of Cartesian functions: 2274
    Spherical Harmonics?: true
    Max angular momentum: 4

	-----------------------------------------------------------
	 ==================> DF-MP2 Energies <==================== 
	-----------------------------------------------------------
	 Reference Energy          =    -650.1698928517751028 [Eh]
	 Singles Energy            =      -0.0000000000000001 [Eh]
	 Same-Spin Energy          =      -0.6770712411331914 [Eh]
	 Opposite-Spin Energy      =      -2.0187640957650963 [Eh]
	 Correlation Energy        =      -2.6958353368982877 [Eh]
	 Total Energy              =    -652.8657281886734154 [Eh]
	-----------------------------------------------------------
	 ================> DF-SCS-MP2 Energies <================== 
	-----------------------------------------------------------
	 SCS Same-Spin Scale       =       0.3333333333333333 [-]
	 SCS Opposite-Spin Scale   =       1.2000000000000000 [-]
	 SCS Same-Spin Energy      =      -0.2256904137110638 [Eh]
	 SCS Opposite-Spin Energy  =      -2.4225169149181154 [Eh]
	 SCS Correlation Energy    =      -2.6482073286291792 [Eh]
	 SCS Total Energy          =    -652.8181001804042580 [Eh]
	-----------------------------------------------------------


  -Total Gradient:
     Atom            X                  Y                   Z
    ------   -----------------  -----------------  -----------------
       1        0.009902201126    -0.002589161948    -0.011079105602
       2       -0.001915398149     0.002030922594     0.004120719557
       3       -0.007051052973    -0.001041837419     0.002932011058
       4       -0.003699716797     0.005755045258     0.003592481042
       5       -0.003738423699     0.003876243844    -0.003504406315
       6       -0.014054533104    -0.000975722773     0.002584557190
       7       -0.003116673667     0.009501732016     0.008794724196
       8       -0.000655811372     0.000271856586    -0.002581484747
       9       -0.001779347476     0.001229749103    -0.000551729985
      10       -0.016090785003     0.000122659306     0.012259395266
      11        0.022005373842    -0.013561244523     0.005401221868
      12        0.013559667468    -0.006782303455    -0.008481420325
      13        0.008125052907    -0.009597155003    -0.010597169496
      14        0.001690739563    -0.000572357912     0.002719124633
      15       -0.003325973502     0.001594236949    -0.006007356450
      16       -0.003000971880     0.001828354067    -0.005162437356
      17       -0.003124035780    -0.002566217092    -0.002743889726
      18        0.002865792728     0.003676939874     0.002765409517
      19        0.000657133525    -0.000604197144     0.005522340722
      20        0.000403179252    -0.001793648678    -0.002014902381
      21        0.002507301657     0.000173414942     0.000070045061
      22       -0.000163718672     0.010022691398     0.001961872274


*** tstop() called on gpu-2-10.local at Sun Nov 12 00:47:11 2017
Module time:
	user time   =    5905.27 seconds =      98.42 minutes
	system time =     121.72 seconds =       2.03 minutes
	total time  =       2783 seconds =      46.38 minutes
Total time:
	user time   =    5905.27 seconds =      98.42 minutes
	system time =     121.72 seconds =       2.03 minutes
	total time  =       2783 seconds =      46.38 minutes

			-----------------------------------------
			 OPTKING 2.0: for geometry optimizations 
			  - R.A. King,  Bethel University        
			-----------------------------------------

	Internal coordinates to be generated automatically.
	Detected frag 1 with atoms:  1 2 3 4 5 6 7 8 9 10 11 12 13 14 15 16 17 18 19 20
	 21 22
	---Fragment 1 Bond Connectivity---
	 1 : 2 8 15
	 2 : 1 10 16
	 3 : 6 9 17
	 4 : 7 9 18
	 5 : 10 11 19
	 6 : 3 12 20
	 7 : 4 12 21
	 8 : 1 9 11
	 9 : 3 4 8
	 10 : 2 5 13
	 11 : 5 8 14
	 12 : 6 7
	 13 : 10 22
	 14 : 11
	 15 : 1
	 16 : 2
	 17 : 3
	 18 : 4
	 19 : 5
	 20 : 6
	 21 : 7
	 22 : 13

	Assuming in current code that numbering for constraints corresponds to unified fragment.
	Fixed dihedral atom list: 
	     2    10    13    22
	---Fragment 1 Geometry and Gradient---
	 C          -2.4972697117        1.4160469211       -1.5009744935
	 C          -4.5343944830        2.4988599952       -0.2291888061
	 C           1.1687989861       -2.8037115336       -3.1563745859
	 C           4.0090573638        0.0611132838       -1.0644477568
	 C          -2.6578964330        1.3347886974        3.7675819650
	 C           3.2512771845       -3.8109355625       -4.3828068462
	 C           5.9649239113       -1.0746121220       -2.3834765976
	 C          -0.5395134381        0.2916598720       -0.1403716778
	 C           1.5713106524       -0.8308374509       -1.4688491493
	 C          -4.6156527067        2.4591757465        2.4050894232
	 C          -0.6207716618        0.2519756232        2.4939065514
	 N           5.6474499210       -2.9945738731       -4.0388766900
	 O          -6.6055343246        3.5174223809        3.6466394925
	 F           1.2462777575       -0.8213888202        3.8299429273
	 H          -2.4613649152        1.4614003483       -3.5551068000
	 H          -6.0556240200        3.3700237425       -1.3006635234
	 H          -0.7058093378       -3.5482636300       -3.5248711818
	 H           4.3945614949        1.5974606299        0.2394632749
	 H          -2.7108087648        1.2969941747        5.8198245453
	 H           3.0377381315       -5.3491726346       -5.7207329483
	 H           7.9000034714       -0.4491127721       -2.1321430219
	 H          -6.4770329476        5.3466772775        3.6107346959
	             0.0099022011       -0.0025891619       -0.0110791056
	            -0.0019153981        0.0020309226        0.0041207196
	            -0.0070510530       -0.0010418374        0.0029320111
	            -0.0036997168        0.0057550453        0.0035924810
	            -0.0037384237        0.0038762438       -0.0035044063
	            -0.0140545331       -0.0009757228        0.0025845572
	            -0.0031166737        0.0095017320        0.0087947242
	            -0.0006558114        0.0002718566       -0.0025814847
	            -0.0017793475        0.0012297491       -0.0005517300
	            -0.0160907850        0.0001226593        0.0122593953
	             0.0220053738       -0.0135612445        0.0054012219
	             0.0135596675       -0.0067823035       -0.0084814203
	             0.0081250529       -0.0095971550       -0.0105971695
	             0.0016907396       -0.0005723579        0.0027191246
	            -0.0033259735        0.0015942369       -0.0060073565
	            -0.0030009719        0.0018283541       -0.0051624374
	            -0.0031240358       -0.0025662171       -0.0027438897
	             0.0028657927        0.0036769399        0.0027654095
	             0.0006571335       -0.0006041971        0.0055223407
	             0.0004031793       -0.0017936487       -0.0020149024
	             0.0025073017        0.0001734149        0.0000700451
	            -0.0001637187        0.0100226914        0.0019618723

	Previous optimization step data not found.  Starting new optimization.

	---Fragment 1 Intrafragment Coordinates---
	 - Coordinate -           - BOHR/RAD -       - ANG/DEG -
	 R(1,2)           =         2.634350	       1.394038
	 R(1,8)           =         2.635962	       1.394891
	 R(1,15)          =         2.054947	       1.087431
	 R(2,10)          =         2.635830	       1.394821
	 R(2,16)          =         2.054537	       1.087214
	 R(3,6)           =         2.618273	       1.385530
	 R(3,9)           =         2.627164	       1.390235
	 R(3,17)          =         2.050440	       1.085046
	 R(4,7)           =         2.618229	       1.385507
	 R(4,9)           =         2.627114	       1.390209
	 R(4,18)          =         2.051624	       1.085673
	 R(5,10)          =         2.636938	       1.395407
	 R(5,11)          =         2.635263	       1.394521
	 R(5,19)          =         2.053272	       1.086545
	 R(6,12)          =         2.554678	       1.351877
	 R(6,20)          =         2.049834	       1.084725
	 R(7,12)          =         2.554876	       1.351982
	 R(7,21)          =         2.049134	       1.084355
	 R(8,9)           =         2.735038	       1.447320
	 R(8,11)          =         2.635830	       1.394821
	 R(10,13)         =         2.573123	       1.361638
	 R(11,14)         =         2.534359	       1.341125
	 R(13,22)         =         1.834114	       0.970571
	 B(1,2,10)        =         2.094553	     120.009056
	 B(1,2,16)        =         2.088723	     119.675016
	 B(1,8,9)         =         2.091569	     119.838095
	 B(1,8,11)        =         2.093692	     119.959722
	 B(2,1,8)         =         2.094940	     120.031219
	 B(2,1,15)        =         2.079469	     119.144799
	 B(2,10,5)        =         2.094306	     119.994870
	 B(2,10,13)       =         2.094247	     119.991510
	 B(3,6,12)        =         2.165211	     124.057445
	 B(3,6,20)        =         2.107791	     120.767548
	 B(3,9,4)         =         2.089790	     119.736135
	 B(3,9,8)         =         2.096656	     120.129524
	 B(4,7,12)        =         2.164668	     124.026364
	 B(4,7,21)        =         2.107421	     120.746344
	 B(4,9,8)         =         2.096739	     120.134309
	 B(5,10,13)       =         2.094633	     120.013619
	 B(5,11,8)        =         2.095181	     120.045019
	 B(5,11,14)       =         2.081414	     119.256220
	 B(6,3,9)         =         2.057714	     117.898335
	 B(6,3,17)        =         2.098197	     120.217854
	 B(6,12,7)        =         2.030771	     116.354583
	 B(7,4,9)         =         2.058217	     117.927126
	 B(7,4,18)        =         2.099769	     120.307895
	 B(8,1,15)        =         2.108776	     120.823969
	 B(8,11,14)       =         2.106591	     120.698759
	 B(9,3,17)        =         2.127271	     121.883627
	 B(9,4,18)        =         2.125200	     121.764971
	 B(9,8,11)        =         2.097924	     120.202184
	 B(10,2,16)       =         2.099909	     120.315896
	 B(10,5,11)       =         2.093699	     119.960108
	 B(10,5,19)       =         2.100355	     120.341451
	 B(10,13,22)      =         1.924690	     110.276625
	 B(11,5,19)       =         2.089132	     119.698439
	 B(12,6,20)       =         2.010181	     115.174900
	 B(12,7,21)       =         2.011095	     115.227270
	 D(1,2,10,5)      =        -0.000325	      -0.018609
	 D(1,2,10,13)     =         3.141388	     179.988267
	 D(1,8,9,3)       =        -1.047732	     -60.030615
	 D(1,8,9,4)       =         2.092736	     119.904915
	 D(1,8,11,5)      =         0.000325	       0.018608
	 D(1,8,11,14)     =        -3.141528	    -179.996269
	 D(2,1,8,9)       =         3.141277	     179.981897
	 D(2,1,8,11)      =        -0.000348	      -0.019945
	 D(2,10,5,11)     =         0.000301	       0.017261
	 D(2,10,5,19)     =        -3.141029	    -179.967685
	 D(2,10,13,22)    =        -1.309379	     -75.021863
	 D(3,6,12,7)      =         0.000000	       0.000000
	 D(3,9,4,7)       =        -0.000043	      -0.002444
	 D(3,9,4,18)      =        -3.141070	    -179.970061
	 D(3,9,8,11)      =         2.093893	     119.971231
	 D(4,7,12,6)      =        -0.000490	      -0.028079
	 D(4,9,3,6)       =        -0.000394	      -0.022595
	 D(4,9,3,17)      =        -3.139269	    -179.866889
	 D(4,9,8,11)      =        -1.048825	     -60.093239
	 D(5,10,2,16)     =         3.140149	     179.917291
	 D(5,10,13,22)    =         1.832334	     104.985014
	 D(5,11,8,9)      =        -3.141300	    -179.983240
	 D(6,3,9,8)       =         3.140078	     179.913192
	 D(6,12,7,21)     =         3.140154	     179.917593
	 D(7,4,9,8)       =        -3.140515	    -179.938228
	 D(7,12,6,20)     =         3.139530	     179.881843
	 D(8,1,2,10)      =         0.000348	       0.019955
	 D(8,1,2,16)      =        -3.140133	    -179.916358
	 D(8,9,3,17)      =         0.001202	       0.068898
	 D(8,9,4,18)      =         0.001643	       0.094154
	 D(8,11,5,10)     =        -0.000301	      -0.017270
	 D(8,11,5,19)     =         3.141030	     179.967774
	 D(9,3,6,12)      =         0.000430	       0.024638
	 D(9,3,6,20)      =        -3.138988	    -179.850775
	 D(9,4,7,12)      =         0.000513	       0.029399
	 D(9,4,7,21)      =        -3.140081	    -179.913416
	 D(9,8,1,15)      =         0.000403	       0.023110
	 D(9,8,11,14)     =         0.000033	       0.001883
	 D(10,2,1,15)     =         3.141234	     179.979432
	 D(10,5,11,14)    =         3.141547	     179.997392
	 D(11,5,10,13)    =        -3.141411	    -179.989616
	 D(11,8,1,15)     =        -3.141221	    -179.978731
	 D(12,6,3,17)     =         3.139352	     179.871634
	 D(12,7,4,18)     =         3.141549	     179.997508
	 D(13,10,2,16)    =        -0.001324	      -0.075833
	 D(13,10,5,19)    =         0.000444	       0.025437
	 D(14,11,5,19)    =        -0.000307	      -0.017564
	 D(15,1,2,16)     =         0.000753	       0.043120
	 D(17,3,6,20)     =        -0.000066	      -0.003779
	 D(18,4,7,21)     =         0.000955	       0.054693
	 R(4,14)          =         5.689185	       3.010587

	Current energy   :      -652.8657281887

	Generating empirical Hessian (Schlegel '84) for each fragment.
	Adding user-defined constraint: Fragment 1; Coordinate 69:
		Value =    -1.309379; Fixed value    =    -1.308997
		Force =     0.000191; Force constant =     0.500000
	Removing off-diagonal coupling between coordinate 69 and others.
	Taking RFO optimization step.
	Going to follow RFO solution 1.
	Using RFO vector 1.

	Determining step-restricting scale parameter for RS-RFO.
	Maximum step size allowed    0.10000

	 Iter      |step|        alpha        rfo_root  
	------------------------------------------------
	    0     0.25727       1.00000           1
	    1     0.18159       3.82629           1
	    2     0.14013       9.99962           1
	    3     0.11528      20.94888           1
	    4     0.10316      31.17187           1
	    5     0.10018      34.48659           1
	    6     0.10000      34.69216           1
	------------------------------------------------
	Norm of target step-size    0.10000
	Projected energy change by RFO approximation:        -0.0048687047

	Back-transformation to cartesian coordinates...
	Could not converge backtransformation.
	Using first guess instead.

	--- Internal Coordinate Step in ANG or DEG, aJ/ANG or AJ/DEG ---
	 ---------------------------------------------------------------------------
	   Coordinate                Previous        Force       Change         New 
	   ----------                --------       ------       ------       ------
	    1 R(1,2)          =      1.394038    -0.047642    -0.004808     1.389230
	    2 R(1,8)          =      1.394891    -0.033120    -0.003177     1.391714
	    3 R(1,15)         =      1.087431    -0.049284    -0.006181     1.081250
	    4 R(2,10)         =      1.394821    -0.051286    -0.005270     1.389551
	    5 R(2,16)         =      1.087214    -0.046874    -0.005837     1.081377
	    6 R(3,6)          =      1.385530     0.005858     0.000589     1.386119
	    7 R(3,9)          =      1.390235    -0.018395    -0.001415     1.388820
	    8 R(3,17)         =      1.085046    -0.035272    -0.004406     1.080640
	    9 R(4,7)          =      1.385507     0.001730     0.000162     1.385669
	   10 R(4,9)          =      1.390209    -0.018119    -0.001292     1.388917
	   11 R(4,18)         =      1.085673    -0.041600    -0.005215     1.080457
	   12 R(5,10)         =      1.395407    -0.080124    -0.008356     1.387052
	   13 R(5,11)         =      1.394521    -0.099368    -0.010223     1.384298
	   14 R(5,19)         =      1.086545    -0.045427    -0.005698     1.080847
	   15 R(6,12)         =      1.351877    -0.121096    -0.011288     1.340589
	   16 R(6,20)         =      1.084725    -0.021579    -0.002700     1.082025
	   17 R(7,12)         =      1.351982    -0.117190    -0.010968     1.341014
	   18 R(7,21)         =      1.084355    -0.020013    -0.002482     1.081873
	   19 R(8,9)          =      1.447320     0.131575     0.015765     1.463085
	   20 R(8,11)         =      1.394821    -0.067680    -0.006532     1.388290
	   21 R(10,13)        =      1.361638     0.083610     0.008004     1.369642
	   22 R(11,14)        =      1.341125    -0.025457    -0.002190     1.338935
	   23 R(13,22)        =      0.970571    -0.081947    -0.007594     0.962978
	   24 B(1,2,10)       =    120.009056    -0.000069    -0.112436   119.896621
	   25 B(1,2,16)       =    119.675016     0.000236     0.533200   120.208216
	   26 B(1,8,9)        =    119.838095     0.000603     1.043364   120.881459
	   27 B(1,8,11)       =    119.959722    -0.000880    -1.644619   118.315103
	   28 B(2,1,8)        =    120.031219     0.000358     0.760656   120.791875
	   29 B(2,1,15)       =    119.144799     0.000111     0.307119   119.451918
	   30 B(2,10,5)       =    119.994870    -0.000034    -0.071303   119.923567
	   31 B(2,10,13)      =    119.991510     0.000382     0.698099   120.689609
	   32 B(3,6,12)       =    124.057445    -0.000033    -0.126706   123.930740
	   33 B(3,6,20)       =    120.767548    -0.000039    -0.069225   120.698323
	   34 B(3,9,4)        =    119.736135    -0.000816    -1.419732   118.316404
	   35 B(3,9,8)        =    120.129524     0.000405     0.665998   120.795522
	   36 B(4,7,12)       =    124.026364    -0.000013    -0.089420   123.936944
	   37 B(4,7,21)       =    120.746344    -0.000041    -0.067192   120.679152
	   38 B(4,9,8)        =    120.134309     0.000411     0.753687   120.887996
	   39 B(5,10,13)      =    120.013619    -0.000347    -0.629747   119.383872
	   40 B(5,11,8)       =    120.045019     0.000853     1.544223   121.589242
	   41 B(5,11,14)      =    119.256220    -0.000201    -0.410509   118.845711
	   42 B(6,3,9)        =    117.898335     0.000359     0.772058   118.670393
	   43 B(6,3,17)       =    120.217854    -0.000004     0.028712   120.246566
	   44 B(6,12,7)       =    116.354583     0.000156     0.117930   116.472513
	   45 B(7,4,9)        =    117.927126     0.000346     0.745832   118.672959
	   46 B(7,4,18)       =    120.307895    -0.000019    -0.009471   120.298424
	   47 B(8,1,15)       =    120.823969    -0.000469    -1.067783   119.756186
	   48 B(8,11,14)      =    120.698759    -0.000652    -1.133744   119.565015
	   49 B(9,3,17)       =    121.883627    -0.000354    -0.800645   121.082982
	   50 B(9,4,18)       =    121.764971    -0.000327    -0.736358   121.028613
	   51 B(9,8,11)       =    120.202184     0.000278     0.601233   120.803417
	   52 B(10,2,16)      =    120.315896    -0.000167    -0.420798   119.895098
	   53 B(10,5,11)      =    119.960108    -0.000227    -0.476739   119.483369
	   54 B(10,5,19)      =    120.341451     0.000040     0.062808   120.404259
	   55 B(10,13,22)     =    110.276625    -0.000260    -0.617991   109.658634
	   56 B(11,5,19)      =    119.698439     0.000187     0.413858   120.112297
	   57 B(12,6,20)      =    115.174900     0.000072     0.196036   115.370936
	   58 B(12,7,21)      =    115.227270     0.000054     0.156634   115.383904
	   59 D(1,2,10,5)     =     -0.018609    -0.000008    -0.165799    -0.184408
	   60 D(1,2,10,13)    =    179.988267     0.000024     0.456104   180.444371
	   61 D(1,8,9,3)      =    -60.030615     0.000033     0.622872   -59.407743
	   62 D(1,8,9,4)      =    119.904915     0.000033     0.583797   120.488712
	   63 D(1,8,11,5)     =      0.018608    -0.000002    -0.043664    -0.025056
	   64 D(1,8,11,14)    =   -179.996269    -0.000003    -0.094310  -180.090579
	   65 D(2,1,8,9)      =    179.981897    -0.000003    -0.049614   179.932283
	   66 D(2,1,8,11)     =     -0.019945    -0.000000     0.005243    -0.014702
	   67 D(2,10,5,11)    =      0.017261     0.000006     0.127628     0.144889
	   68 D(2,10,5,19)    =   -179.967685     0.000011     0.212370  -179.755315
	   69 D(2,10,13,22)   =    -75.021863     0.000004     0.021527   -75.000336
	   70 D(3,6,12,7)     =      0.000000    -0.000001    -0.016603    -0.016603
	   71 D(3,9,4,7)      =     -0.002444     0.000004     0.052034     0.049590
	   72 D(3,9,4,18)     =   -179.970061     0.000001    -0.004778  -179.974839
	   73 D(3,9,8,11)     =    119.971231     0.000031     0.566688   120.537919
	   74 D(4,7,12,6)     =     -0.028079     0.000000     0.008349    -0.019730
	   75 D(4,9,3,6)      =     -0.022595    -0.000004    -0.059838    -0.082434
	   76 D(4,9,3,17)     =   -179.866889    -0.000008    -0.126734  -179.993623
	   77 D(4,9,8,11)     =    -60.093239     0.000030     0.527614   -59.565626
	   78 D(5,10,2,16)    =    179.917291    -0.000010    -0.194034   179.723258
	   79 D(5,10,13,22)   =    104.985014     0.000036     0.640066   105.625080
	   80 D(5,11,8,9)     =   -179.983240     0.000000     0.011157  -179.972084
	   81 D(6,3,9,8)      =    179.913192    -0.000005    -0.096563   179.816629
	   82 D(6,12,7,21)    =    179.917593     0.000002     0.049736   179.967329
	   83 D(7,4,9,8)      =   -179.938228     0.000004     0.088853  -179.849375
	   84 D(7,12,6,20)    =    179.881843     0.000005     0.089418   179.971261
	   85 D(8,1,2,10)     =      0.019955     0.000006     0.099366     0.119320
	   86 D(8,1,2,16)     =   -179.916358     0.000007     0.128305  -179.788053
	   87 D(8,9,3,17)     =      0.068898    -0.000008    -0.163459    -0.094561
	   88 D(8,9,4,18)     =      0.094154     0.000001     0.032041     0.126195
	   89 D(8,11,5,10)    =     -0.017270    -0.000001    -0.022828    -0.040098
	   90 D(8,11,5,19)    =    179.967774    -0.000005    -0.107371   179.860403
	   91 D(9,3,6,12)     =      0.024638     0.000003     0.043930     0.068568
	   92 D(9,3,6,20)     =   -179.850775    -0.000003    -0.067906  -179.918680
	   93 D(9,4,7,12)     =      0.029399    -0.000002    -0.026915     0.002484
	   94 D(9,4,7,21)     =   -179.913416    -0.000004    -0.070505  -179.983921
	   95 D(9,8,1,15)     =      0.023110    -0.000002    -0.037599    -0.014489
	   96 D(9,8,11,14)    =      0.001883    -0.000001    -0.039489    -0.037607
	   97 D(10,2,1,15)    =    179.979432     0.000005     0.086820   180.066252
	   98 D(10,5,11,14)   =    179.997392     0.000001     0.027574   180.024967
	   99 D(11,5,10,13)   =   -179.989616    -0.000026    -0.486042  -180.475658
	  100 D(11,8,1,15)    =   -179.978731     0.000001     0.017258  -179.961474
	  101 D(12,6,3,17)    =    179.871634     0.000006     0.108890   179.980523
	  102 D(12,7,4,18)    =    179.997508     0.000001     0.029221   180.026730
	  103 D(13,10,2,16)   =     -0.075833     0.000022     0.427870     0.352037
	  104 D(13,10,5,19)   =      0.025437    -0.000021    -0.401300    -0.375862
	  105 D(14,11,5,19)   =     -0.017564    -0.000004    -0.056969    -0.074533
	  106 D(15,1,2,16)    =      0.043120     0.000006     0.115759     0.158879
	  107 D(17,3,6,20)    =     -0.003779    -0.000000    -0.002946    -0.006725
	  108 D(18,4,7,21)    =      0.054693    -0.000001    -0.014369     0.040324
	  109 R(4,14)         =      3.010587     0.008596     0.002682     3.013269
	 ---------------------------------------------------------------------------
	Successfully symmetrized geometry.
	 Forces used to impose fixed constraints are not included.
	  Forces zeroed: 69 

  ==> Convergence Check <==

  Measures of convergence in internal coordinates in au.
  Criteria marked as inactive (o), active & met (*), and active & unmet ( ).
  --------------------------------------------------------------------------------------------- ~
   Step     Total Energy     Delta E     MAX Force     RMS Force      MAX Disp      RMS Disp    ~
  --------------------------------------------------------------------------------------------- ~
    Convergence Criteria    1.00e-06 *    3.00e-04 *             o    1.20e-03 *             o  ~
  --------------------------------------------------------------------------------------------- ~
      1    -652.86572819   -6.53e+02      1.60e-02      4.60e-03 o    2.98e-02      9.59e-03 o  ~
  ---------------------------------------------------------------------------------------------

	Writing optimization data to binary file.
	Structure for next step:
	Cartesian Geometry (in Angstrom)
	    C    -1.3390108109   0.7549262132  -0.7816953517
	    C    -2.4131095410   1.3264420432  -0.1111418324
	    C     0.6420293568  -1.4832489052  -1.6809477841
	    C     2.1326177484   0.0128487711  -0.5729258940
	    C    -1.4159374445   0.7227400144   1.9909717721
	    C     1.7448673430  -2.0200635953  -2.3266299481
	    C     3.1695910337  -0.5900850191  -1.2666383644
	    C    -0.2942791316   0.1620291174  -0.0789311692
	    C     0.8371503996  -0.4417430493  -0.7831641186
	    C    -2.4497388756   1.3114836911   1.2778458905
	    C    -0.3530763331   0.1567923782   1.3081028048
	    N     3.0024187883  -1.5955953916  -2.1380291501
	    O    -3.5050985493   1.8621420452   1.9552761292
	    F     0.6376907178  -0.4085178827   2.0092108942
	    H    -1.3173433137   0.7715541060  -1.8626004765
	    H    -3.2215096963   1.7815960592  -0.6667504439
	    H    -0.3468500333  -1.8716950884  -1.8784549956
	    H     2.3345888726   0.8202798518   0.1160231181
	    H    -1.4384121629   0.7032341351   3.0714094769
	    H     1.6304586170  -2.8313156005  -3.0334253995
	    H     4.1910696612  -0.2619402181  -1.1275296871
	    H    -3.4400773798   2.8226109769   1.9308316910
			--------------------------
			 OPTKING Finished Execution 
			--------------------------

    Structure for next step:
    Molecular point group: c1
    Full point group: C1

    Geometry (in Angstrom), charge = 0, multiplicity = 1:

    C           -1.336932264484     0.751883271456    -0.780256373139
    C           -2.411030994586     1.323399101484    -0.109702853804
    C            0.644107903263    -1.486291846915    -1.679508805488
    C            2.134696294795     0.009805829374    -0.571486915374
    C           -1.413858898046     0.719697072659     1.992410750738
    C            1.746945889462    -2.023106537016    -2.325190969475
    C            3.171669580128    -0.593127960815    -1.265199385804
    C           -0.292200585127     0.158986175617    -0.077492190639
    C            0.839228946038    -0.444785991088    -0.781725140027
    C           -2.447660329168     1.308440749306     1.279284869075
    C           -0.350997786638     0.153749436466     1.309541783413
    N            3.004497334713    -1.598638333396    -2.136590171534
    O           -3.503020002866     1.859099103438     1.956715107832
    F            0.639769264202    -0.411560824436     2.010649872826
    H           -1.315264767252     0.768511164280    -1.861161497867
    H           -3.219431149905     1.778553117448    -0.665311465272
    H           -0.344771486858    -1.874738030132    -1.877016016974
    H            2.336667419010     0.817236910010     0.117462096748
    H           -1.436333616440     0.700191193314     3.072848455516
    H            1.632537163450    -2.834358542249    -3.031986420937
    H            4.193148207676    -0.264983159824    -1.126090708485
    H           -3.437998833330     2.819568035137     1.932270669646

gradient() will perform analytic gradient computation.

*** tstart() called on gpu-2-10.local
*** at Sun Nov 12 00:47:12 2017

    SCF Algorithm Type (re)set to DF.

*** tstart() called on gpu-2-10.local
*** at Sun Nov 12 00:47:12 2017

   => Loading Basis Set <=

    Name: AUG-CC-PVTZ
    Role: ORBITAL
    Keyword: BASIS
    atoms 1-11  entry C          line   221 file /cbio/jclab/home/chayas/anaconda/envs/py35/share/psi4/basis/aug-cc-pvtz.gbs 
    atoms 12    entry N          line   267 file /cbio/jclab/home/chayas/anaconda/envs/py35/share/psi4/basis/aug-cc-pvtz.gbs 
    atoms 13    entry O          line   313 file /cbio/jclab/home/chayas/anaconda/envs/py35/share/psi4/basis/aug-cc-pvtz.gbs 
    atoms 14    entry F          line   359 file /cbio/jclab/home/chayas/anaconda/envs/py35/share/psi4/basis/aug-cc-pvtz.gbs 
    atoms 15-22 entry H          line    34 file /cbio/jclab/home/chayas/anaconda/envs/py35/share/psi4/basis/aug-cc-pvtz.gbs 


         ---------------------------------------------------------
                                   SCF
            by Justin Turney, Rob Parrish, and Andy Simmonett
                              RHF Reference
                        8 Threads,   4768 MiB Core
         ---------------------------------------------------------

  ==> Geometry <==

    Molecular point group: c1
    Full point group: C1

    Geometry (in Angstrom), charge = 0, multiplicity = 1:

       Center              X                  Y                   Z               Mass       
    ------------   -----------------  -----------------  -----------------  -----------------
           C         -1.336932264484     0.751883271456    -0.780256373139    12.000000000000
           C         -2.411030994586     1.323399101484    -0.109702853804    12.000000000000
           C          0.644107903263    -1.486291846915    -1.679508805488    12.000000000000
           C          2.134696294795     0.009805829374    -0.571486915374    12.000000000000
           C         -1.413858898046     0.719697072659     1.992410750738    12.000000000000
           C          1.746945889462    -2.023106537016    -2.325190969475    12.000000000000
           C          3.171669580128    -0.593127960815    -1.265199385804    12.000000000000
           C         -0.292200585127     0.158986175617    -0.077492190639    12.000000000000
           C          0.839228946038    -0.444785991088    -0.781725140027    12.000000000000
           C         -2.447660329168     1.308440749306     1.279284869075    12.000000000000
           C         -0.350997786638     0.153749436466     1.309541783413    12.000000000000
           N          3.004497334713    -1.598638333396    -2.136590171534    14.003074004780
           O         -3.503020002866     1.859099103438     1.956715107832    15.994914619560
           F          0.639769264202    -0.411560824436     2.010649872826    18.998403224000
           H         -1.315264767252     0.768511164280    -1.861161497867     1.007825032070
           H         -3.219431149905     1.778553117448    -0.665311465272     1.007825032070
           H         -0.344771486858    -1.874738030132    -1.877016016974     1.007825032070
           H          2.336667419010     0.817236910010     0.117462096748     1.007825032070
           H         -1.436333616440     0.700191193314     3.072848455516     1.007825032070
           H          1.632537163450    -2.834358542249    -3.031986420937     1.007825032070
           H          4.193148207676    -0.264983159824    -1.126090708485     1.007825032070
           H         -3.437998833330     2.819568035137     1.932270669646     1.007825032070

  Running in c1 symmetry.

  Rotational constants: A =      0.06435  B =      0.01293  C =      0.01156 [cm^-1]
  Rotational constants: A =   1929.29528  B =    387.71353  C =    346.54262 [MHz]
  Nuclear repulsion =  814.122820205630319

  Charge       = 0
  Multiplicity = 1
  Electrons    = 98
  Nalpha       = 49
  Nbeta        = 49

  ==> Algorithm <==

  SCF Algorithm Type is DF.
  DIIS enabled.
  MOM disabled.
  Fractional occupation disabled.
  Guess Type is READ.
  Energy threshold   = 1.00e-10
  Density threshold  = 1.00e-10
  Integral threshold = 0.00e+00

  ==> Primary Basis <==

  Basis Set: AUG-CC-PVTZ
    Blend: AUG-CC-PVTZ
    Number of shells: 268
    Number of basis function: 828
    Number of Cartesian functions: 970
    Spherical Harmonics?: true
    Max angular momentum: 3

   => Loading Basis Set <=

    Name: (AUG-CC-PVTZ AUX)
    Role: JKFIT
    Keyword: DF_BASIS_SCF
    atoms 1-11  entry C          line   161 file /cbio/jclab/home/chayas/anaconda/envs/py35/share/psi4/basis/aug-cc-pvtz-jkfit.gbs 
    atoms 12    entry N          line   223 file /cbio/jclab/home/chayas/anaconda/envs/py35/share/psi4/basis/aug-cc-pvtz-jkfit.gbs 
    atoms 13    entry O          line   285 file /cbio/jclab/home/chayas/anaconda/envs/py35/share/psi4/basis/aug-cc-pvtz-jkfit.gbs 
    atoms 14    entry F          line   347 file /cbio/jclab/home/chayas/anaconda/envs/py35/share/psi4/basis/aug-cc-pvtz-jkfit.gbs 
    atoms 15-22 entry H          line    69 file /cbio/jclab/home/chayas/anaconda/envs/py35/share/psi4/basis/aug-cc-pvtz-jkfit.gbs 

  Reading orbitals from file 180, no projection.

  ==> Pre-Iterations <==

   -------------------------------------------------------
    Irrep   Nso     Nmo     Nalpha   Nbeta   Ndocc  Nsocc
   -------------------------------------------------------
     A        828     828       0       0       0       0
   -------------------------------------------------------
    Total     828     828      49      49      49       0
   -------------------------------------------------------

  ==> Integral Setup <==

  ==> DFJK: Density-Fitted J/K Matrices <==

    J tasked:                  Yes
    K tasked:                  Yes
    wK tasked:                  No
    OpenMP threads:              8
    Integrals threads:           8
    Memory (MB):              3576
    Algorithm:                Disk
    Integral Cache:           NONE
    Schwarz Cutoff:          1E-12
    Fitting Condition:       1E-12

   => Auxiliary Basis Set <=

  Basis Set: (AUG-CC-PVTZ AUX)
    Blend: AUG-CC-PVTZ-JKFIT
    Number of shells: 532
    Number of basis function: 1824
    Number of Cartesian functions: 2274
    Spherical Harmonics?: true
    Max angular momentum: 4

  Minimum eigenvalue in the overlap matrix is 7.4664084419E-07.
  Using Symmetric Orthogonalization.

  SCF Guess: Orbitals guess was supplied from a previous computation.

  ==> Iterations <==

                           Total Energy        Delta E     RMS |[F,P]|

   @DF-RHF iter   0:  -650.23258842360440   -6.50233e+02   3.41932e-04 
   @DF-RHF iter   1:  -650.17535034868683    5.72381e-02   9.19792e-05 
   @DF-RHF iter   2:  -650.17566782530275   -3.17477e-04   5.64860e-05 DIIS
   @DF-RHF iter   3:  -650.17583978542780   -1.71960e-04   1.08058e-05 DIIS
   @DF-RHF iter   4:  -650.17584670068482   -6.91526e-06   4.17213e-06 DIIS
   @DF-RHF iter   5:  -650.17584874571105   -2.04503e-06   1.56254e-06 DIIS
   @DF-RHF iter   6:  -650.17584913084033   -3.85129e-07   7.86509e-07 DIIS
   @DF-RHF iter   7:  -650.17584926879556   -1.37955e-07   3.04576e-07 DIIS
   @DF-RHF iter   8:  -650.17584930104249   -3.22469e-08   8.62802e-08 DIIS
   @DF-RHF iter   9:  -650.17584930475493   -3.71244e-09   4.84458e-08 DIIS
   @DF-RHF iter  10:  -650.17584930522810   -4.73165e-10   1.47098e-08 DIIS
   @DF-RHF iter  11:  -650.17584930527630   -4.82032e-11   5.35213e-09 DIIS
   @DF-RHF iter  12:  -650.17584930526959    6.70752e-12   1.49800e-09 DIIS
   @DF-RHF iter  13:  -650.17584930526357    6.02540e-12   6.01074e-10 DIIS
   @DF-RHF iter  14:  -650.17584930526584   -2.27374e-12   3.91732e-10 DIIS
   @DF-RHF iter  15:  -650.17584930527107   -5.22959e-12   1.67325e-10 DIIS
   @DF-RHF iter  16:  -650.17584930526289    8.18545e-12   7.63337e-11 DIIS

  ==> Post-Iterations <==

    Orbital Energies (a.u.)
    -----------------------

    Doubly Occupied:                                                      

       1A    -26.322970     2A    -20.596035     3A    -15.565215  
       4A    -11.343630     5A    -11.317742     6A    -11.274475  
       7A    -11.273709     8A    -11.268395     9A    -11.262355  
      10A    -11.258027    11A    -11.249393    12A    -11.246536  
      13A    -11.240605    14A    -11.239296    15A     -1.643347  
      16A     -1.413306    17A     -1.257947    18A     -1.184361  
      19A     -1.112241    20A     -1.042264    21A     -1.035926  
      22A     -1.022299    23A     -0.889326    24A     -0.875639  
      25A     -0.855653    26A     -0.828552    27A     -0.774532  
      28A     -0.733489    29A     -0.727522    30A     -0.709578  
      31A     -0.699917    32A     -0.667028    33A     -0.663842  
      34A     -0.650486    35A     -0.633604    36A     -0.626986  
      37A     -0.604527    38A     -0.599185    39A     -0.562444  
      40A     -0.541407    41A     -0.538178    42A     -0.526631  
      43A     -0.507389    44A     -0.499654    45A     -0.420554  
      46A     -0.393476    47A     -0.358910    48A     -0.349655  
      49A     -0.336134  

    Virtual:                                                              

      50A      0.021391    51A      0.029800    52A      0.033157  
      53A      0.037007    54A      0.042345    55A      0.045992  
      56A      0.050622    57A      0.057346    58A      0.073970  
      59A      0.082247    60A      0.084016    61A      0.085146  
      62A      0.088974    63A      0.094424    64A      0.096450  
      65A      0.101172    66A      0.106642    67A      0.107909  
      68A      0.109093    69A      0.112561    70A      0.117404  
      71A      0.117448    72A      0.118803    73A      0.125259  
      74A      0.126939    75A      0.132333    76A      0.132872  
      77A      0.134287    78A      0.139013    79A      0.145020  
      80A      0.145930    81A      0.148964    82A      0.151893  
      83A      0.154430    84A      0.155569    85A      0.166252  
      86A      0.172704    87A      0.173674    88A      0.177966  
      89A      0.185432    90A      0.195766    91A      0.199422  
      92A      0.207635    93A      0.211624    94A      0.216047  
      95A      0.223763    96A      0.232728    97A      0.234555  
      98A      0.237550    99A      0.239876   100A      0.240401  
     101A      0.244822   102A      0.249462   103A      0.253526  
     104A      0.256509   105A      0.260739   106A      0.262254  
     107A      0.265144   108A      0.269612   109A      0.274749  
     110A      0.277335   111A      0.282916   112A      0.284899  
     113A      0.290510   114A      0.298190   115A      0.301415  
     116A      0.305253   117A      0.309542   118A      0.314631  
     119A      0.317240   120A      0.320257   121A      0.322152  
     122A      0.323813   123A      0.331112   124A      0.332291  
     125A      0.335493   126A      0.339866   127A      0.347035  
     128A      0.348857   129A      0.352413   130A      0.357185  
     131A      0.366671   132A      0.370746   133A      0.377140  
     134A      0.382656   135A      0.383454   136A      0.390547  
     137A      0.396526   138A      0.404171   139A      0.406066  
     140A      0.414891   141A      0.415870   142A      0.421871  
     143A      0.423785   144A      0.427891   145A      0.429094  
     146A      0.438044   147A      0.441626   148A      0.443542  
     149A      0.448578   150A      0.454593   151A      0.456387  
     152A      0.464092   153A      0.469553   154A      0.474424  
     155A      0.476364   156A      0.477167   157A      0.480691  
     158A      0.482932   159A      0.489077   160A      0.489867  
     161A      0.495564   162A      0.497030   163A      0.498957  
     164A      0.505734   165A      0.509507   166A      0.512504  
     167A      0.514338   168A      0.515676   169A      0.518907  
     170A      0.519819   171A      0.527510   172A      0.531740  
     173A      0.536042   174A      0.540726   175A      0.543063  
     176A      0.546031   177A      0.549502   178A      0.556272  
     179A      0.559799   180A      0.563747   181A      0.571023  
     182A      0.579904   183A      0.580301   184A      0.586965  
     185A      0.591675   186A      0.597168   187A      0.603163  
     188A      0.611296   189A      0.621134   190A      0.622915  
     191A      0.626586   192A      0.629028   193A      0.639585  
     194A      0.641403   195A      0.648230   196A      0.653142  
     197A      0.658020   198A      0.670707   199A      0.673343  
     200A      0.676555   201A      0.684775   202A      0.693688  
     203A      0.701115   204A      0.705056   205A      0.707707  
     206A      0.714099   207A      0.717485   208A      0.724095  
     209A      0.726526   210A      0.733892   211A      0.735456  
     212A      0.740616   213A      0.745318   214A      0.749043  
     215A      0.761996   216A      0.766762   217A      0.770543  
     218A      0.776930   219A      0.791133   220A      0.794224  
     221A      0.798900   222A      0.806226   223A      0.807281  
     224A      0.820608   225A      0.828578   226A      0.830814  
     227A      0.833429   228A      0.838071   229A      0.849076  
     230A      0.852042   231A      0.852848   232A      0.863729  
     233A      0.866905   234A      0.870980   235A      0.875375  
     236A      0.881743   237A      0.884666   238A      0.889245  
     239A      0.896766   240A      0.900922   241A      0.908987  
     242A      0.912246   243A      0.918688   244A      0.925448  
     245A      0.929126   246A      0.932300   247A      0.937768  
     248A      0.944746   249A      0.945137   250A      0.949357  
     251A      0.954229   252A      0.957933   253A      0.961618  
     254A      0.962939   255A      0.966548   256A      0.974473  
     257A      0.980305   258A      0.984552   259A      0.987711  
     260A      0.991447   261A      0.999477   262A      1.001515  
     263A      1.011720   264A      1.014709   265A      1.017891  
     266A      1.020529   267A      1.027412   268A      1.031901  
     269A      1.034654   270A      1.037156   271A      1.042154  
     272A      1.047321   273A      1.051005   274A      1.057638  
     275A      1.068722   276A      1.070439   277A      1.073113  
     278A      1.078964   279A      1.083039   280A      1.085594  
     281A      1.087437   282A      1.090787   283A      1.098562  
     284A      1.102467   285A      1.105716   286A      1.109024  
[...]
	 --------------------------------------------------------

   => Auxiliary Basis Set <=

  Basis Set: (AUG-CC-PVTZ AUX)
    Blend: AUG-CC-PVTZ-RI
    Number of shells: 504
    Number of basis function: 1852
    Number of Cartesian functions: 2344
    Spherical Harmonics?: true
    Max angular momentum: 4

	 --------------------------------------------------------
	                 NBF =   828, NAUX =  1852
	 --------------------------------------------------------
	   CLASS    FOCC     OCC    AOCC    AVIR     VIR    FVIR
	   PAIRS       0      49      49     779     779       0
	 --------------------------------------------------------


         ------------------------------------------------------------
                                     CPHF                           
                                  Rob Parrish                       
         ------------------------------------------------------------

  ==> Geometry <==

    Molecular point group: c1
    Full point group: C1

    Geometry (in Angstrom), charge = 0, multiplicity = 1:

       Center              X                  Y                   Z               Mass       
    ------------   -----------------  -----------------  -----------------  -----------------
           C         -1.364049847211     0.657134215162    -0.759176276063    12.000000000000
           C         -2.447087986842     1.228828029213    -0.113119884627    12.000000000000
           C          0.633216402216    -1.426531174102    -1.742910174576    12.000000000000
           C          2.169898643339    -0.095523690713    -0.514314206549    12.000000000000
           C         -1.389888709493     0.803048069545     2.003049069235    12.000000000000
           C          1.715837693095    -1.962764693855    -2.422436570472    12.000000000000
           C          3.187176922845    -0.688409504733    -1.244887968759    12.000000000000
           C         -0.274066891661     0.145185001556    -0.055377330237    12.000000000000
           C          0.851830923950    -0.464979687612    -0.761588566890    12.000000000000
           C         -2.449700137817     1.315105825981     1.271705936105    12.000000000000
           C         -0.329072550430     0.234379469695     1.329440924871    12.000000000000
           N          2.981842697775    -1.610015537455    -2.189724273082    14.003074004780
           O         -3.537547950441     1.819794438790     1.950559520793    15.994914619560
           F          0.682943498184    -0.269177546011     2.061741414303    18.998403224000
           H         -1.348767785013     0.601705408324    -1.837875895766     1.007825032070
           H         -3.288938366023     1.608871452553    -0.670585394278     1.007825032070
           H         -0.369911995466    -1.758561284726    -1.966400626683     1.007825032070
           H          2.398199752244     0.646865927521     0.235150994590     1.007825032070
           H         -1.395221448805     0.840260666999     3.080034858694     1.007825032070
           H          1.559450899515    -2.713570180915    -3.184811723086     1.007825032070
           H          4.215771090882    -0.408050855172    -1.065811174691     1.007825032070
           H         -3.552792334717     2.776000787807     1.847601079948     1.007825032070

  Nuclear repulsion =  813.293443230335470
  Reference energy  = -650.177356940045911

  ==> Basis Set <==

  Basis Set: AUG-CC-PVTZ
    Blend: AUG-CC-PVTZ
    Number of shells: 268
    Number of basis function: 828
    Number of Cartesian functions: 970
    Spherical Harmonics?: true
    Max angular momentum: 3

  ==> CGRSolver (by Rob Parrish) <==

   Number of roots    =         1
   Preconditioning    =    JACOBI
   Convergence cutoff =     1E-06
   Maximum iterations =       100

  ==> CPHFRHamiltonian (by Rob Parrish) <== 

  ==> DFJK: Density-Fitted J/K Matrices <==

    J tasked:                  Yes
    K tasked:                  Yes
    wK tasked:                  No
    OpenMP threads:              8
    Integrals threads:           8
    Memory (MB):              3576
    Algorithm:                Disk
    Integral Cache:           NONE
    Schwarz Cutoff:          1E-12
    Fitting Condition:       1E-12

   => Auxiliary Basis Set <=

  Basis Set: (AUG-CC-PVTZ AUX)
    Blend: AUG-CC-PVTZ-JKFIT
    Number of shells: 532
    Number of basis function: 1824
    Number of Cartesian functions: 2274
    Spherical Harmonics?: true
    Max angular momentum: 4

  ==> CPHF Iterations <==

  => Iterations <=

             Iter  Converged  Remaining    Residual
  CGR           1          0          1   9.709E-02
  CGR           2          0          1   3.002E-02
  CGR           3          0          1   1.992E-02
  CGR           4          0          1   8.891E-03
  CGR           5          0          1   3.700E-03
  CGR           6          0          1   1.352E-03
  CGR           7          0          1   3.854E-04
  CGR           8          0          1   1.191E-04
  CGR           9          0          1   4.076E-05
  CGR          10          0          1   1.117E-05
  CGR          11          0          1   4.619E-06
  CGR          12          0          1   1.393E-06
  CGR          13          1          0   6.201E-07

    CGRSolver converged.

  ==> DFCorrGrad: Density-Fitted Correlated Gradients <==

    OpenMP threads:              8
    Integrals threads:           8
    Memory (MB):              3576
    Schwarz Cutoff:          0E+00
    Fitting Condition:       1E-12

   => Auxiliary Basis Set <=

  Basis Set: (AUG-CC-PVTZ AUX)
    Blend: AUG-CC-PVTZ-JKFIT
    Number of shells: 532
    Number of basis function: 1824
    Number of Cartesian functions: 2274
    Spherical Harmonics?: true
    Max angular momentum: 4

	-----------------------------------------------------------
	 ==================> DF-MP2 Energies <==================== 
	-----------------------------------------------------------
	 Reference Energy          =    -650.1773569400459110 [Eh]
	 Singles Energy            =      -0.0000000000000007 [Eh]
	 Same-Spin Energy          =      -0.6763318582045709 [Eh]
	 Opposite-Spin Energy      =      -2.0167941495029345 [Eh]
	 Correlation Energy        =      -2.6931260077075061 [Eh]
	 Total Energy              =    -652.8704829477534304 [Eh]
	-----------------------------------------------------------
	 ================> DF-SCS-MP2 Energies <================== 
	-----------------------------------------------------------
	 SCS Same-Spin Scale       =       0.3333333333333333 [-]
	 SCS Opposite-Spin Scale   =       1.2000000000000000 [-]
	 SCS Same-Spin Energy      =      -0.2254439527348570 [Eh]
	 SCS Opposite-Spin Energy  =      -2.4201529794035213 [Eh]
	 SCS Correlation Energy    =      -2.6455969321383792 [Eh]
	 SCS Total Energy          =    -652.8229538721842573 [Eh]
	-----------------------------------------------------------


  -Total Gradient:
     Atom            X                  Y                   Z
    ------   -----------------  -----------------  -----------------
       1        0.000073138639     0.001025513100     0.000035124616
       2       -0.000500223091    -0.001239895367    -0.000170604727
       3       -0.000107808068    -0.000949031309     0.000438329572
       4        0.000604354309     0.000656862596    -0.001382475687
       5        0.000189632553    -0.000038923937     0.000453271824
       6        0.000156288059     0.000015731154    -0.000016039548
       7        0.000081268180     0.000112086463     0.000176218889
       8        0.000575516254    -0.000343196989    -0.000190622036
       9       -0.000327058605     0.000418123606     0.000256542060
      10        0.001308301997     0.001775350084    -0.000221500641
      11       -0.001053602244    -0.000516766707    -0.000358584676
      12       -0.000061071454    -0.000208758862    -0.000202399517
      13       -0.001832932037    -0.001262212387    -0.001434378768
      14        0.000264427819    -0.000336850655     0.001263602838
      15        0.000056353188    -0.000186970102    -0.000259926766
      16       -0.000173930243     0.000073473766    -0.000052027667
      17       -0.000229313591     0.000089160627    -0.000113067307
      18        0.000018881438     0.000271910090     0.000269734356
      19        0.000000364524    -0.000006386353     0.000154363839
      20       -0.000168614650    -0.000182373848    -0.000149445058
      21        0.000102713328     0.000126292009     0.000117123723
      22        0.001023313673     0.000706863030     0.001386760685


*** tstop() called on gpu-2-10.local at Sun Nov 12 04:32:21 2017
Module time:
	user time   =    5776.94 seconds =      96.28 minutes
	system time =     106.82 seconds =       1.78 minutes
	total time  =       2684 seconds =      44.73 minutes
Total time:
	user time   =   35005.34 seconds =     583.42 minutes
	system time =     657.18 seconds =      10.95 minutes
	total time  =      16293 seconds =     271.55 minutes

			-----------------------------------------
			 OPTKING 2.0: for geometry optimizations 
			  - R.A. King,  Bethel University        
			-----------------------------------------

	Previous internal coordinate definitions found.
	---Fragment 1 Geometry and Gradient---
	 C          -2.5776806428        1.2418036992       -1.4346352483
	 C          -4.6243261182        2.3221484396       -0.2137656021
	 C           1.1966055830       -2.6957532391       -3.2936229042
	 C           4.1005141720       -0.1805136147       -0.9719129966
	 C          -2.6265090161        1.5175409230        3.7852141716
	 C           3.2424633284       -3.7090877347       -4.5777416925
	 C           6.0228915212       -1.3009054312       -2.3524973271
	 C          -0.5179113673        0.2743598915       -0.1046479881
	 C           1.6097271578       -0.8786842669       -1.4391938174
	 C          -4.6292623682        2.4851898469        2.4031759408
	 C          -0.6218569982        0.4429130089        2.5122792579
	 N           5.6348660701       -3.0424884355       -4.1379791827
	 O          -6.6849968083        3.4389131075        3.6860233002
	 F           1.2905761758       -0.5086718431        3.8961266299
	 H          -2.5488017305        1.1370584344       -3.4730821092
	 H          -6.2151927797        3.0403264283       -1.2672227439
	 H          -0.6990323647       -3.3231992160       -3.7159586520
	 H           4.5319407437        1.2223994477        0.4443709797
	 H          -2.6365864330        1.5878625409        5.8204223627
	 H           2.9469351178       -5.1279044843       -6.0184219414
	 H           7.9666528007       -0.7711043646       -2.0140912295
	 H          -6.7138045196        5.2458812336        3.4914600439
	             0.0000731386        0.0010255131        0.0000351246
	            -0.0005002231       -0.0012398954       -0.0001706047
	            -0.0001078081       -0.0009490313        0.0004383296
	             0.0006043543        0.0006568626       -0.0013824757
	             0.0001896326       -0.0000389239        0.0004532718
	             0.0001562881        0.0000157312       -0.0000160395
	             0.0000812682        0.0001120865        0.0001762189
	             0.0005755163       -0.0003431970       -0.0001906220
	            -0.0003270586        0.0004181236        0.0002565421
	             0.0013083020        0.0017753501       -0.0002215006
	            -0.0010536022       -0.0005167667       -0.0003585847
	            -0.0000610715       -0.0002087589       -0.0002023995
	            -0.0018329320       -0.0012622124       -0.0014343788
	             0.0002644278       -0.0003368507        0.0012636028
	             0.0000563532       -0.0001869701       -0.0002599268
	            -0.0001739302        0.0000734738       -0.0000520277
	            -0.0002293136        0.0000891606       -0.0001130673
	             0.0000188814        0.0002719101        0.0002697344
	             0.0000003645       -0.0000063864        0.0001543638
	            -0.0001686146       -0.0001823738       -0.0001494451
	             0.0001027133        0.0001262920        0.0001171237
	             0.0010233137        0.0007068630        0.0013867607

	---Fragment 1 Intrafragment Coordinates---
	 - Coordinate -           - BOHR/RAD -       - ANG/DEG -
	 R(1,2)           =         2.616567	       1.384628
	 R(1,8)           =         2.635804	       1.394807
	 R(1,15)          =         2.041341	       1.080231
	 R(2,10)          =         2.622020	       1.387513
	 R(2,16)          =         2.038727	       1.078848
	 R(3,6)           =         2.619416	       1.386135
	 R(3,9)           =         2.628938	       1.391174
	 R(3,17)          =         2.040955	       1.080027
	 R(4,7)           =         2.618554	       1.385679
	 R(4,9)           =         2.628652	       1.391023
	 R(4,18)          =         2.039646	       1.079334
	 R(5,10)          =         2.618663	       1.385737
	 R(5,11)          =         2.606495	       1.379298
	 R(5,19)          =         2.036448	       1.077642
	 R(6,12)          =         2.522169	       1.334674
	 R(6,20)          =         2.043511	       1.081379
	 R(7,12)          =         2.524207	       1.335753
	 R(7,21)          =         2.042894	       1.081053
	 R(8,9)           =         2.763579	       1.462423
	 R(8,11)          =         2.624409	       1.388777
	 R(10,13)         =         2.604099	       1.378030
	 R(11,14)         =         2.545181	       1.346852
	 R(13,22)         =         1.817641	       0.961854
	 B(1,2,10)        =         2.086141	     119.527076
	 B(1,2,16)        =         2.111462	     120.977854
	 B(1,8,9)         =         2.107267	     120.737488
	 B(1,8,11)        =         2.036019	     116.655305
	 B(2,1,8)         =         2.126282	     121.827003
	 B(2,1,15)        =         2.092297	     119.879816
	 B(2,10,5)        =         2.097082	     120.153969
	 B(2,10,13)       =         2.112891	     121.059745
	 B(3,6,12)        =         2.156914	     123.582070
	 B(3,6,20)        =         2.095847	     120.083201
	 B(3,9,4)         =         2.046398	     117.249942
	 B(3,9,8)         =         2.103697	     120.532959
	 B(4,7,12)        =         2.159506	     123.730606
	 B(4,7,21)        =         2.094642	     120.014168
	 B(4,9,8)         =         2.132758	     122.198056
	 B(5,10,13)       =         2.070417	     118.626146
	 B(5,11,8)        =         2.145897	     122.950836
	 B(5,11,14)       =         2.056135	     117.807855
	 B(6,3,9)         =         2.083409	     119.370546
	 B(6,3,17)        =         2.100238	     120.334793
	 B(6,12,7)        =         2.039238	     116.839711
	 B(7,4,9)         =         2.080902	     119.226877
	 B(7,4,18)        =         2.100304	     120.338578
	 B(8,1,15)        =         2.064603	     118.293019
	 B(8,11,14)       =         2.081040	     119.234795
	 B(9,3,17)        =         2.099494	     120.292173
	 B(9,4,18)        =         2.101973	     120.434164
	 B(9,8,11)        =         2.139829	     122.603198
	 B(10,2,16)       =         2.085582	     119.495059
	 B(10,5,11)       =         2.074658	     118.869146
	 B(10,5,19)       =         2.107026	     120.723725
	 B(10,13,22)      =         1.900612	     108.897057
	 B(11,5,19)       =         2.101472	     120.405456
	 B(12,6,20)       =         2.030410	     116.333949
	 B(12,7,21)       =         2.029031	     116.254893
	 D(1,2,10,5)      =        -0.027163	      -1.556323
	 D(1,2,10,13)     =        -3.087375	    -176.893547
	 D(1,8,9,3)       =        -0.857006	     -49.102837
	 D(1,8,9,4)       =         2.256113	     129.265735
	 D(1,8,11,5)      =        -0.007583	      -0.434479
	 D(1,8,11,14)     =         3.117436	     178.615949
	 D(2,1,8,9)       =         3.131477	     179.420444
	 D(2,1,8,11)      =         0.002274	       0.130284
	 D(2,10,5,11)     =         0.021997	       1.260325
	 D(2,10,5,19)     =        -3.111417	    -178.271037
	 D(2,10,13,22)    =        -1.306032	     -74.830141
	 D(3,6,12,7)      =         0.000444	       0.025466
	 D(3,9,4,7)       =         0.002477	       0.141923
	 D(3,9,4,18)      =         3.140162	     179.918052
	 D(3,9,8,11)      =         2.271443	     130.144095
	 D(4,7,12,6)      =        -0.001227	      -0.070274
	 D(4,9,3,6)       =        -0.003195	      -0.183056
	 D(4,9,3,17)      =         3.128417	     179.245096
	 D(4,9,8,11)      =        -0.898623	     -51.487332
	 D(5,10,2,16)     =         3.115098	     178.481946
	 D(5,10,13,22)    =         1.915725	     109.762972
	 D(5,11,8,9)      =        -3.136535	    -179.710233
	 D(6,3,9,8)       =         3.111295	     178.264090
	 D(6,12,7,21)     =        -3.139147	    -179.859865
	 D(7,4,9,8)       =        -3.111529	    -178.277459
	 D(7,12,6,20)     =        -3.135532	    -179.652752
	 D(8,1,2,10)      =         0.014892	       0.853250
	 D(8,1,2,16)      =        -3.127379	    -179.185601
	 D(8,9,3,17)      =        -0.040278	      -2.307758
	 D(8,9,4,18)      =         0.026157	       1.498670
	 D(8,11,5,10)     =        -0.004436	      -0.254169
	 D(8,11,5,19)     =         3.129004	     179.278727
	 D(9,3,6,12)      =         0.001811	       0.103740
	 D(9,3,6,20)      =         3.137586	     179.770458
	 D(9,4,7,12)      =        -0.000269	      -0.015389
	 D(9,4,7,21)      =         3.137521	     179.766684
	 D(9,8,1,15)      =        -0.012679	      -0.726451
	 D(9,8,11,14)     =        -0.011516	      -0.659805
	 D(10,2,1,15)     =        -3.124097	    -178.997574
	 D(10,5,11,14)    =        -3.129678	    -179.317364
	 D(11,5,10,13)    =         3.084172	     176.710057
	 D(11,8,1,15)     =         3.141303	     179.983389
	 D(12,6,3,17)     =        -3.129797	    -179.324163
	 D(12,7,4,18)     =        -3.137958	    -179.791737
	 D(13,10,2,16)    =         0.054886	       3.144723
	 D(13,10,5,19)    =        -0.049241	      -2.821305
	 D(14,11,5,19)    =         0.003762	       0.215532
	 D(15,1,2,16)     =         0.016818	       0.963575
	 D(17,3,6,20)     =         0.005979	       0.342555
	 D(18,4,7,21)     =        -0.000169	      -0.009664
	 R(4,14)          =         5.630386	       2.979472

	Current energy   :      -652.8704829478

	Energy change for the previous step:
		Projected    :        -0.0001651677
		Actual       :        -0.0002118009

	Performing BFGS update.
	Previous computed or guess Hessian on step 1.
	Steps to be used in Hessian update: 5 4
	Adding user-defined constraint: Fragment 1; Coordinate 69:
		Value =    -1.306032; Fixed value    =    -1.309000
		Force =    -0.001855; Force constant =     0.625000
	Removing off-diagonal coupling between coordinate 69 and others.
	Taking RFO optimization step.
	Going to follow RFO solution 1.
	Using RFO vector 1.

	Determining step-restricting scale parameter for RS-RFO.
	Maximum step size allowed    0.10000

	 Iter      |step|        alpha        rfo_root  
	------------------------------------------------
	    0     0.44359       1.00000           1
	    1     0.28853       5.66120           1
	    2     0.19326      17.02831           1
	    3     0.13880      37.69322           1
	    4     0.11137      61.99746           1
	    5     0.10152      76.04397           1
	    6     0.10003      78.52877           1
	    7     0.10000      78.58648           1
	------------------------------------------------
	Norm of target step-size    0.10000
	Projected energy change by RFO approximation:        -0.0001518573

	Back-transformation to cartesian coordinates...
	The INTCO_EXCEPTion handler:
	TORS::compute_val: unable to compute torsion value
	Dynamic level is 0.
	exc.g_really_quit() is 0.

  **** Optimization has failed! (in 6 steps) ****
			--------------------------
			 OPTKING Finished Execution 
			--------------------------
	Cleaning optimization helper files.

*** Psi4 exiting successfully. Buy a developer a beer!
