
    -----------------------------------------------------------------------
          Psi4: An Open-Source Ab Initio Electronic Structure Package
                               Psi4 1.1 release

                         Git: Rev {HEAD} add49b9 


    R. M. Parrish, L. A. Burns, D. G. A. Smith, A. C. Simmonett,
    A. E. DePrince III, E. G. Hohenstein, U. Bozkaya, A. Yu. Sokolov,
    R. Di Remigio, R. M. Richard, J. F. Gonthier, A. M. James,
    H. R. McAlexander, A. Kumar, M. Saitow, X. Wang, B. P. Pritchard,
    P. Verma, H. F. Schaefer III, K. Patkowski, R. A. King, E. F. Valeev,
    F. A. Evangelista, J. M. Turney, T. D. Crawford, and C. D. Sherrill,
    J. Chem. Theory Comput. in press (2017).
    (doi: 10.1021/acs.jctc.7b00174)

    -----------------------------------------------------------------------


    Psi4 started on: Monday, 13 November 2017 12:30PM

    Process ID:  10834
    PSIDATADIR: /cbio/jclab/home/chayas/anaconda/envs/py35/share/psi4
    Memory:     500.0 MiB
    Threads:    8
    
  ==> Input File <==

--------------------------------------------------------------------------

memory 5 Gb

molecule phepyrFOH_anion {
  symmetry C1
  -1 1 
  C      1.885   -1.036   -0.112
  C      0.807   -0.463   0.561
  C      5.208   -2.536   0.589
  C      3.945   -2.486   -1.457
  C      1.800   -1.079   2.676
  C      6.247   -3.104   -0.129
  C      5.042   -3.056   -2.084
  C      2.921   -1.631   0.608
  C      4.038   -2.224   -0.095
  C      0.764   -0.484   1.955
  C      2.878   -1.652   2.002
  N      6.194   -3.373   -1.453
  O      -0.227   0.043   2.574
  F      3.866   -2.220   2.709
  H      1.904   -1.013   -1.200
  H      0.011   -0.007   -0.025
  H      5.317   -2.347   1.652
  H      3.049   -2.256   -2.024
  H      1.791   -1.109   3.764
  H      7.180   -3.367   0.358
  H      5.020   -3.279   -3.146
  units Angstrom
}

dih_string = "1 8 9 3 165"
set optking { fixed_dihedral = $dih_string
              dynamic_level = 1
              geom_maxiter = 250
              print_trajectory_xyz_file = True }

optimize('MP2/aug-cc-PVTZ')
--------------------------------------------------------------------------

  Memory set to   4.657 GiB by Python driver.
gradient() will perform analytic gradient computation.

*** tstart() called on gpu-2-8.local
*** at Mon Nov 13 12:30:36 2017

    SCF Algorithm Type (re)set to DF.

*** tstart() called on gpu-2-8.local
*** at Mon Nov 13 12:30:36 2017

   => Loading Basis Set <=

    Name: AUG-CC-PVTZ
    Role: ORBITAL
    Keyword: BASIS
    atoms 1-11  entry C          line   221 file /cbio/jclab/home/chayas/anaconda/envs/py35/share/psi4/basis/aug-cc-pvtz.gbs 
    atoms 12    entry N          line   267 file /cbio/jclab/home/chayas/anaconda/envs/py35/share/psi4/basis/aug-cc-pvtz.gbs 
    atoms 13    entry O          line   313 file /cbio/jclab/home/chayas/anaconda/envs/py35/share/psi4/basis/aug-cc-pvtz.gbs 
    atoms 14    entry F          line   359 file /cbio/jclab/home/chayas/anaconda/envs/py35/share/psi4/basis/aug-cc-pvtz.gbs 
    atoms 15-21 entry H          line    34 file /cbio/jclab/home/chayas/anaconda/envs/py35/share/psi4/basis/aug-cc-pvtz.gbs 


         ---------------------------------------------------------
                                   SCF
            by Justin Turney, Rob Parrish, and Andy Simmonett
                              RHF Reference
                        8 Threads,   4768 MiB Core
         ---------------------------------------------------------

  ==> Geometry <==

    Molecular point group: c1
    Full point group: C1

    Geometry (in Angstrom), charge = -1, multiplicity = 1:

       Center              X                  Y                   Z               Mass       
    ------------   -----------------  -----------------  -----------------  -----------------
           C         -1.345152517874     0.767848021823    -0.781143726409    12.000000000000
           C         -2.423152517874     1.340848021823    -0.108143726409    12.000000000000
           C          1.977847482126    -0.732151978177    -0.080143726409    12.000000000000
           C          0.714847482126    -0.682151978177    -2.126143726409    12.000000000000
           C         -1.430152517874     0.724848021823     2.006856273591    12.000000000000
           C          3.016847482126    -1.300151978177    -0.798143726409    12.000000000000
           C          1.811847482126    -1.252151978177    -2.753143726409    12.000000000000
           C         -0.309152517874     0.172848021823    -0.061143726409    12.000000000000
           C          0.807847482126    -0.420151978177    -0.764143726409    12.000000000000
           C         -2.466152517874     1.319848021823     1.285856273591    12.000000000000
           C         -0.352152517874     0.151848021823     1.332856273591    12.000000000000
           N          2.963847482126    -1.569151978177    -2.122143726409    14.003074004780
           O         -3.457152517874     1.846848021823     1.904856273591    15.994914619560
           F          0.635847482126    -0.416151978177     2.039856273591    18.998403224000
           H         -1.326152517874     0.790848021823    -1.869143726409     1.007825032070
           H         -3.219152517874     1.796848021823    -0.694143726409     1.007825032070
           H          2.086847482126    -0.543151978177     0.982856273591     1.007825032070
           H         -0.181152517874    -0.452151978177    -2.693143726409     1.007825032070
           H         -1.439152517874     0.694848021823     3.094856273591     1.007825032070
           H          3.949847482126    -1.563151978177    -0.311143726409     1.007825032070
           H          1.789847482126    -1.475151978177    -3.815143726409     1.007825032070

  Running in c1 symmetry.

  Rotational constants: A =      0.06334  B =      0.01399  C =      0.01152 [cm^-1]
  Rotational constants: A =   1898.99219  B =    419.55651  C =    345.47829 [MHz]
  Nuclear repulsion =  805.302902927271134

  Charge       = -1
  Multiplicity = 1
  Electrons    = 98
  Nalpha       = 49
  Nbeta        = 49

  ==> Algorithm <==

  SCF Algorithm Type is DF.
  DIIS enabled.
  MOM disabled.
  Fractional occupation disabled.
  Guess Type is SAD.
  Energy threshold   = 1.00e-10
  Density threshold  = 1.00e-10
  Integral threshold = 0.00e+00

  ==> Primary Basis <==

  Basis Set: AUG-CC-PVTZ
    Blend: AUG-CC-PVTZ
    Number of shells: 259
    Number of basis function: 805
    Number of Cartesian functions: 945
    Spherical Harmonics?: true
    Max angular momentum: 3

   => Loading Basis Set <=

    Name: (AUG-CC-PVTZ AUX)
    Role: JKFIT
    Keyword: DF_BASIS_SCF
    atoms 1-11  entry C          line   161 file /cbio/jclab/home/chayas/anaconda/envs/py35/share/psi4/basis/aug-cc-pvtz-jkfit.gbs 
    atoms 12    entry N          line   223 file /cbio/jclab/home/chayas/anaconda/envs/py35/share/psi4/basis/aug-cc-pvtz-jkfit.gbs 
    atoms 13    entry O          line   285 file /cbio/jclab/home/chayas/anaconda/envs/py35/share/psi4/basis/aug-cc-pvtz-jkfit.gbs 
    atoms 14    entry F          line   347 file /cbio/jclab/home/chayas/anaconda/envs/py35/share/psi4/basis/aug-cc-pvtz-jkfit.gbs 
    atoms 15-21 entry H          line    69 file /cbio/jclab/home/chayas/anaconda/envs/py35/share/psi4/basis/aug-cc-pvtz-jkfit.gbs 

  ==> Pre-Iterations <==

   -------------------------------------------------------
    Irrep   Nso     Nmo     Nalpha   Nbeta   Ndocc  Nsocc
   -------------------------------------------------------
     A        805     805       0       0       0       0
   -------------------------------------------------------
    Total     805     805      49      49      49       0
   -------------------------------------------------------

  ==> Integral Setup <==

  ==> DFJK: Density-Fitted J/K Matrices <==

    J tasked:                  Yes
    K tasked:                  Yes
    wK tasked:                  No
    OpenMP threads:              8
    Integrals threads:           8
    Memory (MB):              3576
    Algorithm:                Disk
    Integral Cache:           NONE
    Schwarz Cutoff:          1E-12
    Fitting Condition:       1E-12

   => Auxiliary Basis Set <=

  Basis Set: (AUG-CC-PVTZ AUX)
    Blend: AUG-CC-PVTZ-JKFIT
    Number of shells: 518
    Number of basis function: 1778
    Number of Cartesian functions: 2219
    Spherical Harmonics?: true
    Max angular momentum: 4

  Minimum eigenvalue in the overlap matrix is 6.6241380770E-07.
  Using Symmetric Orthogonalization.

  SCF Guess: Superposition of Atomic Densities via on-the-fly atomic UHF.

  ==> Iterations <==

                           Total Energy        Delta E     RMS |[F,P]|

   @DF-RHF iter   0:  -662.50434273198346   -6.62504e+02   1.97819e-02 
   @DF-RHF iter   1:  -649.07786418243313    1.34265e+01   2.28342e-03 
   @DF-RHF iter   2:  -649.40126266901973   -3.23398e-01   1.67044e-03 DIIS
   @DF-RHF iter   3:  -649.57400296289745   -1.72740e-01   4.62175e-04 DIIS
   @DF-RHF iter   4:  -649.59723591072748   -2.32329e-02   1.56549e-04 DIIS
   @DF-RHF iter   5:  -649.60123726108600   -4.00135e-03   4.88185e-05 DIIS
   @DF-RHF iter   6:  -649.60176663065215   -5.29370e-04   2.12730e-05 DIIS
   @DF-RHF iter   7:  -649.60184247135010   -7.58407e-05   7.42578e-06 DIIS
   @DF-RHF iter   8:  -649.60185232666515   -9.85532e-06   2.78397e-06 DIIS
   @DF-RHF iter   9:  -649.60185435211258   -2.02545e-06   1.35308e-06 DIIS
   @DF-RHF iter  10:  -649.60185484226463   -4.90152e-07   6.87942e-07 DIIS
   @DF-RHF iter  11:  -649.60185496612337   -1.23859e-07   2.00187e-07 DIIS
   @DF-RHF iter  12:  -649.60185497706016   -1.09368e-08   8.65060e-08 DIIS
   @DF-RHF iter  13:  -649.60185497860436   -1.54421e-09   3.38260e-08 DIIS
   @DF-RHF iter  14:  -649.60185497897010   -3.65731e-10   1.38222e-08 DIIS
   @DF-RHF iter  15:  -649.60185497901784   -4.77485e-11   7.73283e-09 DIIS
   @DF-RHF iter  16:  -649.60185497904149   -2.36469e-11   3.28935e-09 DIIS
   @DF-RHF iter  17:  -649.60185497902046    2.10321e-11   1.57941e-09 DIIS
   @DF-RHF iter  18:  -649.60185497903092   -1.04592e-11   6.64120e-10 DIIS
   @DF-RHF iter  19:  -649.60185497902114    9.77707e-12   2.98604e-10 DIIS
   @DF-RHF iter  20:  -649.60185497904206   -2.09184e-11   1.23521e-10 DIIS
   @DF-RHF iter  21:  -649.60185497904206    0.00000e+00   6.43178e-11 DIIS

  ==> Post-Iterations <==

    Orbital Energies (a.u.)
    -----------------------

    Doubly Occupied:                                                      

       1A    -26.196193     2A    -20.310049     3A    -15.444586  
       4A    -11.198007     5A    -11.164463     6A    -11.161029  
       7A    -11.144641     8A    -11.130829     9A    -11.117003  
      10A    -11.113437    11A    -11.107041    12A    -11.087677  
      13A    -11.070786    14A    -11.070751    15A     -1.520956  
      16A     -1.140888    17A     -1.134329    18A     -1.026763  
      19A     -0.964810    20A     -0.919491    21A     -0.880229  
      22A     -0.850376    23A     -0.752566    24A     -0.736396  
      25A     -0.707471    26A     -0.681189    27A     -0.608840  
      28A     -0.598864    29A     -0.585431    30A     -0.571920  
      31A     -0.545987    32A     -0.524146    33A     -0.500888  
      34A     -0.485891    35A     -0.469970    36A     -0.464028  
      37A     -0.432166    38A     -0.417785    39A     -0.405812  
      40A     -0.388737    41A     -0.378448    42A     -0.359448  
      43A     -0.321918    44A     -0.302458    45A     -0.247189  
      46A     -0.238204    47A     -0.228228    48A     -0.206242  
      49A     -0.116934  

    Virtual:                                                              

      50A      0.099027    51A      0.101670    52A      0.114819  
      53A      0.120092    54A      0.127855    55A      0.131332  
      56A      0.135513    57A      0.157922    58A      0.166386  
      59A      0.175784    60A      0.180621    61A      0.183631  
      62A      0.186343    63A      0.190235    64A      0.193161  
      65A      0.197387    66A      0.200417    67A      0.205811  
      68A      0.210987    69A      0.213144    70A      0.218168  
      71A      0.219711    72A      0.220256    73A      0.228318  
      74A      0.230045    75A      0.236498    76A      0.238411  
      77A      0.239528    78A      0.242666    79A      0.248745  
      80A      0.249300    81A      0.258675    82A      0.264031  
      83A      0.268030    84A      0.272456    85A      0.278144  
      86A      0.283240    87A      0.289265    88A      0.292382  
      89A      0.301252    90A      0.310658    91A      0.313997  
      92A      0.316049    93A      0.320419    94A      0.326582  
      95A      0.326828    96A      0.330235    97A      0.333229  
      98A      0.337632    99A      0.342532   100A      0.344550  
     101A      0.347298   102A      0.356812   103A      0.360667  
     104A      0.367662   105A      0.370383   106A      0.379266  
     107A      0.382330   108A      0.385365   109A      0.388524  
     110A      0.390487   111A      0.398276   112A      0.401450  
     113A      0.410163   114A      0.412253   115A      0.416756  
     116A      0.423912   117A      0.425558   118A      0.428112  
     119A      0.432280   120A      0.439538   121A      0.445096  
     122A      0.450765   123A      0.452731   124A      0.457455  
     125A      0.470853   126A      0.476616   127A      0.480345  
     128A      0.482608   129A      0.485002   130A      0.491634  
     131A      0.497328   132A      0.510539   133A      0.515738  
     134A      0.518297   135A      0.522863   136A      0.531173  
     137A      0.535275   138A      0.540503   139A      0.542534  
     140A      0.549991   141A      0.553852   142A      0.556998  
     143A      0.559253   144A      0.564239   145A      0.566522  
     146A      0.571639   147A      0.573713   148A      0.576097  
     149A      0.582096   150A      0.589388   151A      0.590702  
     152A      0.591225   153A      0.593566   154A      0.598233  
     155A      0.603182   156A      0.608389   157A      0.609435  
     158A      0.610606   159A      0.616391   160A      0.620085  
     161A      0.621151   162A      0.629515   163A      0.633854  
     164A      0.637369   165A      0.640395   166A      0.647033  
     167A      0.652951   168A      0.654584   169A      0.661262  
     170A      0.665367   171A      0.667781   172A      0.675639  
     173A      0.677949   174A      0.683506   175A      0.692032  
     176A      0.697292   177A      0.699488   178A      0.706180  
     179A      0.711406   180A      0.716226   181A      0.721651  
     182A      0.727693   183A      0.730543   184A      0.739218  
     185A      0.742628   186A      0.755227   187A      0.757535  
     188A      0.762292   189A      0.773062   190A      0.778586  
     191A      0.791636   192A      0.795263   193A      0.800908  
     194A      0.806899   195A      0.811069   196A      0.815310  
     197A      0.819656   198A      0.824383   199A      0.826081  
     200A      0.830485   201A      0.836822   202A      0.854850  
     203A      0.855074   204A      0.857493   205A      0.861028  
     206A      0.868413   207A      0.872536   208A      0.878011  
     209A      0.883657   210A      0.889943   211A      0.900263  
     212A      0.904367   213A      0.913920   214A      0.920184  
     215A      0.932589   216A      0.937273   217A      0.940138  
     218A      0.944749   219A      0.954890   220A      0.958561  
     221A      0.963985   222A      0.971727   223A      0.979263  
     224A      0.993471   225A      0.996936   226A      0.997165  
     227A      1.001210   228A      1.006585   229A      1.009329  
     230A      1.012321   231A      1.018284   232A      1.020485  
     233A      1.024430   234A      1.028542   235A      1.037983  
     236A      1.044100   237A      1.050054   238A      1.056750  
     239A      1.057798   240A      1.058496   241A      1.065542  
     242A      1.069819   243A      1.078576   244A      1.082543  
     245A      1.085409   246A      1.090451   247A      1.094647  
     248A      1.096715   249A      1.101015   250A      1.105169  
     251A      1.110137   252A      1.114596   253A      1.116828  
     254A      1.120158   255A      1.125430   256A      1.128245  
     257A      1.133997   258A      1.135326   259A      1.140325  
     260A      1.148010   261A      1.150306   262A      1.157130  
     263A      1.158724   264A      1.162289   265A      1.167967  
     266A      1.171810   267A      1.183195   268A      1.187046  
     269A      1.190773   270A      1.201130   271A      1.201310  
     272A      1.210751   273A      1.218691   274A      1.219061  
     275A      1.229882   276A      1.232621   277A      1.233738  
     278A      1.244451   279A      1.248611   280A      1.252643  
     281A      1.260222   282A      1.261018   283A      1.269963  
     284A      1.274694   285A      1.283678   286A      1.288562  
     287A      1.289860   288A      1.292471   289A      1.301113  
     290A      1.309479   291A      1.312905   292A      1.316444  
     293A      1.318682   294A      1.322457   295A      1.329208  
     296A      1.330746   297A      1.338177   298A      1.341822  
     299A      1.346373   300A      1.348093   301A      1.357158  
     302A      1.366548   303A      1.373081   304A      1.377213  
     305A      1.379372   306A      1.386460   307A      1.393530  
     308A      1.401341   309A      1.405681   310A      1.418063  
     311A      1.422295   312A      1.426306   313A      1.434616  
     314A      1.439171   315A      1.446547   316A      1.451950  
     317A      1.458764   318A      1.463046   319A      1.476152  
     320A      1.484880   321A      1.489873   322A      1.495389  
     323A      1.501976   324A      1.507722   325A      1.513791  
     326A      1.523601   327A      1.533772   328A      1.537033  
     329A      1.548524   330A      1.554989   331A      1.558376  
     332A      1.574397   333A      1.577553   334A      1.593045  
     335A      1.610691   336A      1.614592   337A      1.622153  
     338A      1.627811   339A      1.635197   340A      1.640673  
     341A      1.643468   342A      1.653083   343A      1.674287  
     344A      1.685844   345A      1.688732   346A      1.702890  
     347A      1.707843   348A      1.713268   349A      1.730134  
     350A      1.736597   351A      1.743554   352A      1.746201  
     353A      1.760084   354A      1.768655   355A      1.773181  
     356A      1.782876   357A      1.784963   358A      1.795247  
     359A      1.800988   360A      1.814460   361A      1.816951  
     362A      1.826958   363A      1.830062   364A      1.835480  
     365A      1.838614   366A      1.846149   367A      1.848786  
     368A      1.866071   369A      1.873141   370A      1.886222  
     371A      1.894640   372A      1.905774   373A      1.921817  
     374A      1.922679   375A      1.931020   376A      1.934744  
     377A      1.940792   378A      1.943941   379A      1.951042  
     380A      1.966856   381A      1.971586   382A      1.974439  
     383A      2.002573   384A      2.008561   385A      2.013845  
     386A      2.021606   387A      2.029053   388A      2.039795  
     389A      2.043606   390A      2.053583   391A      2.063055  
     392A      2.067265   393A      2.081335   394A      2.091043  
     395A      2.095485   396A      2.098145   397A      2.108943  
     398A      2.115570   399A      2.121067   400A      2.126461  
     401A      2.132434   402A      2.139107   403A      2.144029  
     404A      2.148672   405A      2.156255   406A      2.160617  
     407A      2.169025   408A      2.176874   409A      2.185134  
     410A      2.193516   411A      2.196274   412A      2.207071  
     413A      2.212730   414A      2.221673   415A      2.229838  
     416A      2.230987   417A      2.238965   418A      2.251777  
     419A      2.257085   420A      2.282475   421A      2.290754  
     422A      2.295507   423A      2.300355   424A      2.306616  
     425A      2.314574   426A      2.316241   427A      2.327000  
     428A      2.330170   429A      2.334457   430A      2.348353  
     431A      2.358287   432A      2.367290   433A      2.375582  
     434A      2.384813   435A      2.404267   436A      2.416648  
     437A      2.419837   438A      2.428340   439A      2.434872  
     440A      2.442588   441A      2.456423   442A      2.465693  
     443A      2.480572   444A      2.491809   445A      2.495757  
     446A      2.501065   447A      2.517855   448A      2.529376  
     449A      2.542810   450A      2.548938   451A      2.567572  
     452A      2.578812   453A      2.582371   454A      2.589839  
     455A      2.600442   456A      2.609136   457A      2.615142  
     458A      2.626524   459A      2.638733   460A      2.653637  
     461A      2.659228   462A      2.681237   463A      2.688941  
     464A      2.705591   465A      2.716027   466A      2.726125  
     467A      2.731934   468A      2.749980   469A      2.771775  
     470A      2.776711   471A      2.791658   472A      2.825179  
     473A      2.831782   474A      2.845594   475A      2.847373  
     476A      2.865193   477A      2.893386   478A      2.899416  
     479A      2.919310   480A      2.925551   481A      2.939877  
     482A      2.957600   483A      2.963715   484A      2.998944  
     485A      3.004081   486A      3.029194   487A      3.037109  
     488A      3.047979   489A      3.090094   490A      3.115607  
     491A      3.132262   492A      3.154762   493A      3.165758  
     494A      3.180247   495A      3.201717   496A      3.204873  
     497A      3.209937   498A      3.228048   499A      3.249113  
     500A      3.252621   501A      3.280461   502A      3.302805  
     503A      3.314734   504A      3.335645   505A      3.351219  
     506A      3.351625   507A      3.357016   508A      3.369251  
     509A      3.386826   510A      3.400335   511A      3.408703  
     512A      3.441953   513A      3.454686   514A      3.458535  
     515A      3.470792   516A      3.474833   517A      3.486559  
     518A      3.496339   519A      3.508786   520A      3.513906  
     521A      3.517058   522A      3.529670   523A      3.537573  
     524A      3.549210   525A      3.564649   526A      3.565861  
     527A      3.581819   528A      3.586178   529A      3.607942  
     530A      3.610351   531A      3.623660   532A      3.629496  
     533A      3.637405   534A      3.643190   535A      3.651630  
     536A      3.662906   537A      3.670313   538A      3.674573  
     539A      3.689901   540A      3.696413   541A      3.699878  
     542A      3.706539   543A      3.721561   544A      3.734265  
     545A      3.742048   546A      3.755835   547A      3.763154  
     548A      3.769063   549A      3.776703   550A      3.783756  
     551A      3.798748   552A      3.805274   553A      3.812463  
     554A      3.819303   555A      3.822118   556A      3.832776  
     557A      3.843247   558A      3.851617   559A      3.859060  
     560A      3.880333   561A      3.886239   562A      3.890767  
     563A      3.909241   564A      3.916456   565A      3.919573  
     566A      3.920829   567A      3.936134   568A      3.942125  
     569A      3.952085   570A      3.962826   571A      3.968280  
     572A      3.982922   573A      3.985350   574A      3.995684  
     575A      4.004667   576A      4.014448   577A      4.025598  
     578A      4.036269   579A      4.050131   580A      4.058789  
     581A      4.064620   582A      4.067469   583A      4.074347  
     584A      4.086672   585A      4.089703   586A      4.095944  
     587A      4.106354   588A      4.118526   589A      4.125811  
     590A      4.129326   591A      4.142557   592A      4.148076  
     593A      4.151978   594A      4.158466   595A      4.171612  
     596A      4.187280   597A      4.191680   598A      4.202442  
     599A      4.205858   600A      4.217533   601A      4.236793  
     602A      4.240680   603A      4.265039   604A      4.278971  
     605A      4.283044   606A      4.285836   607A      4.304467  
     608A      4.315910   609A      4.316689   610A      4.327261  
     611A      4.342138   612A      4.344860   613A      4.354990  
     614A      4.367364   615A      4.373539   616A      4.382853  
     617A      4.391104   618A      4.403102   619A      4.410866  
     620A      4.421116   621A      4.426289   622A      4.431472  
     623A      4.445048   624A      4.464757   625A      4.469383  
     626A      4.477735   627A      4.479586   628A      4.497807  
     629A      4.498362   630A      4.508333   631A      4.510238  
     632A      4.521400   633A      4.529655   634A      4.539508  
     635A      4.548812   636A      4.557086   637A      4.576908  
     638A      4.584828   639A      4.603082   640A      4.607833  
     641A      4.623952   642A      4.631441   643A      4.648908  
     644A      4.660083   645A      4.664286   646A      4.671901  
     647A      4.684913   648A      4.695105   649A      4.723008  
     650A      4.726160   651A      4.741483   652A      4.752021  
     653A      4.762742   654A      4.766933   655A      4.776935  
     656A      4.783797   657A      4.809261   658A      4.815711  
     659A      4.839029   660A      4.860137   661A      4.871673  
     662A      4.890049   663A      4.911537   664A      4.916640  
     665A      4.926779   666A      4.932902   667A      4.954000  
     668A      4.964076   669A      4.991047   670A      4.995144  
     671A      5.001432   672A      5.016964   673A      5.042880  
     674A      5.057999   675A      5.079753   676A      5.092678  
     677A      5.096659   678A      5.113517   679A      5.114011  
     680A      5.132361   681A      5.138571   682A      5.160773  
     683A      5.176888   684A      5.182781   685A      5.197354  
     686A      5.204106   687A      5.227101   688A      5.236540  
     689A      5.248247   690A      5.262278   691A      5.271431  
     692A      5.279438   693A      5.285258   694A      5.287095  
     695A      5.302508   696A      5.309155   697A      5.328641  
     698A      5.337933   699A      5.354149   700A      5.364680  
     701A      5.381459   702A      5.390646   703A      5.429042  
     704A      5.448042   705A      5.455661   706A      5.474259  
     707A      5.482455   708A      5.512644   709A      5.537936  
     710A      5.556767   711A      5.571213   712A      5.575594  
     713A      5.586721   714A      5.621992   715A      5.650057  
     716A      5.676726   717A      5.686708   718A      5.698986  
     719A      5.714898   720A      5.746849   721A      5.770353  
     722A      5.794163   723A      5.823887   724A      5.854895  
     725A      5.861428   726A      5.892270   727A      5.913576  
     728A      5.931167   729A      5.959331   730A      5.969755  
     731A      5.975939   732A      5.995676   733A      6.010834  
     734A      6.029174   735A      6.079689   736A      6.115869  
     737A      6.143129   738A      6.200144   739A      6.263571  
     740A      6.292523   741A      6.321681   742A      6.356303  
     743A      6.390140   744A      6.396525   745A      6.441221  
     746A      6.494047   747A      6.542522   748A      6.581757  
     749A      6.591188   750A      6.622973   751A      6.705244  
     752A      6.714767   753A      6.767996   754A      6.807539  
     755A      6.840689   756A      6.854352   757A      6.866515  
     758A      6.889114   759A      6.909020   760A      6.982598  
     761A      7.001623   762A      7.038148   763A      7.071631  
     764A      7.092734   765A      7.177932   766A      7.196277  
     767A      7.217533   768A      7.297269   769A      7.336761  
     770A      7.346800   771A      7.562253   772A      7.601023  
     773A      7.620525   774A      7.635420   775A      7.919939  
     776A      7.924007   777A      8.015109   778A      8.136740  
     779A      8.209566   780A      9.273043   781A      9.338044  
     782A      9.431560   783A      9.482902   784A      9.564722  
     785A      9.678348   786A      9.692125   787A      9.751353  
     788A      9.839939   789A      9.873103   790A     10.221593  
     791A     10.239605   792A     15.704491   793A     16.043990  
     794A     16.455460   795A     16.979959   796A     17.128797  
     797A     17.400261   798A     18.673130   799A     19.089777  
     800A     19.816355   801A     20.154367   802A     20.543643  
     803A     20.677038   804A     21.023975   805A     21.457254  

    Final Occupation by Irrep:
              A 
    DOCC [    49 ]

  Energy converged.

  @DF-RHF Final Energy:  -649.60185497904206

   => Energetics <=

    Nuclear Repulsion Energy =            805.3029029272711341
    One-Electron Energy =               -2499.7465277185742707
    Two-Electron Energy =                1044.8417698122611910
    DFT Exchange-Correlation Energy =       0.0000000000000000
    Empirical Dispersion Energy =           0.0000000000000000
    PCM Polarization Energy =               0.0000000000000000
    EFP Energy =                            0.0000000000000000
    Total Energy =                       -649.6018549790419456



Properties will be evaluated at   0.000000,   0.000000,   0.000000 Bohr

Properties computed using the SCF density matrix

  Nuclear Dipole Moment: (a.u.)
     X:     0.9320      Y:    -0.2981      Z:    -6.8823

  Electronic Dipole Moment: (a.u.)
     X:     1.4003      Y:    -0.9354      Z:     5.3861

  Dipole Moment: (a.u.)
     X:     2.3323      Y:    -1.2335      Z:    -1.4962     Total:     3.0331

  Dipole Moment: (Debye)
     X:     5.9282      Y:    -3.1352      Z:    -3.8030     Total:     7.7095


*** tstop() called on gpu-2-8.local at Mon Nov 13 12:38:00 2017
Module time:
	user time   =    1088.11 seconds =      18.14 minutes
	system time =      51.41 seconds =       0.86 minutes
	total time  =        444 seconds =       7.40 minutes
Total time:
	user time   =    1088.12 seconds =      18.14 minutes
	system time =      51.41 seconds =       0.86 minutes
	total time  =        444 seconds =       7.40 minutes

  //>>>>>>>>>>>>>>>>>>>>>>>>>>>>>>>>>>>//
  //               DFMP2               //
  //<<<<<<<<<<<<<<<<<<<<<<<<<<<<<<<<<<<//

   => Loading Basis Set <=

    Name: (AUG-CC-PVTZ AUX)
    Role: RIFIT
    Keyword: DF_BASIS_MP2
    atoms 1-11  entry C          line   147 file /cbio/jclab/home/chayas/anaconda/envs/py35/share/psi4/basis/aug-cc-pvtz-ri.gbs 
    atoms 12    entry N          line   205 file /cbio/jclab/home/chayas/anaconda/envs/py35/share/psi4/basis/aug-cc-pvtz-ri.gbs 
    atoms 13    entry O          line   263 file /cbio/jclab/home/chayas/anaconda/envs/py35/share/psi4/basis/aug-cc-pvtz-ri.gbs 
    atoms 14    entry F          line   321 file /cbio/jclab/home/chayas/anaconda/envs/py35/share/psi4/basis/aug-cc-pvtz-ri.gbs 
    atoms 15-21 entry H          line    29 file /cbio/jclab/home/chayas/anaconda/envs/py35/share/psi4/basis/aug-cc-pvtz-ri.gbs 

	 --------------------------------------------------------
	                          DF-MP2                         
	      2nd-Order Density-Fitted Moller-Plesset Theory     
	              RMP2 Wavefunction,   8 Threads             
	                                                         
	        Rob Parrish, Justin Turney, Andy Simmonett,      
	           Ed Hohenstein, and C. David Sherrill          
	 --------------------------------------------------------

   => Auxiliary Basis Set <=

  Basis Set: (AUG-CC-PVTZ AUX)
    Blend: AUG-CC-PVTZ-RI
    Number of shells: 490
    Number of basis function: 1806
    Number of Cartesian functions: 2289
    Spherical Harmonics?: true
    Max angular momentum: 4

	 --------------------------------------------------------
	                 NBF =   805, NAUX =  1806
	 --------------------------------------------------------
	   CLASS    FOCC     OCC    AOCC    AVIR     VIR    FVIR
	   PAIRS       0      49      49     756     756       0
	 --------------------------------------------------------


         ------------------------------------------------------------
                                     CPHF                           
                                  Rob Parrish                       
         ------------------------------------------------------------

  ==> Geometry <==

    Molecular point group: c1
    Full point group: C1

    Geometry (in Angstrom), charge = -1, multiplicity = 1:

       Center              X                  Y                   Z               Mass       
    ------------   -----------------  -----------------  -----------------  -----------------
           C         -1.345152517874     0.767848021823    -0.781143726409    12.000000000000
           C         -2.423152517874     1.340848021823    -0.108143726409    12.000000000000
           C          1.977847482126    -0.732151978177    -0.080143726409    12.000000000000
           C          0.714847482126    -0.682151978177    -2.126143726409    12.000000000000
           C         -1.430152517874     0.724848021823     2.006856273591    12.000000000000
           C          3.016847482126    -1.300151978177    -0.798143726409    12.000000000000
           C          1.811847482126    -1.252151978177    -2.753143726409    12.000000000000
           C         -0.309152517874     0.172848021823    -0.061143726409    12.000000000000
           C          0.807847482126    -0.420151978177    -0.764143726409    12.000000000000
           C         -2.466152517874     1.319848021823     1.285856273591    12.000000000000
           C         -0.352152517874     0.151848021823     1.332856273591    12.000000000000
           N          2.963847482126    -1.569151978177    -2.122143726409    14.003074004780
           O         -3.457152517874     1.846848021823     1.904856273591    15.994914619560
           F          0.635847482126    -0.416151978177     2.039856273591    18.998403224000
           H         -1.326152517874     0.790848021823    -1.869143726409     1.007825032070
           H         -3.219152517874     1.796848021823    -0.694143726409     1.007825032070
           H          2.086847482126    -0.543151978177     0.982856273591     1.007825032070
           H         -0.181152517874    -0.452151978177    -2.693143726409     1.007825032070
           H         -1.439152517874     0.694848021823     3.094856273591     1.007825032070
           H          3.949847482126    -1.563151978177    -0.311143726409     1.007825032070
           H          1.789847482126    -1.475151978177    -3.815143726409     1.007825032070

  Nuclear repulsion =  805.302902927271134
  Reference energy  = -649.601854979042059

  ==> Basis Set <==

  Basis Set: AUG-CC-PVTZ
    Blend: AUG-CC-PVTZ
    Number of shells: 259
    Number of basis function: 805
    Number of Cartesian functions: 945
    Spherical Harmonics?: true
    Max angular momentum: 3

  ==> CGRSolver (by Rob Parrish) <==

   Number of roots    =         1
   Preconditioning    =    JACOBI
   Convergence cutoff =     1E-06
   Maximum iterations =       100

  ==> CPHFRHamiltonian (by Rob Parrish) <== 

  ==> DFJK: Density-Fitted J/K Matrices <==

    J tasked:                  Yes
    K tasked:                  Yes
    wK tasked:                  No
    OpenMP threads:              8
    Integrals threads:           8
    Memory (MB):              3576
    Algorithm:                Disk
    Integral Cache:           NONE
    Schwarz Cutoff:          1E-12
    Fitting Condition:       1E-12

   => Auxiliary Basis Set <=

  Basis Set: (AUG-CC-PVTZ AUX)
    Blend: AUG-CC-PVTZ-JKFIT
    Number of shells: 518
    Number of basis function: 1778
    Number of Cartesian functions: 2219
    Spherical Harmonics?: true
    Max angular momentum: 4

  ==> CPHF Iterations <==

  => Iterations <=

             Iter  Converged  Remaining    Residual
  CGR           1          0          1   1.356E-01
  CGR           2          0          1   5.094E-02
  CGR           3          0          1   3.073E-02
  CGR           4          0          1   1.151E-02
  CGR           5          0          1   5.489E-03
  CGR           6          0          1   2.757E-03
  CGR           7          0          1   1.077E-03
  CGR           8          0          1   4.124E-04
  CGR           9          0          1   1.340E-04
  CGR          10          0          1   3.857E-05
  CGR          11          0          1   1.456E-05
  CGR          12          0          1   3.665E-06
  CGR          13          0          1   1.421E-06
  CGR          14          1          0   6.983E-07

    CGRSolver converged.

  ==> DFCorrGrad: Density-Fitted Correlated Gradients <==

    OpenMP threads:              8
    Integrals threads:           8
    Memory (MB):              3576
    Schwarz Cutoff:          0E+00
    Fitting Condition:       1E-12

   => Auxiliary Basis Set <=

  Basis Set: (AUG-CC-PVTZ AUX)
    Blend: AUG-CC-PVTZ-JKFIT
    Number of shells: 518
    Number of basis function: 1778
    Number of Cartesian functions: 2219
    Spherical Harmonics?: true
    Max angular momentum: 4

	-----------------------------------------------------------
	 ==================> DF-MP2 Energies <==================== 
	-----------------------------------------------------------
	 Reference Energy          =    -649.6018549790420593 [Eh]
	 Singles Energy            =      -0.0000000000000004 [Eh]
	 Same-Spin Energy          =      -0.6876272948611292 [Eh]
	 Opposite-Spin Energy      =      -2.0283292856220383 [Eh]
	 Correlation Energy        =      -2.7159565804831680 [Eh]
	 Total Energy              =    -652.3178115595252393 [Eh]
	-----------------------------------------------------------
	 ================> DF-SCS-MP2 Energies <================== 
	-----------------------------------------------------------
	 SCS Same-Spin Scale       =       0.3333333333333333 [-]
	 SCS Opposite-Spin Scale   =       1.2000000000000000 [-]
	 SCS Same-Spin Energy      =      -0.2292090982870431 [Eh]
	 SCS Opposite-Spin Energy  =      -2.4339951427464457 [Eh]
	 SCS Correlation Energy    =      -2.6632042410334891 [Eh]
	 SCS Total Energy          =    -652.2650592200755000 [Eh]
	-----------------------------------------------------------


  -Total Gradient:
     Atom            X                  Y                   Z
    ------   -----------------  -----------------  -----------------
       1        0.024483471993    -0.010645040742    -0.013883023910
       2       -0.023696264807     0.011809051662     0.043252865664
       3       -0.023016603907     0.008910587998     0.008750764118
       4       -0.015886675408     0.007201882372     0.009868844789
       5       -0.045468588700     0.025429035262    -0.002415781036
       6        0.001894797295     0.001821103713     0.012665222013
       7       -0.007155852962     0.000887380699    -0.004456064232
       8       -0.026503480790     0.013800225420     0.011306531760
       9        0.023218588241    -0.011300025380    -0.015286382803
      10        0.049208534523    -0.025655900333    -0.030931707300
      11        0.045410779845    -0.028464791525     0.001105639177
      12        0.005194411783    -0.002171005777    -0.003696805948
      13       -0.004028964176     0.002025399608     0.001470250784
      14        0.003178070620     0.005240168167    -0.019709632159
      15       -0.001174271488    -0.000855836233    -0.007761935064
      16       -0.002158058194     0.000953701529    -0.008951530765
      17       -0.004083069729     0.001371833181     0.016491231486
      18       -0.005434764776     0.003152736111    -0.003294050954
      19        0.003858817515    -0.002139492578     0.007038782489
      20        0.001482493852    -0.000880165182     0.000086316057
      21        0.000676629265    -0.000490847973    -0.001649534174


*** tstop() called on gpu-2-8.local at Mon Nov 13 13:09:42 2017
Module time:
	user time   =    5016.72 seconds =      83.61 minutes
	system time =     109.38 seconds =       1.82 minutes
	total time  =       2346 seconds =      39.10 minutes
Total time:
	user time   =    5016.73 seconds =      83.61 minutes
	system time =     109.38 seconds =       1.82 minutes
	total time  =       2346 seconds =      39.10 minutes

			-----------------------------------------
			 OPTKING 2.0: for geometry optimizations 
			  - R.A. King,  Bethel University        
			-----------------------------------------
	At level 1: Red. Int., RFO, no backsteps, dynamic trust

	Internal coordinates to be generated automatically.
	Detected frag 1 with atoms:  1 2 3 4 5 6 7 8 9 10 11 12 13 14 15 16 17 18 19 20
	 21
	---Fragment 1 Bond Connectivity---
	 1 : 2 8 15
	 2 : 1 10 16
	 3 : 6 9 17
	 4 : 7 9 18
	 5 : 10 11 19
	 6 : 3 12 20
	 7 : 4 12 21
	 8 : 1 9 11
	 9 : 3 4 8
	 10 : 2 5 13
	 11 : 5 8 14
	 12 : 6 7
	 13 : 10
	 14 : 11
	 15 : 1
	 16 : 2
	 17 : 3
	 18 : 4
	 19 : 5
	 20 : 6
	 21 : 7

	Assuming in current code that numbering for constraints corresponds to unified fragment.
	Fixed dihedral atom list: 
	     1     8     9     3
	---Fragment 1 Geometry and Gradient---
	 C          -2.5419698657        1.4510224729       -1.4761477133
	 C          -4.5790946370        2.5338355471       -0.2043620259
	 C           3.7375900738       -1.3835667264       -0.1514496942
	 C           1.3508659680       -1.2890804198       -4.0178293621
	 C          -2.7025965870        1.3697642492        3.7924087452
	 C           5.7010155259       -2.4569311699       -1.5082730576
	 C           3.4238955358       -2.3662243155       -5.2026876474
	 C          -0.5842135921        0.3266354239       -0.1155448977
	 C           1.5266104984       -0.7939721729       -1.4440223691
	 C          -4.6603528607        2.4941512983        2.4299162033
	 C          -0.6654718158        0.2869511751        2.5187333316
	 N           5.6008600409       -2.9652674996       -4.0102704575
	 O          -6.5330714584        3.4900369703        3.5996566796
	 F           1.2015776035       -0.7864132684        3.8547697075
	 H          -2.5060650692        1.4944861740       -3.5321697459
	 H          -6.0833166388        3.3955506637       -1.3117415398
	 H           3.9435702223       -1.0264084873        1.8573291851
	 H          -0.3423286471       -0.8544434092       -5.0893040794
	 H          -2.7196041222        1.3130724652        5.8484307777
	 H           7.4641300079       -2.9539291428       -0.5879764309
	 H           3.3823215609       -2.7876332431       -7.2095768005
	             0.0244834720       -0.0106450407       -0.0138830239
	            -0.0236962648        0.0118090517        0.0432528657
	            -0.0230166039        0.0089105880        0.0087507641
	            -0.0158866754        0.0072018824        0.0098688448
	            -0.0454685887        0.0254290353       -0.0024157810
	             0.0018947973        0.0018211037        0.0126652220
	            -0.0071558530        0.0008873807       -0.0044560642
	            -0.0265034808        0.0138002254        0.0113065318
	             0.0232185882       -0.0113000254       -0.0152863828
	             0.0492085345       -0.0256559003       -0.0309317073
	             0.0454107798       -0.0284647915        0.0011056392
	             0.0051944118       -0.0021710058       -0.0036968059
	            -0.0040289642        0.0020253996        0.0014702508
	             0.0031780706        0.0052401682       -0.0197096322
	            -0.0011742715       -0.0008558362       -0.0077619351
	            -0.0021580582        0.0009537015       -0.0089515308
	            -0.0040830697        0.0013718332        0.0164912315
	            -0.0054347648        0.0031527361       -0.0032940510
	             0.0038588175       -0.0021394926        0.0070387825
	             0.0014824939       -0.0008801652        0.0000863161
	             0.0006766293       -0.0004908480       -0.0016495342

	Previous optimization step data not found.  Starting new optimization.

	---Fragment 1 Intrafragment Coordinates---
	 - Coordinate -           - BOHR/RAD -       - ANG/DEG -
	 R(1,2)           =         2.634350	       1.394038
	 R(1,8)           =         2.635962	       1.394891
	 R(1,15)          =         2.056795	       1.088409
	 R(2,10)          =         2.635830	       1.394821
	 R(2,16)          =         2.057067	       1.088553
	 R(3,6)           =         2.616891	       1.384799
	 R(3,9)           =         2.628078	       1.390719
	 R(3,17)          =         2.050654	       1.085159
	 R(4,7)           =         2.619462	       1.386159
	 R(4,9)           =         2.626880	       1.390085
	 R(4,18)          =         2.050335	       1.084991
	 R(5,10)          =         2.636938	       1.395407
	 R(5,11)          =         2.635263	       1.394521
	 R(5,19)          =         2.056874	       1.088451
	 R(6,12)          =         2.555079	       1.352089
	 R(6,20)          =         2.050006	       1.084817
	 R(7,12)          =         2.553407	       1.351205
	 R(7,21)          =         2.051077	       1.085383
	 R(8,9)           =         2.734263	       1.446909
	 R(8,11)          =         2.635830	       1.394821
	 R(10,13)         =         2.422221	       1.281784
	 R(11,14)         =         2.534359	       1.341125
	 B(1,2,10)        =         2.094553	     120.009056
	 B(1,2,16)        =         2.068903	     118.539404
	 B(1,8,9)         =         2.091392	     119.827938
	 B(1,8,11)        =         2.093692	     119.959722
	 B(2,1,8)         =         2.094940	     120.031219
	 B(2,1,15)        =         2.079908	     119.169966
	 B(2,10,5)        =         2.094306	     119.994870
	 B(2,10,13)       =         2.094719	     120.018581
	 B(3,6,12)        =         2.165071	     124.049459
	 B(3,6,20)        =         2.108270	     120.794981
	 B(3,9,4)         =         2.089662	     119.728809
	 B(3,9,8)         =         2.097227	     120.162276
	 B(4,7,12)        =         2.165134	     124.053042
	 B(4,7,21)        =         2.107177	     120.732374
	 B(4,9,8)         =         2.096295	     120.108846
	 B(5,10,13)       =         2.094160	     119.986548
	 B(5,11,8)        =         2.095181	     120.045019
	 B(5,11,14)       =         2.081414	     119.256220
	 B(6,3,9)         =         2.058074	     117.918968
	 B(6,3,17)        =         2.098989	     120.263231
	 B(6,12,7)        =         2.030892	     116.361525
	 B(7,4,9)         =         2.057537	     117.888174
	 B(7,4,18)        =         2.099407	     120.287138
	 B(8,1,15)        =         2.108336	     120.798746
	 B(8,11,14)       =         2.106591	     120.698759
	 B(9,3,17)        =         2.126121	     121.817761
	 B(9,4,18)        =         2.126241	     121.824660
	 B(9,8,11)        =         2.098101	     120.212327
	 B(10,2,16)       =         2.119728	     121.451467
	 B(10,5,11)       =         2.093699	     119.960108
	 B(10,5,19)       =         2.120101	     121.472852
	 B(11,5,19)       =         2.069385	     118.567038
	 B(12,6,20)       =         2.009843	     115.155546
	 B(12,7,21)       =         2.010874	     115.214583
	 D(1,2,10,5)      =        -0.000325	      -0.018609
	 D(1,2,10,13)     =         3.141392	     179.988520
	 D(1,8,9,3)       =         2.879663	     164.992542
	 D(1,8,9,4)       =        -0.263596	     -15.102935
	 D(1,8,11,5)      =         0.000325	       0.018608
	 D(1,8,11,14)     =        -3.141528	    -179.996269
	 D(2,1,8,9)       =        -3.141211	    -179.978157
	 D(2,1,8,11)      =        -0.000348	      -0.019945
	 D(2,10,5,11)     =         0.000301	       0.017261
	 D(2,10,5,19)     =        -3.141543	    -179.997173
	 D(3,6,12,7)      =        -0.000185	      -0.010589
	 D(3,9,4,7)       =        -0.000530	      -0.030347
	 D(3,9,4,18)      =        -3.141061	    -179.969513
	 D(3,9,8,11)      =        -0.261198	     -14.965564
	 D(4,7,12,6)      =        -0.000600	      -0.034393
	 D(4,9,3,6)       =        -0.000173	      -0.009929
	 D(4,9,3,17)      =        -3.140503	    -179.937556
	 D(4,9,8,11)      =         2.878728	     164.938959
	 D(5,10,2,16)     =         3.139529	     179.881752
	 D(5,11,8,9)      =         3.141185	     179.976658
	 D(6,3,9,8)       =         3.139759	     179.894958
	 D(6,12,7,21)     =         3.140782	     179.953543
	 D(7,4,9,8)       =        -3.140463	    -179.935285
	 D(7,12,6,20)     =         3.140667	     179.946952
	 D(8,1,2,10)      =         0.000348	       0.019955
	 D(8,1,2,16)      =        -3.139556	    -179.883288
	 D(8,9,3,17)      =        -0.000570	      -0.032670
	 D(8,9,4,18)      =         0.002191	       0.125549
	 D(8,11,5,10)     =        -0.000301	      -0.017270
	 D(8,11,5,19)     =         3.141536	     179.996748
	 D(9,3,6,12)      =         0.000560	       0.032069
	 D(9,3,6,20)      =        -3.140252	    -179.923190
	 D(9,4,7,12)      =         0.000958	       0.054880
	 D(9,4,7,21)      =        -3.140413	    -179.932422
	 D(9,8,1,15)      =         0.002066	       0.118384
	 D(9,8,11,14)     =        -0.000667	      -0.038219
	 D(10,2,1,15)     =         3.140283	     179.924984
	 D(10,5,11,14)    =         3.141547	     179.997392
	 D(11,5,10,13)    =        -3.141416	    -179.989865
	 D(11,8,1,15)     =        -3.140256	    -179.923403
	 D(12,6,3,17)     =         3.140910	     179.960869
	 D(12,7,4,18)     =         3.141506	     179.995021
	 D(13,10,2,16)    =        -0.001939	      -0.111119
	 D(13,10,5,19)    =        -0.000075	      -0.004300
	 D(14,11,5,19)    =         0.000199	       0.011410
	 D(15,1,2,16)     =         0.000379	       0.021741
	 D(17,3,6,20)     =         0.000098	       0.005609
	 D(18,4,7,21)     =         0.000135	       0.007719
	 R(3,14)          =         4.778885	       2.528877

	Current energy   :      -652.3178115595

	Generating empirical Hessian (Schlegel '84) for each fragment.
	Adding user-defined constraint: Fragment 1; Coordinate 59:
		Value =     2.879663; Fixed value    =     2.879793
		Force =     0.000065; Force constant =     0.500000
	Removing off-diagonal coupling between coordinate 59 and others.
	Taking RFO optimization step.
	Going to follow RFO solution 1.
	Using RFO vector 1.

	Determining step-restricting scale parameter for RS-RFO.
	Maximum step size allowed    0.10000

	 Iter      |step|        alpha        rfo_root  
	------------------------------------------------
	    0     0.42636       1.00000           1
	    1     0.28511       3.89529           1
	    2     0.19649      11.80337           1
	    3     0.14248      28.21863           1
	    4     0.11357      50.07745           1
	    5     0.10216      64.83486           1
	    6     0.10007      68.14979           1
	    7     0.10000      68.26622           1
	------------------------------------------------
	Norm of target step-size    0.10000
	Projected energy change by RFO approximation:        -0.0084832142

	Back-transformation to cartesian coordinates...
	Could not converge backtransformation.
	Using first guess instead.

	--- Internal Coordinate Step in ANG or DEG, aJ/ANG or AJ/DEG ---
	 ---------------------------------------------------------------------------
	   Coordinate                Previous        Force       Change         New 
	   ----------                --------       ------       ------       ------
	    1 R(1,2)          =      1.394038    -0.083214    -0.005036     1.389002
	    2 R(1,8)          =      1.394891     0.079203     0.004833     1.399724
	    3 R(1,15)         =      1.088409    -0.063607    -0.004325     1.084084
	    4 R(2,10)         =      1.394821     0.215941     0.013388     1.408209
	    5 R(2,16)         =      1.088553    -0.055995    -0.003821     1.084732
	    6 R(3,6)          =      1.384799     0.012878     0.000812     1.385612
	    7 R(3,9)          =      1.390719     0.107558     0.006865     1.397585
	    8 R(3,17)         =      1.085159    -0.131682    -0.008860     1.076300
	    9 R(4,7)          =      1.386159    -0.019042    -0.001194     1.384965
	   10 R(4,9)          =      1.390085     0.082006     0.005379     1.395464
	   11 R(4,18)         =      1.084991    -0.056664    -0.003794     1.081197
	   12 R(5,10)         =      1.395407     0.188725     0.011859     1.407266
	   13 R(5,11)         =      1.394521    -0.138421    -0.008361     1.386160
	   14 R(5,19)         =      1.088451    -0.058189    -0.003933     1.084517
	   15 R(6,12)         =      1.352089    -0.105973    -0.006173     1.345917
	   16 R(6,20)         =      1.084817    -0.012582    -0.000852     1.083965
	   17 R(7,12)         =      1.351205    -0.111841    -0.006561     1.344643
	   18 R(7,21)         =      1.085383    -0.014015    -0.000949     1.084434
	   19 R(8,9)          =      1.446909     0.097054     0.006597     1.453506
	   20 R(8,11)         =      1.394821    -0.001663     0.000023     1.394844
	   21 R(10,13)        =      1.281784    -0.038374    -0.001859     1.279926
	   22 R(11,14)        =      1.341125     0.084947     0.004740     1.345865
	   23 B(1,2,10)       =    120.009056     0.000622     0.597308   120.606365
	   24 B(1,2,16)       =    118.539404     0.000180     0.191916   118.731320
	   25 B(1,8,9)        =    119.827938     0.001259     1.109859   120.937797
	   26 B(1,8,11)       =    119.959722    -0.001595    -1.502763   118.456959
	   27 B(2,1,8)        =    120.031219     0.000888     0.807466   120.838685
	   28 B(2,1,15)       =    119.169966    -0.000393    -0.355137   118.814829
	   29 B(2,10,5)       =    119.994870    -0.001867    -1.621775   118.373095
	   30 B(2,10,13)      =    120.018581     0.001015     0.885993   120.904574
	   31 B(3,6,12)       =    124.049459     0.000511     0.449349   124.498809
	   32 B(3,6,20)       =    120.794981    -0.000314    -0.283223   120.511758
	   33 B(3,9,4)        =    119.728809    -0.001807    -1.571146   118.157664
	   34 B(3,9,8)        =    120.162276     0.000997     0.903749   121.066024
	   35 B(4,7,12)       =    124.053042     0.000268     0.203384   124.256426
	   36 B(4,7,21)       =    120.732374    -0.000190    -0.157520   120.574854
	   37 B(4,9,8)        =    120.108846     0.000809     0.667345   120.776191
	   38 B(5,10,13)      =    119.986548     0.000852     0.735780   120.722328
	   39 B(5,11,8)       =    120.045019     0.001564     1.357850   121.402869
	   40 B(5,11,14)      =    119.256220    -0.000328    -0.309738   118.946482
	   41 B(6,3,9)        =    117.918968     0.000451     0.459432   118.378401
	   42 B(6,3,17)       =    120.263231    -0.000598    -0.611507   119.651725
	   43 B(6,12,7)       =    116.361525    -0.000302    -0.377283   115.984242
	   44 B(7,4,9)        =    117.888174     0.000878     0.836266   118.724440
	   45 B(7,4,18)       =    120.287138    -0.000497    -0.480308   119.806830
	   46 B(8,1,15)       =    120.798746    -0.000495    -0.452261   120.346485
	   47 B(8,11,14)      =    120.698759    -0.001236    -1.048392   119.650367
	   48 B(9,3,17)       =    121.817761     0.000147     0.152027   121.969788
	   49 B(9,4,18)       =    121.824660    -0.000381    -0.355934   121.468726
	   50 B(9,8,11)       =    120.212327     0.000336     0.392907   120.605234
	   51 B(10,2,16)      =    121.451467    -0.000802    -0.789210   120.662257
	   52 B(10,5,11)      =    119.960108     0.000388     0.361887   120.321996
	   53 B(10,5,19)      =    121.472852    -0.000536    -0.520237   120.952615
	   54 B(11,5,19)      =    118.567038     0.000148     0.158351   118.725389
	   55 B(12,6,20)      =    115.155546    -0.000197    -0.166113   114.989433
	   56 B(12,7,21)      =    115.214583    -0.000078    -0.045867   115.168716
	   57 D(1,2,10,5)     =     -0.018609     0.000002     0.008528    -0.010081
	   58 D(1,2,10,13)    =    179.988520     0.000003     0.018758   180.007278
	   59 D(1,8,9,3)      =    164.992542    -0.000026    -0.113393   164.879149
	   60 D(1,8,9,4)      =    -15.102935    -0.000031    -0.146674   -15.249609
	   61 D(1,8,11,5)     =      0.018608    -0.000002    -0.018608     0.000000
	   62 D(1,8,11,14)    =   -179.996269    -0.000036    -0.198863  -180.195132
	   63 D(2,1,8,9)      =   -179.978157    -0.000002    -0.017022  -179.995180
	   64 D(2,1,8,11)     =     -0.019945     0.000010     0.062883     0.042938
	   65 D(2,10,5,11)    =      0.017261     0.000006     0.035310     0.052572
	   66 D(2,10,5,19)    =   -179.997173     0.000010     0.057994  -179.939179
	   67 D(3,6,12,7)     =     -0.010589     0.000007     0.036306     0.025717
	   68 D(3,9,4,7)      =     -0.030347     0.000000     0.000299    -0.030049
	   69 D(3,9,4,18)     =   -179.969513    -0.000015    -0.082365  -180.051877
	   70 D(3,9,8,11)     =    -14.965564    -0.000038    -0.194224   -15.159787
	   71 D(4,7,12,6)     =     -0.034393    -0.000003    -0.014391    -0.048784
	   72 D(4,9,3,6)      =     -0.009929     0.000003     0.019182     0.009253
	   73 D(4,9,3,17)     =   -179.937556    -0.000030    -0.160625  -180.098181
	   74 D(4,9,8,11)     =    164.938959    -0.000043    -0.227504   164.711455
	   75 D(5,10,2,16)    =    179.881752     0.000004     0.019004   179.900756
	   76 D(5,11,8,9)     =    179.976658     0.000010     0.061442   180.038100
	   77 D(6,3,9,8)      =    179.894958    -0.000001    -0.011180   179.883778
	   78 D(6,12,7,21)    =    179.953543     0.000004     0.022698   179.976241
	   79 D(7,4,9,8)      =   -179.935285     0.000004     0.030332  -179.904953
	   80 D(7,12,6,20)    =    179.946952     0.000014     0.070647   180.017600
	   81 D(8,1,2,10)     =      0.019955    -0.000010    -0.057911    -0.037956
	   82 D(8,1,2,16)     =   -179.883288    -0.000012    -0.067203  -179.950491
	   83 D(8,9,3,17)     =     -0.032670    -0.000034    -0.190986    -0.223656
	   84 D(8,9,4,18)     =      0.125549    -0.000011    -0.052332     0.073218
	   85 D(8,11,5,10)    =     -0.017270    -0.000006    -0.030962    -0.048232
	   86 D(8,11,5,19)    =    179.996748    -0.000010    -0.053046   179.943701
	   87 D(9,3,6,12)     =      0.032069    -0.000007    -0.039399    -0.007330
	   88 D(9,3,6,20)     =   -179.923190    -0.000014    -0.075599  -179.998789
	   89 D(9,4,7,12)     =      0.054880    -0.000000    -0.002463     0.052417
	   90 D(9,4,7,21)     =   -179.932422    -0.000008    -0.041467  -179.973889
	   91 D(9,8,1,15)     =      0.118384    -0.000022    -0.124812    -0.006428
	   92 D(9,8,11,14)    =     -0.038219    -0.000024    -0.118927    -0.157146
	   93 D(10,2,1,15)    =    179.924984     0.000009     0.048138   179.973122
	   94 D(10,5,11,14)   =    179.997392     0.000027     0.148280   180.145672
	   95 D(11,5,10,13)   =   -179.989865     0.000005     0.025111  -179.964755
	   96 D(11,8,1,15)    =   -179.923403    -0.000009    -0.044907  -179.968310
	   97 D(12,6,3,17)    =    179.960869     0.000025     0.136674   180.097543
	   98 D(12,7,4,18)    =    179.995021     0.000015     0.078853   180.073874
	   99 D(13,10,2,16)   =     -0.111119     0.000005     0.029234    -0.081885
	  100 D(13,10,5,19)   =     -0.004300     0.000009     0.047794     0.043494
	  101 D(14,11,5,19)   =      0.011410     0.000023     0.126195     0.137605
	  102 D(15,1,2,16)    =      0.021741     0.000007     0.038847     0.060588
	  103 D(17,3,6,20)    =      0.005609     0.000018     0.100474     0.106083
	  104 D(18,4,7,21)    =      0.007719     0.000008     0.039849     0.047568
	  105 R(3,14)         =      2.528877     0.180395     0.018369     2.547247
	 ---------------------------------------------------------------------------
	Successfully symmetrized geometry.
	 Forces used to impose fixed constraints are not included.
	  Forces zeroed: 59 

  ==> Convergence Check <==

  Measures of convergence in internal coordinates in au.
  Criteria marked as inactive (o), active & met (*), and active & unmet ( ).
  --------------------------------------------------------------------------------------------- ~
   Step     Total Energy     Delta E     MAX Force     RMS Force      MAX Disp      RMS Disp    ~
  --------------------------------------------------------------------------------------------- ~
    Convergence Criteria    1.00e-06 *    3.00e-04 *             o    1.20e-03 *             o  ~
  --------------------------------------------------------------------------------------------- ~
      1    -652.31781156   -6.52e+02      2.62e-02      8.53e-03 o    3.47e-02      9.76e-03 o  ~
  ---------------------------------------------------------------------------------------------

	Writing optimization data to binary file.
	Structure for next step:
	Cartesian Geometry (in Angstrom)
	    C    -1.3634389995   0.7803126612  -0.7710142735
	    C    -2.4377971388   1.3509171386  -0.1005737288
	    C     1.9920310955  -0.7374618058  -0.0900712776
	    C     0.7374791242  -0.6939915618  -2.1310134495
	    C    -1.4399168736   0.7275700223   2.0119126839
	    C     3.0288851297  -1.3076588053  -0.8109931742
	    C     1.8342014576  -1.2657208811  -2.7542747683
	    C    -0.3152117283   0.1782072684  -0.0653819296
	    C     0.8101199313  -0.4194461043  -0.7647524935
	    C    -2.4953222248   1.3347962415   1.3063671836
	    C    -0.3743368578   0.1632850576   1.3281284430
	    N     2.9814930254  -1.5811996455  -2.1279672803
	    O    -3.4826348852   1.8587554267   1.9299774635
	    F     0.6186804588  -0.4128161146   2.0305368535
	    H    -1.3490300018   0.8087330420  -1.8546299877
	    H    -3.2318812997   1.8076500982  -0.6814938935
	    H     2.1151428314  -0.5507572487   0.9627373732
	    H    -0.1510637078  -0.4706805724  -2.7051300646
	    H    -1.4419710444   0.6906686644   3.0958001582
	    H     3.9608159820  -1.5680712780  -0.3224549677
	    H     1.8105528505  -1.4912831450  -3.8147271247
			--------------------------
			 OPTKING Finished Execution 
			--------------------------

    Structure for next step:
    Molecular point group: c1
    Full point group: C1

    Geometry (in Angstrom), charge = -1, multiplicity = 1:

    C           -1.359428613010     0.778738369006    -0.772009593325
    C           -2.433786752334     1.349342846376    -0.101569048615
    C            1.996041481991    -0.739036097993    -0.091066597356
    C            0.741489510706    -0.695565854047    -2.132008769311
    C           -1.435906487055     0.725995730108     2.010917364083
    C            3.032895516171    -1.309233097538    -0.811988493980
    C            1.838211844099    -1.267295173296    -2.755270088097
    C           -0.311201341779     0.176632976223    -0.066377249376
    C            0.814130317800    -0.421020396525    -0.765747813257
    C           -2.491311838284     1.333221949301     1.305371863856
    C           -0.370326471294     0.161710765353     1.327133123198
    N            2.985503411870    -1.582773937659    -2.128962600125
    O           -3.478624498713     1.857181134503     1.928982143743
    F            0.622690845255    -0.414390406785     2.029541533747
    H           -1.345019615313     0.807158749836    -1.855625307475
    H           -3.227870913217     1.806075805983    -0.682489213303
    H            2.119153217873    -0.552331540914     0.961742053385
    H           -0.147053321308    -0.472254864579    -2.706125384409
    H           -1.437960657869     0.689094372165     3.094804838436
    H            3.964826368491    -1.569645570220    -0.323450287486
    H            1.814563237003    -1.492857437214    -3.815722444533

gradient() will perform analytic gradient computation.

*** tstart() called on gpu-2-8.local
*** at Mon Nov 13 13:09:43 2017

    SCF Algorithm Type (re)set to DF.

*** tstart() called on gpu-2-8.local
*** at Mon Nov 13 13:09:43 2017

   => Loading Basis Set <=

    Name: AUG-CC-PVTZ
    Role: ORBITAL
    Keyword: BASIS
    atoms 1-11  entry C          line   221 file /cbio/jclab/home/chayas/anaconda/envs/py35/share/psi4/basis/aug-cc-pvtz.gbs 
    atoms 12    entry N          line   267 file /cbio/jclab/home/chayas/anaconda/envs/py35/share/psi4/basis/aug-cc-pvtz.gbs 
    atoms 13    entry O          line   313 file /cbio/jclab/home/chayas/anaconda/envs/py35/share/psi4/basis/aug-cc-pvtz.gbs 
    atoms 14    entry F          line   359 file /cbio/jclab/home/chayas/anaconda/envs/py35/share/psi4/basis/aug-cc-pvtz.gbs 
    atoms 15-21 entry H          line    34 file /cbio/jclab/home/chayas/anaconda/envs/py35/share/psi4/basis/aug-cc-pvtz.gbs 


         ---------------------------------------------------------
                                   SCF
            by Justin Turney, Rob Parrish, and Andy Simmonett
                              RHF Reference
                        8 Threads,   4768 MiB Core
         ---------------------------------------------------------

  ==> Geometry <==

    Molecular point group: c1
    Full point group: C1

    Geometry (in Angstrom), charge = -1, multiplicity = 1:

       Center              X                  Y                   Z               Mass       
    ------------   -----------------  -----------------  -----------------  -----------------
           C         -1.359428613010     0.778738369006    -0.772009593325    12.000000000000
           C         -2.433786752334     1.349342846376    -0.101569048615    12.000000000000
           C          1.996041481991    -0.739036097993    -0.091066597356    12.000000000000
           C          0.741489510706    -0.695565854047    -2.132008769311    12.000000000000
           C         -1.435906487055     0.725995730108     2.010917364083    12.000000000000
           C          3.032895516171    -1.309233097538    -0.811988493980    12.000000000000
           C          1.838211844099    -1.267295173296    -2.755270088097    12.000000000000
           C         -0.311201341779     0.176632976223    -0.066377249376    12.000000000000
           C          0.814130317800    -0.421020396525    -0.765747813257    12.000000000000
           C         -2.491311838284     1.333221949301     1.305371863856    12.000000000000
           C         -0.370326471294     0.161710765353     1.327133123198    12.000000000000
           N          2.985503411870    -1.582773937659    -2.128962600125    14.003074004780
           O         -3.478624498713     1.857181134503     1.928982143743    15.994914619560
           F          0.622690845255    -0.414390406785     2.029541533747    18.998403224000
           H         -1.345019615313     0.807158749836    -1.855625307475     1.007825032070
           H         -3.227870913217     1.806075805983    -0.682489213303     1.007825032070
           H          2.119153217873    -0.552331540914     0.961742053385     1.007825032070
           H         -0.147053321308    -0.472254864579    -2.706125384409     1.007825032070
           H         -1.437960657869     0.689094372165     3.094804838436     1.007825032070
           H          3.964826368491    -1.569645570220    -0.323450287486     1.007825032070
           H          1.814563237003    -1.492857437214    -3.815722444533     1.007825032070

  Running in c1 symmetry.

  Rotational constants: A =      0.06394  B =      0.01377  C =      0.01139 [cm^-1]
  Rotational constants: A =   1916.85675  B =    412.95081  C =    341.59523 [MHz]
  Nuclear repulsion =  802.974274259722847

  Charge       = -1
  Multiplicity = 1
  Electrons    = 98
  Nalpha       = 49
  Nbeta        = 49

  ==> Algorithm <==

  SCF Algorithm Type is DF.
  DIIS enabled.
  MOM disabled.
  Fractional occupation disabled.
  Guess Type is READ.
  Energy threshold   = 1.00e-10
  Density threshold  = 1.00e-10
  Integral threshold = 0.00e+00

  ==> Primary Basis <==

  Basis Set: AUG-CC-PVTZ
    Blend: AUG-CC-PVTZ
    Number of shells: 259
    Number of basis function: 805
    Number of Cartesian functions: 945
    Spherical Harmonics?: true
    Max angular momentum: 3

   => Loading Basis Set <=

    Name: (AUG-CC-PVTZ AUX)
    Role: JKFIT
    Keyword: DF_BASIS_SCF
    atoms 1-11  entry C          line   161 file /cbio/jclab/home/chayas/anaconda/envs/py35/share/psi4/basis/aug-cc-pvtz-jkfit.gbs 
    atoms 12    entry N          line   223 file /cbio/jclab/home/chayas/anaconda/envs/py35/share/psi4/basis/aug-cc-pvtz-jkfit.gbs 
    atoms 13    entry O          line   285 file /cbio/jclab/home/chayas/anaconda/envs/py35/share/psi4/basis/aug-cc-pvtz-jkfit.gbs 
    atoms 14    entry F          line   347 file /cbio/jclab/home/chayas/anaconda/envs/py35/share/psi4/basis/aug-cc-pvtz-jkfit.gbs 
    atoms 15-21 entry H          line    69 file /cbio/jclab/home/chayas/anaconda/envs/py35/share/psi4/basis/aug-cc-pvtz-jkfit.gbs 

  Reading orbitals from file 180, no projection.

  ==> Pre-Iterations <==

   -------------------------------------------------------
    Irrep   Nso     Nmo     Nalpha   Nbeta   Ndocc  Nsocc
   -------------------------------------------------------
     A        805     805       0       0       0       0
   -------------------------------------------------------
    Total     805     805      49      49      49       0
   -------------------------------------------------------

  ==> Integral Setup <==

  ==> DFJK: Density-Fitted J/K Matrices <==

    J tasked:                  Yes
    K tasked:                  Yes
    wK tasked:                  No
    OpenMP threads:              8
    Integrals threads:           8
    Memory (MB):              3576
    Algorithm:                Disk
    Integral Cache:           NONE
    Schwarz Cutoff:          1E-12
    Fitting Condition:       1E-12

   => Auxiliary Basis Set <=

  Basis Set: (AUG-CC-PVTZ AUX)
    Blend: AUG-CC-PVTZ-JKFIT
    Number of shells: 518
    Number of basis function: 1778
    Number of Cartesian functions: 2219
    Spherical Harmonics?: true
    Max angular momentum: 4

  Minimum eigenvalue in the overlap matrix is 6.7531921761E-07.
  Using Symmetric Orthogonalization.

  SCF Guess: Orbitals guess was supplied from a previous computation.

  ==> Iterations <==

                           Total Energy        Delta E     RMS |[F,P]|

   @DF-RHF iter   0:  -649.70926754762877   -6.49709e+02   4.57894e-04 
   @DF-RHF iter   1:  -649.61042588820214    9.88417e-02   1.06305e-04 
   @DF-RHF iter   2:  -649.61104011732198   -6.14229e-04   7.40411e-05 DIIS
   @DF-RHF iter   3:  -649.61142480548017   -3.84688e-04   1.09967e-05 DIIS
   @DF-RHF iter   4:  -649.61143468833791   -9.88286e-06   4.01380e-06 DIIS
   @DF-RHF iter   5:  -649.61143689872551   -2.21039e-06   1.31820e-06 DIIS
   @DF-RHF iter   6:  -649.61143731275820   -4.14033e-07   7.41365e-07 DIIS
   @DF-RHF iter   7:  -649.61143745163326   -1.38875e-07   3.16569e-07 DIIS
   @DF-RHF iter   8:  -649.61143749143957   -3.98063e-08   1.47374e-07 DIIS
   @DF-RHF iter   9:  -649.61143749764278   -6.20321e-09   5.93319e-08 DIIS
   @DF-RHF iter  10:  -649.61143749869302   -1.05024e-09   2.20064e-08 DIIS
   @DF-RHF iter  11:  -649.61143749884604   -1.53022e-10   9.23179e-09 DIIS
   @DF-RHF iter  12:  -649.61143749886787   -2.18279e-11   4.98041e-09 DIIS
   @DF-RHF iter  13:  -649.61143749888106   -1.31877e-11   2.00710e-09 DIIS
   @DF-RHF iter  14:  -649.61143749887640    4.66116e-12   1.05151e-09 DIIS
   @DF-RHF iter  15:  -649.61143749886980    6.59384e-12   2.86041e-10 DIIS
   @DF-RHF iter  16:  -649.61143749888652   -1.67120e-11   9.95902e-11 DIIS

  ==> Post-Iterations <==

    Orbital Energies (a.u.)
    -----------------------

    Doubly Occupied:                                                      

       1A    -26.192598     2A    -20.315847     3A    -15.444008  
       4A    -11.197150     5A    -11.163296     6A    -11.160075  
       7A    -11.148143     8A    -11.136583     9A    -11.117162  
      10A    -11.113955    11A    -11.107871    12A    -11.088986  
      13A    -11.071607    14A    -11.070666    15A     -1.515773  
      16A     -1.144287    17A     -1.137743    18A     -1.024930  
      19A     -0.965241    20A     -0.918980    21A     -0.880508  
      22A     -0.850806    23A     -0.751136    24A     -0.736883  
      25A     -0.705388    26A     -0.681251    27A     -0.607406  
      28A     -0.595787    29A     -0.581782    30A     -0.571021  
      31A     -0.546128    32A     -0.523083    33A     -0.503475  
      34A     -0.484301    35A     -0.471538    36A     -0.463876  
      37A     -0.432633    38A     -0.422138    39A     -0.404944  
      40A     -0.388705    41A     -0.379756    42A     -0.363613  
      43A     -0.322868    44A     -0.303773    45A     -0.249138  
      46A     -0.237752    47A     -0.231562    48A     -0.207794  
      49A     -0.118002  

    Virtual:                                                              

      50A      0.099059    51A      0.101799    52A      0.114723  
      53A      0.120170    54A      0.127753    55A      0.131508  
      56A      0.135553    57A      0.157895    58A      0.166584  
      59A      0.175661    60A      0.180989    61A      0.183556  
      62A      0.186359    63A      0.190014    64A      0.193295  
      65A      0.197432    66A      0.200137    67A      0.205754  
      68A      0.211132    69A      0.213319    70A      0.218030  
      71A      0.219793    72A      0.220234    73A      0.227966  
      74A      0.229431    75A      0.236352    76A      0.238127  
      77A      0.239524    78A      0.242557    79A      0.248492  
      80A      0.248813    81A      0.258417    82A      0.263937  
      83A      0.267708    84A      0.272125    85A      0.277884  
      86A      0.282038    87A      0.289486    88A      0.292708  
      89A      0.301059    90A      0.310114    91A      0.314122  
      92A      0.316177    93A      0.320154    94A      0.324238  
      95A      0.326290    96A      0.329349    97A      0.332673  
      98A      0.337438    99A      0.342804   100A      0.344462  
     101A      0.348170   102A      0.357032   103A      0.360857  
     104A      0.367802   105A      0.370432   106A      0.379362  
     107A      0.382433   108A      0.384620   109A      0.387901  
     110A      0.390500   111A      0.398647   112A      0.401611  
     113A      0.409781   114A      0.412317   115A      0.415714  
     116A      0.423225   117A      0.424740   118A      0.428393  
     119A      0.432409   120A      0.441204   121A      0.444926  
     122A      0.450075   123A      0.452313   124A      0.457123  
     125A      0.470737   126A      0.477133   127A      0.479879  
     128A      0.482514   129A      0.483893   130A      0.491431  
     131A      0.497227   132A      0.510092   133A      0.515634  
     134A      0.517504   135A      0.522645   136A      0.530976  
     137A      0.535041   138A      0.541209   139A      0.543034  
     140A      0.549173   141A      0.553542   142A      0.557139  
     143A      0.557509   144A      0.563221   145A      0.565916  
     146A      0.571237   147A      0.572448   148A      0.575725  
     149A      0.582510   150A      0.589596   151A      0.590203  
     152A      0.590524   153A      0.593413   154A      0.598389  
     155A      0.602653   156A      0.607503   157A      0.609034  
     158A      0.609906   159A      0.616188   160A      0.619752  
     161A      0.621924   162A      0.630413   163A      0.633258  
     164A      0.637868   165A      0.640775   166A      0.645043  
     167A      0.652474   168A      0.654252   169A      0.660320  
     170A      0.663710   171A      0.666817   172A      0.674525  
     173A      0.676030   174A      0.681827   175A      0.691015  
     176A      0.695274   177A      0.697704   178A      0.704203  
     179A      0.710722   180A      0.715063   181A      0.719715  
     182A      0.726314   183A      0.729043   184A      0.736574  
     185A      0.741577   186A      0.754621   187A      0.756989  
     188A      0.762552   189A      0.771952   190A      0.779265  
     191A      0.790781   192A      0.793778   193A      0.801793  
     194A      0.804526   195A      0.809625   196A      0.813014  
     197A      0.819897   198A      0.823117   199A      0.824137  
     200A      0.831059   201A      0.837286   202A      0.851965  
     203A      0.855222   204A      0.856451   205A      0.858011  
     206A      0.867333   207A      0.870934   208A      0.877563  
     209A      0.882127   210A      0.889529   211A      0.899551  
     212A      0.903249   213A      0.912686   214A      0.919084  
     215A      0.931936   216A      0.933796   217A      0.940335  
     218A      0.945328   219A      0.952246   220A      0.958660  
     221A      0.963321   222A      0.972455   223A      0.979624  
     224A      0.992970   225A      0.996082   226A      0.996351  
     227A      1.000153   228A      1.006228   229A      1.009420  
     230A      1.011277   231A      1.015605   232A      1.021301  
     233A      1.023814   234A      1.026427   235A      1.036684  
     236A      1.042416   237A      1.050681   238A      1.055182  
     239A      1.056316   240A      1.057979   241A      1.065245  
     242A      1.068841   243A      1.077265   244A      1.080676  
     245A      1.084103   246A      1.088094   247A      1.092934  
     248A      1.096281   249A      1.101184   250A      1.103290  
     251A      1.108101   252A      1.113423   253A      1.115721  
     254A      1.119033   255A      1.123448   256A      1.125766  
     257A      1.133184   258A      1.134553   259A      1.139380  
     260A      1.145397   261A      1.150251   262A      1.155677  
     263A      1.157083   264A      1.161645   265A      1.166403  
     266A      1.171642   267A      1.182495   268A      1.186208  
     269A      1.190390   270A      1.199451   271A      1.200781  
     272A      1.208765   273A      1.216625   274A      1.217762  
     275A      1.227816   276A      1.229069   277A      1.233365  
     278A      1.241853   279A      1.248188   280A      1.252487  
     281A      1.258068   282A      1.259546   283A      1.269590  
     284A      1.272344   285A      1.282594   286A      1.288115  
     287A      1.289926   288A      1.292863   289A      1.300693  
     290A      1.305823   291A      1.312305   292A      1.313957  
     293A      1.317178   294A      1.320793   295A      1.327625  
     296A      1.329804   297A      1.334951   298A      1.337405  
     299A      1.343062   300A      1.344325   301A      1.355375  
     302A      1.366659   303A      1.370933   304A      1.377169  
     305A      1.381847   306A      1.384054   307A      1.392858  
     308A      1.399918   309A      1.401553   310A      1.414933  
     311A      1.418763   312A      1.426785   313A      1.432333  
     314A      1.437816   315A      1.444999   316A      1.450685  
     317A      1.456486   318A      1.460888   319A      1.471535  
     320A      1.481439   321A      1.488640   322A      1.493869  
     323A      1.499214   324A      1.505360   325A      1.512008  
     326A      1.522879   327A      1.531299   328A      1.534065  
     329A      1.547628   330A      1.553505   331A      1.557395  
     332A      1.569703   333A      1.574747   334A      1.591273  
     335A      1.606685   336A      1.610801   337A      1.616035  
     338A      1.624047   339A      1.632300   340A      1.637030  
     341A      1.640051   342A      1.649508   343A      1.672881  
     344A      1.681316   345A      1.688408   346A      1.699289  
     347A      1.707065   348A      1.709212   349A      1.726857  
[...]
	 R(5,19)          =         2.039212	       1.079105
	 R(6,12)          =         2.528733	       1.338148
	 R(6,20)          =         2.046452	       1.082936
	 R(7,12)          =         2.530872	       1.339280
	 R(7,21)          =         2.046509	       1.082966
	 R(8,9)           =         2.725539	       1.442293
	 R(8,11)          =         2.648545	       1.401550
	 R(10,13)         =         2.379770	       1.259320
	 R(11,14)         =         2.591950	       1.371601
	 B(1,2,10)        =         2.140989	     122.669613
	 B(1,2,16)        =         2.094958	     120.032269
	 B(1,8,9)         =         2.118428	     121.376991
	 B(1,8,11)        =         1.974031	     113.103645
	 B(2,1,8)         =         2.161794	     123.861682
	 B(2,1,15)        =         2.054475	     117.712772
	 B(2,10,5)        =         1.975593	     113.193116
	 B(2,10,13)       =         2.156108	     123.535861
	 B(3,6,12)        =         2.181058	     124.965425
	 B(3,6,20)        =         2.077786	     119.048395
	 B(3,9,4)         =         1.985525	     113.762230
	 B(3,9,8)         =         2.175763	     124.662060
	 B(4,7,12)        =         2.173764	     124.547516
	 B(4,7,21)        =         2.082819	     119.336713
	 B(4,9,8)         =         2.121896	     121.575708
	 B(5,10,13)       =         2.151485	     123.270989
	 B(5,11,8)        =         2.182650	     125.056633
	 B(5,11,14)       =         2.026819	     116.128150
	 B(6,3,9)         =         2.108415	     120.803274
	 B(6,3,17)        =         2.072942	     118.770835
	 B(6,12,7)        =         2.000964	     114.646805
	 B(7,4,9)         =         2.116524	     121.267898
	 B(7,4,18)        =         2.063556	     118.233026
	 B(8,1,15)        =         2.066198	     118.384445
	 B(8,11,14)       =         2.073222	     118.786874
	 B(9,3,17)        =         2.101681	     120.417474
	 B(9,4,18)        =         2.102857	     120.484840
	 B(9,8,11)        =         2.190535	     125.508397
	 B(10,2,16)       =         2.047185	     117.295074
	 B(10,5,11)       =         2.131262	     122.112339
	 B(10,5,19)       =         2.074908	     118.883451
	 B(11,5,19)       =         2.076990	     119.002772
	 B(12,6,20)       =         2.024338	     115.986027
	 B(12,7,21)       =         2.026570	     116.113888
	 D(1,2,10,5)      =         0.003806	       0.218049
	 D(1,2,10,13)     =        -3.138932	    -179.847583
	 D(1,8,9,3)       =         2.877689	     164.879429
	 D(1,8,9,4)       =        -0.263653	     -15.106231
	 D(1,8,11,5)      =         0.001395	       0.079920
	 D(1,8,11,14)     =         3.107801	     178.063867
	 D(2,1,8,9)       =         3.129114	     179.285035
	 D(2,1,8,11)      =         0.007443	       0.426453
	 D(2,10,5,11)     =         0.004687	       0.268566
	 D(2,10,5,19)     =        -3.129212	    -179.290658
	 D(3,6,12,7)      =        -0.003653	      -0.209328
	 D(3,9,4,7)       =        -0.016468	      -0.943524
	 D(3,9,4,18)      =         3.100746	     177.659656
	 D(3,9,8,11)      =        -0.286414	     -16.410316
	 D(4,7,12,6)      =         0.001887	       0.108106
	 D(4,9,3,6)       =         0.014777	       0.846668
	 D(4,9,3,17)      =         3.137723	     179.778257
	 D(4,9,8,11)      =         2.855429	     163.604025
	 D(5,10,2,16)     =        -3.126698	    -179.146617
	 D(5,11,8,9)      =        -3.119304	    -178.722946
	 D(6,3,9,8)       =        -3.126583	    -179.139983
	 D(6,12,7,21)     =        -3.130903	    -179.387547
	 D(7,4,9,8)       =         3.124900	     179.043588
	 D(7,12,6,20)     =         3.140458	     179.935011
	 D(8,1,2,10)      =        -0.010356	      -0.593332
	 D(8,1,2,16)      =         3.119855	     178.754518
	 D(8,9,3,17)      =        -0.003637	      -0.208394
	 D(8,9,4,18)      =        -0.041072	      -2.353232
	 D(8,11,5,10)     =        -0.007550	      -0.432555
	 D(8,11,5,19)     =         3.126341	     179.126161
	 D(9,3,6,12)      =        -0.005260	      -0.301390
	 D(9,3,6,20)      =         3.133742	     179.550195
	 D(9,4,7,12)      =         0.008829	       0.505866
	 D(9,4,7,21)      =         3.141355	     179.986381
	 D(9,8,1,15)      =        -0.054174	      -3.103916
	 D(9,8,11,14)     =        -0.012898	      -0.739000
	 D(10,2,1,15)     =        -3.110513	    -178.219264
	 D(10,5,11,14)    =        -3.114794	    -178.464562
	 D(11,5,10,13)    =        -3.135763	    -179.666002
	 D(11,8,1,15)     =         3.107341	     178.037502
	 D(12,6,3,17)     =        -3.128508	    -179.250279
	 D(12,7,4,18)     =        -3.108918	    -178.127868
	 D(13,10,2,16)    =         0.013749	       0.787751
	 D(13,10,5,19)    =         0.013522	       0.774774
	 D(14,11,5,19)    =         0.019097	       1.094154
	 D(15,1,2,16)     =         0.019698	       1.128586
	 D(17,3,6,20)     =         0.010495	       0.601305
	 D(18,4,7,21)     =         0.023608	       1.352647
	 R(3,14)          =         5.270888	       2.789234

	Current energy   :      -652.3360060826

	Energy change for the previous step:
		Projected    :         0.0000024107
		Actual       :        -0.0000006146

	Performing BFGS update.
	Previous computed or guess Hessian on step 1.
	Steps to be used in Hessian update: 7 6
	Adding user-defined constraint: Fragment 1; Coordinate 59:
		Value =     2.877689; Fixed value    =     2.879790
		Force =     0.001418; Force constant =     0.675000
	Removing off-diagonal coupling between coordinate 59 and others.
	Taking RFO optimization step.
	Going to follow RFO solution 1.
	Using RFO vector 1.
	Norm of target step-size    0.00491
	Projected energy change by RFO approximation:        -0.0000030946

	Back-transformation to cartesian coordinates...
	Successfully converged to displaced geometry.

	--- Internal Coordinate Step in ANG or DEG, aJ/ANG or AJ/DEG ---
	 ---------------------------------------------------------------------------
	   Coordinate                Previous        Force       Change         New 
	   ----------                --------       ------       ------       ------
	    1 R(1,2)          =      1.371450    -0.000043    -0.000007     1.371443
	    2 R(1,8)          =      1.411741     0.000181     0.000098     1.411838
	    3 R(1,15)         =      1.080620     0.000051    -0.000019     1.080602
	    4 R(2,10)         =      1.436681     0.000306     0.000046     1.436727
	    5 R(2,16)         =      1.080994    -0.000050    -0.000021     1.080973
	    6 R(3,6)          =      1.383480    -0.000176    -0.000065     1.383415
	    7 R(3,9)          =      1.405172     0.000379     0.000132     1.405304
	    8 R(3,17)         =      1.075161    -0.000213    -0.000039     1.075122
	    9 R(4,7)          =      1.381361     0.000340     0.000085     1.381446
	   10 R(4,9)          =      1.405482    -0.000591    -0.000101     1.405381
	   11 R(4,18)         =      1.078216     0.000041    -0.000017     1.078199
	   12 R(5,10)         =      1.433032    -0.000081    -0.000078     1.432954
	   13 R(5,11)         =      1.366260    -0.000007     0.000022     1.366282
	   14 R(5,19)         =      1.079105    -0.000025     0.000003     1.079107
	   15 R(6,12)         =      1.338148     0.000157     0.000023     1.338171
	   16 R(6,20)         =      1.082936    -0.000037    -0.000012     1.082924
	   17 R(7,12)         =      1.339280    -0.000642    -0.000158     1.339122
	   18 R(7,21)         =      1.082966    -0.000009     0.000012     1.082978
	   19 R(8,9)          =      1.442293    -0.000146     0.000088     1.442381
	   20 R(8,11)         =      1.401550    -0.000192    -0.000049     1.401501
	   21 R(10,13)        =      1.259320     0.000073     0.000035     1.259355
	   22 R(11,14)        =      1.371601    -0.000288    -0.000040     1.371561
	   23 B(1,2,10)       =    122.669613    -0.000001    -0.005836   122.663777
	   24 B(1,2,16)       =    120.032269    -0.000001    -0.016829   120.015440
	   25 B(1,8,9)        =    121.376991    -0.000003    -0.025814   121.351177
	   26 B(1,8,11)       =    113.103645     0.000000    -0.009129   113.094516
	   27 B(2,1,8)        =    123.861682     0.000000     0.012472   123.874155
	   28 B(2,1,15)       =    117.712772     0.000001     0.001286   117.714059
	   29 B(2,10,5)       =    113.193116    -0.000001    -0.009587   113.183529
	   30 B(2,10,13)      =    123.535861     0.000001     0.006514   123.542375
	   31 B(3,6,12)       =    124.965425    -0.000001    -0.006435   124.958990
	   32 B(3,6,20)       =    119.048395     0.000001     0.012219   119.060614
	   33 B(3,9,4)        =    113.762230     0.000001     0.002881   113.765111
	   34 B(3,9,8)        =    124.662060    -0.000002    -0.014941   124.647119
	   35 B(4,7,12)       =    124.547516     0.000001     0.004172   124.551688
	   36 B(4,7,21)       =    119.336713    -0.000001    -0.007972   119.328741
	   37 B(4,9,8)        =    121.575708     0.000000     0.012036   121.587744
	   38 B(5,10,13)      =    123.270989     0.000001     0.002862   123.273851
	   39 B(5,11,8)       =    125.056633    -0.000001    -0.006489   125.050143
	   40 B(5,11,14)      =    116.128150     0.000001    -0.006794   116.121357
	   41 B(6,3,9)        =    120.803274    -0.000001    -0.000074   120.803200
	   42 B(6,3,17)       =    118.770835     0.000002     0.024547   118.795381
	   43 B(6,12,7)       =    114.646805     0.000001     0.006326   114.653131
	   44 B(7,4,9)        =    121.267898    -0.000001    -0.006693   121.261205
	   45 B(7,4,18)       =    118.233026     0.000000    -0.005009   118.228017
	   46 B(8,1,15)       =    118.384445    -0.000001    -0.012761   118.371683
	   47 B(8,11,14)      =    118.786874    -0.000000     0.012250   118.799124
	   48 B(9,3,17)       =    120.417474    -0.000000    -0.024359   120.393115
	   49 B(9,4,18)       =    120.484840     0.000000     0.012082   120.496922
	   50 B(9,8,11)       =    125.508397     0.000003     0.035462   125.543859
	   51 B(10,2,16)      =    117.295074     0.000002     0.022822   117.317896
	   52 B(10,5,11)      =    122.112339     0.000002     0.018674   122.131013
	   53 B(10,5,19)      =    118.883451    -0.000000     0.005818   118.889269
	   54 B(11,5,19)      =    119.002772    -0.000002    -0.024589   118.978184
	   55 B(12,6,20)      =    115.986027    -0.000001    -0.005901   115.980126
	   56 B(12,7,21)      =    116.113888     0.000001     0.003607   116.117496
	   57 D(1,2,10,5)     =      0.218049     0.000000     0.073039     0.291088
	   58 D(1,2,10,13)    =   -179.847583    -0.000000    -0.036332  -179.883916
	   59 D(1,8,9,3)      =    164.879429     0.000001    -0.011168   164.868260
	   60 D(1,8,9,4)      =    -15.106231     0.000001     0.035904   -15.070327
	   61 D(1,8,11,5)     =      0.079920     0.000000     0.046038     0.125958
	   62 D(1,8,11,14)    =    178.063867    -0.000000     0.009523   178.073390
	   63 D(2,1,8,9)      =    179.285035    -0.000000    -0.018441   179.266594
	   64 D(2,1,8,11)     =      0.426453    -0.000000    -0.046236     0.380217
	   65 D(2,10,5,11)    =      0.268566    -0.000000    -0.073388     0.195178
	   66 D(2,10,5,19)    =   -179.290658    -0.000000    -0.058695  -179.349353
	   67 D(3,6,12,7)     =     -0.209328    -0.000000    -0.000803    -0.210131
	   68 D(3,9,4,7)      =     -0.943524    -0.000000     0.004364    -0.939160
	   69 D(3,9,4,18)     =    177.659656     0.000000     0.023061   177.682717
	   70 D(3,9,8,11)     =    -16.410316     0.000000     0.019597   -16.390719
	   71 D(4,7,12,6)     =      0.108106    -0.000000    -0.019994     0.088112
	   72 D(4,9,3,6)      =      0.846668    -0.000000    -0.023368     0.823300
	   73 D(4,9,3,17)     =    179.778257    -0.000000    -0.015856   179.762401
	   74 D(4,9,8,11)     =    163.604025     0.000000     0.066670   163.670694
	   75 D(5,10,2,16)    =   -179.146617     0.000000     0.056588  -179.090029
	   76 D(5,11,8,9)     =   -178.722946     0.000000     0.017723  -178.705223
	   77 D(6,3,9,8)      =   -179.139983    -0.000000     0.020444  -179.119539
	   78 D(6,12,7,21)    =   -179.387547     0.000000     0.005241  -179.382305
	   79 D(7,4,9,8)      =    179.043588    -0.000000    -0.037951   179.005637
	   80 D(7,12,6,20)    =    179.935011     0.000000     0.046497   179.981507
	   81 D(8,1,2,10)     =     -0.593332    -0.000000    -0.014400    -0.607731
	   82 D(8,1,2,16)     =    178.754518     0.000000     0.002725   178.757243
	   83 D(8,9,3,17)     =     -0.208394    -0.000000     0.027956    -0.180438
	   84 D(8,9,4,18)     =     -2.353232     0.000000    -0.019255    -2.372487
	   85 D(8,11,5,10)    =     -0.432555     0.000000     0.015367    -0.417187
	   86 D(8,11,5,19)    =    179.126161    -0.000000     0.000792   179.126953
	   87 D(9,3,6,12)     =     -0.301390     0.000000     0.023321    -0.278069
	   88 D(9,3,6,20)     =    179.550195    -0.000000    -0.025348   179.524847
	   89 D(9,4,7,12)     =      0.505866     0.000000     0.018511     0.524376
	   90 D(9,4,7,21)     =    179.986381     0.000000    -0.007423   179.978958
	   91 D(9,8,1,15)     =     -3.103916    -0.000000     0.010694    -3.093221
	   92 D(9,8,11,14)    =     -0.739000     0.000000    -0.018792    -0.757791
	   93 D(10,2,1,15)    =   -178.219264    -0.000000    -0.043044  -178.262308
	   94 D(10,5,11,14)   =   -178.464562     0.000000     0.050659  -178.413903
	   95 D(11,5,10,13)   =   -179.666002     0.000000     0.035643  -179.630359
	   96 D(11,8,1,15)    =    178.037502     0.000000    -0.017100   178.020402
	   97 D(12,6,3,17)    =   -179.250279     0.000000     0.016437  -179.233843
	   98 D(12,7,4,18)    =   -178.127868     0.000000    -0.000007  -178.127875
	   99 D(13,10,2,16)   =      0.787751    -0.000001    -0.052783     0.734968
	  100 D(13,10,5,19)   =      0.774774     0.000001     0.050336     0.825110
	  101 D(14,11,5,19)   =      1.094154     0.000000     0.036084     1.130238
	  102 D(15,1,2,16)    =      1.128586    -0.000000    -0.025919     1.102667
	  103 D(17,3,6,20)    =      0.601305    -0.000000    -0.032232     0.569073
	  104 D(18,4,7,21)    =      1.352647    -0.000000    -0.025941     1.326706
	  105 R(3,14)         =      2.789234     0.000118     0.001187     2.790421
	 ---------------------------------------------------------------------------
	Successfully symmetrized geometry.
	 Forces used to impose fixed constraints are not included.
	  Forces zeroed: 59 

  ==> Convergence Check <==

  Measures of convergence in internal coordinates in au.
  Criteria marked as inactive (o), active & met (*), and active & unmet ( ).
  ---------------------------------------------------------------------------------------------
   Step     Total Energy     Delta E     MAX Force     RMS Force      MAX Disp      RMS Disp   
  ---------------------------------------------------------------------------------------------
    Convergence Criteria    1.00e-06 *    3.00e-04 *             o    1.20e-03 *             o
  ---------------------------------------------------------------------------------------------
      8    -652.33600608   -6.15e-07 *    7.79e-05 *    1.97e-05 o    2.24e-03      4.79e-04 o  ~
  ---------------------------------------------------------------------------------------------


  **** Optimization is complete! (in 8 steps) ****

  ==> Optimization Summary <==

  Measures of convergence in internal coordinates in au.
  --------------------------------------------------------------------------------------------------------------- ~
   Step         Total Energy             Delta E       MAX Force       RMS Force        MAX Disp        RMS Disp  ~
  --------------------------------------------------------------------------------------------------------------- ~
      1    -652.317811559525   -652.317811559525      0.02621045      0.00852778      0.03471324      0.00975946  ~
      2    -652.325060990527     -0.007249431002      0.01892396      0.00584807      0.11481111      0.01953063  ~
      3    -652.332892151451     -0.007831160924      0.01169967      0.00233581      0.16654982      0.01952268  ~
      4    -652.335431611280     -0.002539459829      0.00497190      0.00071895      0.11471214      0.01289413  ~
      5    -652.335935487689     -0.000503876409      0.00158002      0.00026516      0.04879130      0.00559805  ~
      6    -652.336002243771     -0.000066756082      0.00031884      0.00009653      0.01200004      0.00190552  ~
      7    -652.336005467993     -0.000003224222      0.00013346      0.00004341      0.00201365      0.00053237  ~
      8    -652.336006082585     -0.000000614591      0.00007789      0.00002003      0.00224227      0.00047868  ~
  --------------------------------------------------------------------------------------------------------------- ~

	Writing optimization data to binary file.
	Final energy is   -652.3360060825845
	Final (previous) structure:
	Cartesian Geometry (in Angstrom)
	    C    -1.3180880599   0.7683983211  -0.7482780516
	    C    -2.4089456448   1.3432923836  -0.1479437125
	    C     2.0800112788  -0.7799500754  -0.1211013802
	    C     0.8041680607  -0.7345729417  -2.0988853605
	    C    -1.5042803906   0.7573187438   1.9915646235
	    C     3.1054024258  -1.3400239297  -0.8619842148
	    C     1.8833180380  -1.2941485524  -2.7549859150
	    C    -0.2562100612   0.1662774645  -0.0391393452
	    C     0.8592575577  -0.4366810194  -0.7264403275
	    C    -2.5817933837   1.3763936287   1.2779174346
	    C    -0.4313062944   0.2051187206   1.3508872881
	    N     3.0471562983  -1.6085319787  -2.1716216521
	    O    -3.5777018328   1.8971818513   1.8461018449
	    F     0.5133843928  -0.3835834604   2.1523101113
	    H    -1.2550809745   0.8146169196  -1.8260694383
	    H    -3.1776982286   1.8053358754  -0.7513373778
	    H     2.2392939111  -0.5952347577   0.9260278896
	    H    -0.0961813968  -0.5505409939  -2.6628472923
	    H    -1.5459978340   0.7204418751   3.0692316959
	    H     4.0369546233  -1.5868598383  -0.3679876047
	    H     1.8065923358  -1.5111590174  -3.8132082651
	Saving final (previous) structure.
			--------------------------
			 OPTKING Finished Execution 
			--------------------------

    Final optimized geometry and variables:
    Molecular point group: c1
    Full point group: C1

    Geometry (in Angstrom), charge = -1, multiplicity = 1:

    C           -1.318088059872     0.768398321137    -0.748278051557
    C           -2.408945644775     1.343292383626    -0.147943712526
    C            2.080011278826    -0.779950075393    -0.121101380241
    C            0.804168060694    -0.734572941662    -2.098885360544
    C           -1.504280390642     0.757318743826     1.991564623520
    C            3.105402425795    -1.340023929669    -0.861984214789
    C            1.883318038005    -1.294148552358    -2.754985914977
    C           -0.256210061187     0.166277464451    -0.039139345211
    C            0.859257557728    -0.436681019361    -0.726440327471
    C           -2.581793383672     1.376393628682     1.277917434614
    C           -0.431306294437     0.205118720648     1.350887288097
    N            3.047156298256    -1.608531978681    -2.171621652137
    O           -3.577701832816     1.897181851328     1.846101844897
    F            0.513384392792    -0.383583460354     2.152310111258
    H           -1.255080974495     0.814616919574    -1.826069438292
    H           -3.177698228576     1.805335875444    -0.751337377841
    H            2.239293911061    -0.595234757677     0.926027889551
    H           -0.096181396759    -0.550540993859    -2.662847292342
    H           -1.545997834034     0.720441875129     3.069231695900
    H            4.036954623305    -1.586859838281    -0.367987604669
    H            1.806592335821    -1.511159017363    -3.813208265088

	Cleaning optimization helper files.

*** Psi4 exiting successfully. Buy a developer a beer!
