
    -----------------------------------------------------------------------
          Psi4: An Open-Source Ab Initio Electronic Structure Package
                               Psi4 1.1 release

                         Git: Rev {HEAD} add49b9 


    R. M. Parrish, L. A. Burns, D. G. A. Smith, A. C. Simmonett,
    A. E. DePrince III, E. G. Hohenstein, U. Bozkaya, A. Yu. Sokolov,
    R. Di Remigio, R. M. Richard, J. F. Gonthier, A. M. James,
    H. R. McAlexander, A. Kumar, M. Saitow, X. Wang, B. P. Pritchard,
    P. Verma, H. F. Schaefer III, K. Patkowski, R. A. King, E. F. Valeev,
    F. A. Evangelista, J. M. Turney, T. D. Crawford, and C. D. Sherrill,
    J. Chem. Theory Comput. in press (2017).
    (doi: 10.1021/acs.jctc.7b00174)

    -----------------------------------------------------------------------


    Psi4 started on: Saturday, 11 November 2017 09:40AM

    Process ID:  27080
    PSIDATADIR: /cbio/jclab/home/chayas/anaconda/envs/py35/share/psi4
    Memory:     500.0 MiB
    Threads:    8
    
  ==> Input File <==

--------------------------------------------------------------------------

molecule phepyr {
  symmetry C1
  0 1 
  C      1.885   -1.036   -0.112
  C      0.807   -0.463   0.561
  C      2.921   -1.631   0.608
  C      0.764   -0.484   1.955
  C      2.878   -1.652   2.002
  C      1.757   -2.313   4.802
  C      1.711   0.091   4.837
  C      1.714   -2.280   6.187
  C      1.671   0.017   6.219
  C      1.800   -1.079   2.676
  C      1.755   -1.100   4.122
  N      1.671   -1.142   6.915
  H      1.917   -1.021   -1.198
  H      -0.001   -0.002   0.000
  H      3.760   -2.079   0.084
  H      -0.084   -0.033   2.466
  H      3.693   -2.120   2.550
  H      1.791   -3.264   4.279
  H      1.708   1.056   4.340
  H      1.716   -3.199   6.764
  H      1.635   0.917   6.823
  units Angstrom
}

dih_string = "4 10 11 6 120"
set optking fixed_dihedral = $dih_string

optimize('MP2/aug-cc-PVTZ')
--------------------------------------------------------------------------
gradient() will perform analytic gradient computation.

*** tstart() called on gpu-2-9.local
*** at Sat Nov 11 09:40:32 2017

    SCF Algorithm Type (re)set to DF.

*** tstart() called on gpu-2-9.local
*** at Sat Nov 11 09:40:32 2017

   => Loading Basis Set <=

    Name: AUG-CC-PVTZ
    Role: ORBITAL
    Keyword: BASIS
    atoms 1-11  entry C          line   221 file /cbio/jclab/home/chayas/anaconda/envs/py35/share/psi4/basis/aug-cc-pvtz.gbs 
    atoms 12    entry N          line   267 file /cbio/jclab/home/chayas/anaconda/envs/py35/share/psi4/basis/aug-cc-pvtz.gbs 
    atoms 13-21 entry H          line    34 file /cbio/jclab/home/chayas/anaconda/envs/py35/share/psi4/basis/aug-cc-pvtz.gbs 


         ---------------------------------------------------------
                                   SCF
            by Justin Turney, Rob Parrish, and Andy Simmonett
                              RHF Reference
                        8 Threads,    500 MiB Core
         ---------------------------------------------------------

  ==> Geometry <==

    Molecular point group: c1
    Full point group: C1

    Geometry (in Angstrom), charge = 0, multiplicity = 1:

       Center              X                  Y                   Z               Mass       
    ------------   -----------------  -----------------  -----------------  -----------------
           C          0.107672508131     0.053630183242    -3.526042728723    12.000000000000
           C         -0.970327491869     0.626630183242    -2.853042728723    12.000000000000
           C          1.143672508131    -0.541369816758    -2.806042728723    12.000000000000
           C         -1.013327491869     0.605630183242    -1.459042728723    12.000000000000
           C          1.100672508131    -0.562369816758    -1.412042728723    12.000000000000
           C         -0.020327491869    -1.223369816758     1.387957271277    12.000000000000
           C         -0.066327491869     1.180630183242     1.422957271277    12.000000000000
           C         -0.063327491869    -1.190369816758     2.772957271277    12.000000000000
           C         -0.106327491869     1.106630183242     2.804957271277    12.000000000000
           C          0.022672508131     0.010630183242    -0.738042728723    12.000000000000
           C         -0.022327491869    -0.010369816758     0.707957271277    12.000000000000
           N         -0.106327491869    -0.052369816758     3.500957271277    14.003074004780
           H          0.139672508131     0.068630183242    -4.612042728723     1.007825032070
           H         -1.778327491869     1.087630183242    -3.414042728723     1.007825032070
           H          1.982672508131    -0.989369816758    -3.330042728723     1.007825032070
           H         -1.861327491869     1.056630183242    -0.948042728723     1.007825032070
           H          1.915672508131    -1.030369816758    -0.864042728723     1.007825032070
           H          0.013672508131    -2.174369816758     0.864957271277     1.007825032070
           H         -0.069327491869     2.145630183242     0.925957271277     1.007825032070
           H         -0.061327491869    -2.109369816758     3.349957271277     1.007825032070
           H         -0.142327491869     2.006630183242     3.408957271277     1.007825032070

  Running in c1 symmetry.

  Rotational constants: A =      0.09742  B =      0.01824  C =      0.01668 [cm^-1]
  Rotational constants: A =   2920.60730  B =    546.95894  C =    500.10863 [MHz]
  Nuclear repulsion =  605.970148106308898

  Charge       = 0
  Multiplicity = 1
  Electrons    = 82
  Nalpha       = 41
  Nbeta        = 41

  ==> Algorithm <==

  SCF Algorithm Type is DF.
  DIIS enabled.
  MOM disabled.
  Fractional occupation disabled.
  Guess Type is SAD.
  Energy threshold   = 1.00e-10
  Density threshold  = 1.00e-10
  Integral threshold = 0.00e+00

  ==> Primary Basis <==

  Basis Set: AUG-CC-PVTZ
    Blend: AUG-CC-PVTZ
    Number of shells: 249
    Number of basis function: 759
    Number of Cartesian functions: 885
    Spherical Harmonics?: true
    Max angular momentum: 3

   => Loading Basis Set <=

    Name: (AUG-CC-PVTZ AUX)
    Role: JKFIT
    Keyword: DF_BASIS_SCF
    atoms 1-11  entry C          line   161 file /cbio/jclab/home/chayas/anaconda/envs/py35/share/psi4/basis/aug-cc-pvtz-jkfit.gbs 
    atoms 12    entry N          line   223 file /cbio/jclab/home/chayas/anaconda/envs/py35/share/psi4/basis/aug-cc-pvtz-jkfit.gbs 
    atoms 13-21 entry H          line    69 file /cbio/jclab/home/chayas/anaconda/envs/py35/share/psi4/basis/aug-cc-pvtz-jkfit.gbs 

  ==> Pre-Iterations <==

   -------------------------------------------------------
    Irrep   Nso     Nmo     Nalpha   Nbeta   Ndocc  Nsocc
   -------------------------------------------------------
     A        759     759       0       0       0       0
   -------------------------------------------------------
    Total     759     759      41      41      41       0
   -------------------------------------------------------

  ==> Integral Setup <==

  ==> DFJK: Density-Fitted J/K Matrices <==

    J tasked:                  Yes
    K tasked:                  Yes
    wK tasked:                  No
    OpenMP threads:              8
    Integrals threads:           8
    Memory (MB):               375
    Algorithm:                Disk
    Integral Cache:           NONE
    Schwarz Cutoff:          1E-12
    Fitting Condition:       1E-12

   => Auxiliary Basis Set <=

  Basis Set: (AUG-CC-PVTZ AUX)
    Blend: AUG-CC-PVTZ-JKFIT
    Number of shells: 486
    Number of basis function: 1662
    Number of Cartesian functions: 2067
    Spherical Harmonics?: true
    Max angular momentum: 4

  Minimum eigenvalue in the overlap matrix is 4.7990920542E-07.
  Using Symmetric Orthogonalization.

  SCF Guess: Superposition of Atomic Densities via on-the-fly atomic UHF.

  ==> Iterations <==

                           Total Energy        Delta E     RMS |[F,P]|

   @DF-RHF iter   0:  -482.77577804627487   -4.82776e+02   1.37521e-02 
   @DF-RHF iter   1:  -476.08062534274859    6.69515e+00   1.41816e-03 
   @DF-RHF iter   2:  -476.34322778656826   -2.62602e-01   4.49304e-04 DIIS
   @DF-RHF iter   3:  -476.38136074488375   -3.81330e-02   4.50527e-04 DIIS
   @DF-RHF iter   4:  -476.39464772190178   -1.32870e-02   1.04928e-04 DIIS
   @DF-RHF iter   5:  -476.39626408685854   -1.61636e-03   4.13720e-05 DIIS
   @DF-RHF iter   6:  -476.39656011668302   -2.96030e-04   1.36426e-05 DIIS
   @DF-RHF iter   7:  -476.39659690369842   -3.67870e-05   6.20090e-06 DIIS
   @DF-RHF iter   8:  -476.39660043757942   -3.53388e-06   2.21969e-06 DIIS
   @DF-RHF iter   9:  -476.39660153772854   -1.10015e-06   1.38819e-06 DIIS
   @DF-RHF iter  10:  -476.39660195464643   -4.16918e-07   3.85536e-07 DIIS
   @DF-RHF iter  11:  -476.39660202217215   -6.75257e-08   1.18532e-07 DIIS
   @DF-RHF iter  12:  -476.39660202634889   -4.17674e-09   3.32693e-08 DIIS
   @DF-RHF iter  13:  -476.39660202665618   -3.07296e-10   2.42906e-08 DIIS
   @DF-RHF iter  14:  -476.39660202673019   -7.40101e-11   1.14833e-08 DIIS
   @DF-RHF iter  15:  -476.39660202673508   -4.88853e-12   3.61975e-09 DIIS
   @DF-RHF iter  16:  -476.39660202676839   -3.33102e-11   2.18708e-09 DIIS
   @DF-RHF iter  17:  -476.39660202671712    5.12728e-11   6.37097e-10 DIIS
   @DF-RHF iter  18:  -476.39660202676407   -4.69527e-11   3.80033e-10 DIIS
   @DF-RHF iter  19:  -476.39660202676055    3.52429e-12   1.43013e-10 DIIS
   @DF-RHF iter  20:  -476.39660202674656    1.39835e-11   7.92043e-11 DIIS

  ==> Post-Iterations <==

    Orbital Energies (a.u.)
    -----------------------

    Doubly Occupied:                                                      

       1A    -15.565277     2A    -11.275357     3A    -11.275139  
       4A    -11.263471     5A    -11.250934     6A    -11.245873  
       7A    -11.245733     8A    -11.244535     9A    -11.244446  
      10A    -11.242975    11A    -11.238924    12A    -11.238672  
      13A     -1.250844    14A     -1.173459    15A     -1.107004  
      16A     -1.036217    17A     -1.024118    18A     -1.015955  
      19A     -0.881194    20A     -0.860673    21A     -0.832599  
      22A     -0.805613    23A     -0.730021    24A     -0.683645  
      25A     -0.669230    26A     -0.657256    27A     -0.633518  
      28A     -0.631785    29A     -0.600702    30A     -0.595417  
      31A     -0.578697    32A     -0.540063    33A     -0.525994  
      34A     -0.508547    35A     -0.505711    36A     -0.501544  
      37A     -0.419393    38A     -0.388171    39A     -0.352219  
      40A     -0.344987    41A     -0.332584  

    Virtual:                                                              

      42A      0.025218    43A      0.030767    44A      0.032685  
      45A      0.037032    46A      0.043471    47A      0.046944  
      48A      0.051177    49A      0.053974    50A      0.060482  
      51A      0.080506    52A      0.085421    53A      0.089776  
      54A      0.093391    55A      0.094038    56A      0.098052  
      57A      0.100840    58A      0.107539    59A      0.107574  
      60A      0.110675    61A      0.114478    62A      0.114763  
      63A      0.119828    64A      0.122194    65A      0.126323  
      66A      0.129101    67A      0.130075    68A      0.132284  
      69A      0.135390    70A      0.143168    71A      0.144555  
      72A      0.144585    73A      0.149081    74A      0.151361  
      75A      0.154146    76A      0.157475    77A      0.159792  
      78A      0.172279    79A      0.176146    80A      0.176668  
      81A      0.188144    82A      0.189773    83A      0.200332  
      84A      0.205018    85A      0.214054    86A      0.225991  
      87A      0.227880    88A      0.234799    89A      0.240070  
      90A      0.242294    91A      0.242813    92A      0.247966  
      93A      0.252392    94A      0.254798    95A      0.260982  
      96A      0.265488    97A      0.265600    98A      0.270751  
      99A      0.272646   100A      0.278674   101A      0.281778  
     102A      0.286222   103A      0.293525   104A      0.294944  
     105A      0.299714   106A      0.304800   107A      0.305216  
     108A      0.312955   109A      0.316189   110A      0.318961  
     111A      0.324414   112A      0.325959   113A      0.329899  
     114A      0.332109   115A      0.332361   116A      0.344910  
     117A      0.350893   118A      0.358490   119A      0.360556  
     120A      0.363053   121A      0.363315   122A      0.374422  
     123A      0.383986   124A      0.388948   125A      0.395118  
     126A      0.398624   127A      0.409066   128A      0.413124  
     129A      0.415615   130A      0.417493   131A      0.423047  
     132A      0.427663   133A      0.439653   134A      0.441307  
     135A      0.442695   136A      0.444324   137A      0.446253  
     138A      0.447087   139A      0.459573   140A      0.462326  
     141A      0.469320   142A      0.472610   143A      0.475274  
     144A      0.477594   145A      0.480810   146A      0.481048  
     147A      0.486867   148A      0.487437   149A      0.488856  
     150A      0.490649   151A      0.499467   152A      0.501117  
     153A      0.508252   154A      0.511732   155A      0.513093  
     156A      0.516921   157A      0.520597   158A      0.522609  
     159A      0.524962   160A      0.531098   161A      0.531975  
     162A      0.537396   163A      0.540923   164A      0.547438  
     165A      0.548308   166A      0.552478   167A      0.554783  
     168A      0.557492   169A      0.570201   170A      0.571691  
     171A      0.578565   172A      0.587568   173A      0.591897  
     174A      0.601852   175A      0.605131   176A      0.609291  
     177A      0.617309   178A      0.626383   179A      0.629717  
     180A      0.636029   181A      0.638266   182A      0.642126  
     183A      0.656957   184A      0.666678   185A      0.673464  
     186A      0.675517   187A      0.680592   188A      0.685680  
     189A      0.689068   190A      0.696774   191A      0.700760  
     192A      0.704867   193A      0.705230   194A      0.715290  
     195A      0.715833   196A      0.722011   197A      0.730018  
     198A      0.737323   199A      0.741877   200A      0.745294  
     201A      0.746166   202A      0.751343   203A      0.767728  
     204A      0.774629   205A      0.781601   206A      0.784693  
     207A      0.795635   208A      0.800939   209A      0.807549  
     210A      0.816241   211A      0.822743   212A      0.826320  
     213A      0.831909   214A      0.849447   215A      0.849866  
     216A      0.859152   217A      0.865200   218A      0.868108  
     219A      0.868905   220A      0.873986   221A      0.875662  
     222A      0.885682   223A      0.888559   224A      0.891983  
     225A      0.893503   226A      0.900088   227A      0.904532  
     228A      0.911084   229A      0.914522   230A      0.915263  
     231A      0.924969   232A      0.925338   233A      0.929914  
     234A      0.934423   235A      0.937496   236A      0.947556  
     237A      0.951302   238A      0.953439   239A      0.956059  
     240A      0.967105   241A      0.972247   242A      0.976063  
     243A      0.983706   244A      0.990378   245A      0.992742  
     246A      0.995421   247A      0.995990   248A      1.006547  
     249A      1.009561   250A      1.014268   251A      1.016086  
     252A      1.026740   253A      1.028645   254A      1.040336  
     255A      1.042135   256A      1.046476   257A      1.046622  
     258A      1.056118   259A      1.060056   260A      1.068383  
     261A      1.077515   262A      1.078091   263A      1.083830  
     264A      1.088724   265A      1.091679   266A      1.093457  
     267A      1.100058   268A      1.101855   269A      1.105411  
     270A      1.105502   271A      1.120904   272A      1.126544  
     273A      1.131176   274A      1.135300   275A      1.139962  
     276A      1.141820   277A      1.151523   278A      1.152131  
     279A      1.158007   280A      1.164474   281A      1.166662  
     282A      1.174852   283A      1.184375   284A      1.186775  
     285A      1.189375   286A      1.193237   287A      1.199276  
     288A      1.200923   289A      1.201527   290A      1.212592  
     291A      1.214572   292A      1.220210   293A      1.224919  
     294A      1.240998   295A      1.245059   296A      1.252945  
     297A      1.256342   298A      1.262473   299A      1.264404  
     300A      1.266696   301A      1.275171   302A      1.282351  
     303A      1.286537   304A      1.297632   305A      1.299004  
     306A      1.303788   307A      1.311879   308A      1.313545  
     309A      1.320464   310A      1.327265   311A      1.347644  
     312A      1.352921   313A      1.362988   314A      1.374160  
     315A      1.378463   316A      1.383548   317A      1.385028  
     318A      1.396749   319A      1.407473   320A      1.409390  
     321A      1.413645   322A      1.422144   323A      1.433212  
     324A      1.433704   325A      1.439967   326A      1.453419  
     327A      1.468939   328A      1.471700   329A      1.477914  
     330A      1.486556   331A      1.499601   332A      1.499951  
     333A      1.513682   334A      1.529949   335A      1.538908  
     336A      1.545035   337A      1.550845   338A      1.563900  
     339A      1.567548   340A      1.570356   341A      1.579910  
     342A      1.590081   343A      1.591061   344A      1.599698  
     345A      1.603764   346A      1.624989   347A      1.635578  
     348A      1.637869   349A      1.646034   350A      1.649068  
     351A      1.666025   352A      1.678676   353A      1.687685  
     354A      1.688117   355A      1.696572   356A      1.705607  
     357A      1.711772   358A      1.719617   359A      1.725434  
     360A      1.732846   361A      1.733585   362A      1.741445  
     363A      1.742123   364A      1.749880   365A      1.758845  
     366A      1.771372   367A      1.778770   368A      1.801287  
     369A      1.811882   370A      1.820409   371A      1.821364  
     372A      1.825387   373A      1.838696   374A      1.842519  
     375A      1.850612   376A      1.856885   377A      1.866024  
     378A      1.885900   379A      1.886446   380A      1.898065  
     381A      1.904881   382A      1.911214   383A      1.914401  
     384A      1.925554   385A      1.932278   386A      1.945752  
     387A      1.946297   388A      1.958185   389A      1.973919  
     390A      1.978341   391A      1.987679   392A      1.994675  
     393A      1.997129   394A      2.001681   395A      2.005446  
     396A      2.020121   397A      2.032649   398A      2.034763  
     399A      2.037845   400A      2.050379   401A      2.052048  
     402A      2.063436   403A      2.071430   404A      2.081852  
     405A      2.089790   406A      2.090659   407A      2.096124  
     408A      2.103695   409A      2.114605   410A      2.115805  
     411A      2.141139   412A      2.144003   413A      2.156799  
     414A      2.161929   415A      2.162384   416A      2.169279  
     417A      2.182187   418A      2.188742   419A      2.191301  
     420A      2.203227   421A      2.208991   422A      2.209355  
     423A      2.230429   424A      2.243836   425A      2.249056  
     426A      2.257772   427A      2.267082   428A      2.284643  
     429A      2.290000   430A      2.300229   431A      2.319410  
     432A      2.324057   433A      2.331736   434A      2.335943  
     435A      2.352971   436A      2.364044   437A      2.367842  
     438A      2.368487   439A      2.384267   440A      2.391359  
     441A      2.406879   442A      2.418289   443A      2.427762  
     444A      2.431894   445A      2.457712   446A      2.480895  
     447A      2.481609   448A      2.490437   449A      2.516549  
     450A      2.523211   451A      2.544312   452A      2.547671  
     453A      2.565460   454A      2.567919   455A      2.585137  
     456A      2.586406   457A      2.602281   458A      2.603943  
     459A      2.626444   460A      2.634660   461A      2.652597  
     462A      2.677346   463A      2.704800   464A      2.713585  
     465A      2.744290   466A      2.757969   467A      2.760773  
     468A      2.778764   469A      2.793896   470A      2.816286  
     471A      2.840186   472A      2.841102   473A      2.853812  
     474A      2.878735   475A      2.884122   476A      2.970430  
     477A      2.970762   478A      2.991302   479A      3.066635  
     480A      3.072446   481A      3.083600   482A      3.146821  
     483A      3.167120   484A      3.169115   485A      3.194534  
     486A      3.195888   487A      3.220591   488A      3.239486  
     489A      3.242545   490A      3.252356   491A      3.252484  
     492A      3.287157   493A      3.310026   494A      3.318710  
     495A      3.339126   496A      3.348064   497A      3.356925  
     498A      3.373658   499A      3.380248   500A      3.397576  
     501A      3.405944   502A      3.411810   503A      3.418621  
     504A      3.437092   505A      3.439618   506A      3.442605  
     507A      3.448369   508A      3.452769   509A      3.457728  
     510A      3.469536   511A      3.484325   512A      3.487791  
     513A      3.503347   514A      3.511385   515A      3.535783  
     516A      3.541511   517A      3.542017   518A      3.545804  
     519A      3.553939   520A      3.563473   521A      3.574924  
     522A      3.579622   523A      3.582722   524A      3.590457  
     525A      3.600075   526A      3.610147   527A      3.612572  
     528A      3.630644   529A      3.646348   530A      3.648854  
     531A      3.662410   532A      3.678345   533A      3.680440  
     534A      3.687630   535A      3.701284   536A      3.702924  
     537A      3.723723   538A      3.723943   539A      3.735420  
     540A      3.742145   541A      3.776035   542A      3.778146  
     543A      3.786860   544A      3.788679   545A      3.807585  
     546A      3.826133   547A      3.826398   548A      3.837840  
     549A      3.845779   550A      3.857392   551A      3.859539  
     552A      3.862416   553A      3.868472   554A      3.877707  
     555A      3.892189   556A      3.906355   557A      3.913667  
     558A      3.919055   559A      3.929203   560A      3.942447  
     561A      3.944414   562A      3.955205   563A      3.958655  
     564A      3.967993   565A      3.977729   566A      3.989405  
     567A      3.998191   568A      4.005021   569A      4.015406  
     570A      4.024497   571A      4.028093   572A      4.033209  
     573A      4.039097   574A      4.041658   575A      4.055780  
     576A      4.060159   577A      4.082425   578A      4.086900  
     579A      4.103260   580A      4.106014   581A      4.111218  
     582A      4.124463   583A      4.134151   584A      4.141710  
     585A      4.147912   586A      4.156364   587A      4.162397  
     588A      4.174641   589A      4.181618   590A      4.205600  
     591A      4.206315   592A      4.221177   593A      4.226565  
     594A      4.235587   595A      4.245507   596A      4.270693  
     597A      4.284674   598A      4.292963   599A      4.307864  
     600A      4.309434   601A      4.315106   602A      4.316623  
     603A      4.322342   604A      4.350531   605A      4.351230  
     606A      4.358002   607A      4.381843   608A      4.382572  
     609A      4.388852   610A      4.395078   611A      4.404905  
     612A      4.415887   613A      4.430930   614A      4.435646  
     615A      4.444700   616A      4.447461   617A      4.452195  
     618A      4.474182   619A      4.479894   620A      4.485730  
     621A      4.493062   622A      4.499322   623A      4.505199  
     624A      4.505556   625A      4.534404   626A      4.552273  
     627A      4.553919   628A      4.578365   629A      4.590200  
     630A      4.619247   631A      4.645520   632A      4.647216  
     633A      4.675943   634A      4.693173   635A      4.710009  
     636A      4.716211   637A      4.718547   638A      4.734005  
     639A      4.735380   640A      4.742244   641A      4.772328  
     642A      4.778772   643A      4.802950   644A      4.823504  
     645A      4.845033   646A      4.859524   647A      4.876520  
     648A      4.896719   649A      4.916833   650A      4.920687  
     651A      4.945344   652A      4.951770   653A      4.964058  
     654A      4.964581   655A      4.984430   656A      5.008462  
     657A      5.012471   658A      5.018720   659A      5.020595  
     660A      5.032493   661A      5.032978   662A      5.062496  
     663A      5.064509   664A      5.085730   665A      5.094899  
     666A      5.111685   667A      5.120294   668A      5.137456  
     669A      5.143913   670A      5.148963   671A      5.157133  
     672A      5.160628   673A      5.170251   674A      5.175825  
     675A      5.185348   676A      5.192162   677A      5.193028  
     678A      5.196737   679A      5.240153   680A      5.252872  
     681A      5.272153   682A      5.283376   683A      5.323549  
     684A      5.335226   685A      5.345701   686A      5.351044  
     687A      5.358817   688A      5.378047   689A      5.381833  
     690A      5.388791   691A      5.425511   692A      5.444767  
     693A      5.457434   694A      5.469418   695A      5.473673  
     696A      5.479183   697A      5.521108   698A      5.526932  
     699A      5.559285   700A      5.569841   701A      5.587531  
     702A      5.647669   703A      5.662157   704A      5.708949  
     705A      5.756295   706A      5.770824   707A      5.773416  
     708A      5.783903   709A      5.794488   710A      5.801166  
     711A      5.824782   712A      5.851203   713A      5.865574  
     714A      5.884037   715A      5.908708   716A      5.979800  
     717A      6.021152   718A      6.080732   719A      6.139655  
     720A      6.167309   721A      6.195553   722A      6.226121  
     723A      6.243965   724A      6.270727   725A      6.272809  
     726A      6.311060   727A      6.334328   728A      6.344641  
     729A      6.393093   730A      6.490096   731A      6.494751  
     732A      6.571862   733A      6.581664   734A      6.602980  
     735A      6.696274   736A      6.716580   737A      6.733293  
     738A      6.800816   739A      6.874521   740A      6.895202  
     741A      6.923570   742A      7.015401   743A      7.044758  
     744A      7.085701   745A      7.177056   746A      7.345874  
     747A      7.420152   748A     15.608482   749A     16.185892  
     750A     16.570241   751A     16.692456   752A     18.418565  
     753A     18.716481   754A     19.021692   755A     19.201388  
     756A     19.968699   757A     19.976707   758A     20.191547  
     759A     21.885608  

    Final Occupation by Irrep:
              A 
    DOCC [    41 ]

  Energy converged.

  @DF-RHF Final Energy:  -476.39660202674656

   => Energetics <=

    Nuclear Repulsion Energy =            605.9701481063088977
    One-Electron Energy =               -1845.6965149396189645
    Two-Electron Energy =                 763.3297648065635030
    DFT Exchange-Correlation Energy =       0.0000000000000000
    Empirical Dispersion Energy =           0.0000000000000000
    PCM Polarization Energy =               0.0000000000000000
    EFP Energy =                            0.0000000000000000
    Total Energy =                       -476.3966020267465638



Properties will be evaluated at   0.000000,   0.000000,   0.000000 Bohr

Properties computed using the SCF density matrix

  Nuclear Dipole Moment: (a.u.)
     X:     0.1307      Y:     0.0580      Z:    -4.3398

  Electronic Dipole Moment: (a.u.)
     X:    -0.0985      Y:    -0.0440      Z:     3.2659

  Dipole Moment: (a.u.)
     X:     0.0322      Y:     0.0140      Z:    -1.0739     Total:     1.0745

  Dipole Moment: (Debye)
     X:     0.0818      Y:     0.0355      Z:    -2.7296     Total:     2.7310


*** tstop() called on gpu-2-9.local at Sat Nov 11 09:46:43 2017
Module time:
	user time   =    1271.77 seconds =      21.20 minutes
	system time =      41.31 seconds =       0.69 minutes
	total time  =        371 seconds =       6.18 minutes
Total time:
	user time   =    1271.77 seconds =      21.20 minutes
	system time =      41.31 seconds =       0.69 minutes
	total time  =        371 seconds =       6.18 minutes

  //>>>>>>>>>>>>>>>>>>>>>>>>>>>>>>>>>>>//
  //               DFMP2               //
  //<<<<<<<<<<<<<<<<<<<<<<<<<<<<<<<<<<<//

   => Loading Basis Set <=

    Name: (AUG-CC-PVTZ AUX)
    Role: RIFIT
    Keyword: DF_BASIS_MP2
    atoms 1-11  entry C          line   147 file /cbio/jclab/home/chayas/anaconda/envs/py35/share/psi4/basis/aug-cc-pvtz-ri.gbs 
    atoms 12    entry N          line   205 file /cbio/jclab/home/chayas/anaconda/envs/py35/share/psi4/basis/aug-cc-pvtz-ri.gbs 
    atoms 13-21 entry H          line    29 file /cbio/jclab/home/chayas/anaconda/envs/py35/share/psi4/basis/aug-cc-pvtz-ri.gbs 

	 --------------------------------------------------------
	                          DF-MP2                         
	      2nd-Order Density-Fitted Moller-Plesset Theory     
	              RMP2 Wavefunction,   8 Threads             
	                                                         
	        Rob Parrish, Justin Turney, Andy Simmonett,      
	           Ed Hohenstein, and C. David Sherrill          
	 --------------------------------------------------------

   => Auxiliary Basis Set <=

  Basis Set: (AUG-CC-PVTZ AUX)
    Blend: AUG-CC-PVTZ-RI
    Number of shells: 462
    Number of basis function: 1686
    Number of Cartesian functions: 2127
    Spherical Harmonics?: true
    Max angular momentum: 4

	 --------------------------------------------------------
	                 NBF =   759, NAUX =  1686
	 --------------------------------------------------------
	   CLASS    FOCC     OCC    AOCC    AVIR     VIR    FVIR
	   PAIRS       0      41      41     718     718       0
	 --------------------------------------------------------


         ------------------------------------------------------------
                                     CPHF                           
                                  Rob Parrish                       
         ------------------------------------------------------------

  ==> Geometry <==

    Molecular point group: c1
    Full point group: C1

    Geometry (in Angstrom), charge = 0, multiplicity = 1:

       Center              X                  Y                   Z               Mass       
    ------------   -----------------  -----------------  -----------------  -----------------
           C          0.107672508131     0.053630183242    -3.526042728723    12.000000000000
           C         -0.970327491869     0.626630183242    -2.853042728723    12.000000000000
           C          1.143672508131    -0.541369816758    -2.806042728723    12.000000000000
           C         -1.013327491869     0.605630183242    -1.459042728723    12.000000000000
           C          1.100672508131    -0.562369816758    -1.412042728723    12.000000000000
           C         -0.020327491869    -1.223369816758     1.387957271277    12.000000000000
           C         -0.066327491869     1.180630183242     1.422957271277    12.000000000000
           C         -0.063327491869    -1.190369816758     2.772957271277    12.000000000000
           C         -0.106327491869     1.106630183242     2.804957271277    12.000000000000
           C          0.022672508131     0.010630183242    -0.738042728723    12.000000000000
           C         -0.022327491869    -0.010369816758     0.707957271277    12.000000000000
           N         -0.106327491869    -0.052369816758     3.500957271277    14.003074004780
           H          0.139672508131     0.068630183242    -4.612042728723     1.007825032070
           H         -1.778327491869     1.087630183242    -3.414042728723     1.007825032070
           H          1.982672508131    -0.989369816758    -3.330042728723     1.007825032070
           H         -1.861327491869     1.056630183242    -0.948042728723     1.007825032070
           H          1.915672508131    -1.030369816758    -0.864042728723     1.007825032070
           H          0.013672508131    -2.174369816758     0.864957271277     1.007825032070
           H         -0.069327491869     2.145630183242     0.925957271277     1.007825032070
           H         -0.061327491869    -2.109369816758     3.349957271277     1.007825032070
           H         -0.142327491869     2.006630183242     3.408957271277     1.007825032070

  Nuclear repulsion =  605.970148106308898
  Reference energy  = -476.396602026746564

  ==> Basis Set <==

  Basis Set: AUG-CC-PVTZ
    Blend: AUG-CC-PVTZ
    Number of shells: 249
    Number of basis function: 759
    Number of Cartesian functions: 885
    Spherical Harmonics?: true
    Max angular momentum: 3

  ==> CGRSolver (by Rob Parrish) <==

   Number of roots    =         1
   Preconditioning    =    JACOBI
   Convergence cutoff =     1E-06
   Maximum iterations =       100

  ==> CPHFRHamiltonian (by Rob Parrish) <== 

  ==> DFJK: Density-Fitted J/K Matrices <==

    J tasked:                  Yes
    K tasked:                  Yes
    wK tasked:                  No
    OpenMP threads:              8
    Integrals threads:           8
    Memory (MB):               375
    Algorithm:                Disk
    Integral Cache:           NONE
    Schwarz Cutoff:          1E-12
    Fitting Condition:       1E-12

   => Auxiliary Basis Set <=

  Basis Set: (AUG-CC-PVTZ AUX)
    Blend: AUG-CC-PVTZ-JKFIT
    Number of shells: 486
    Number of basis function: 1662
    Number of Cartesian functions: 2067
    Spherical Harmonics?: true
    Max angular momentum: 4

  ==> CPHF Iterations <==

  => Iterations <=

             Iter  Converged  Remaining    Residual
  CGR           1          0          1   8.188E-02
  CGR           2          0          1   3.041E-02
  CGR           3          0          1   2.081E-02
  CGR           4          0          1   8.901E-03
  CGR           5          0          1   2.474E-03
  CGR           6          0          1   8.509E-04
  CGR           7          0          1   3.405E-04
  CGR           8          0          1   1.064E-04
  CGR           9          0          1   5.224E-05
  CGR          10          0          1   2.409E-05
  CGR          11          0          1   7.176E-06
  CGR          12          0          1   2.855E-06
  CGR          13          1          0   7.941E-07

    CGRSolver converged.

  ==> DFCorrGrad: Density-Fitted Correlated Gradients <==

    OpenMP threads:              8
    Integrals threads:           8
    Memory (MB):               375
    Schwarz Cutoff:          0E+00
    Fitting Condition:       1E-12

   => Auxiliary Basis Set <=

  Basis Set: (AUG-CC-PVTZ AUX)
    Blend: AUG-CC-PVTZ-JKFIT
    Number of shells: 486
    Number of basis function: 1662
    Number of Cartesian functions: 2067
    Spherical Harmonics?: true
    Max angular momentum: 4

	-----------------------------------------------------------
	 ==================> DF-MP2 Energies <==================== 
	-----------------------------------------------------------
	 Reference Energy          =    -476.3966020267465638 [Eh]
	 Singles Energy            =      -0.0000000000000002 [Eh]
	 Same-Spin Energy          =      -0.5345257474655254 [Eh]
	 Opposite-Spin Energy      =      -1.6424158065233718 [Eh]
	 Correlation Energy        =      -2.1769415539888972 [Eh]
	 Total Energy              =    -478.5735435807354747 [Eh]
	-----------------------------------------------------------
	 ================> DF-SCS-MP2 Energies <================== 
	-----------------------------------------------------------
	 SCS Same-Spin Scale       =       0.3333333333333333 [-]
	 SCS Opposite-Spin Scale   =       1.2000000000000000 [-]
	 SCS Same-Spin Energy      =      -0.1781752491551751 [Eh]
	 SCS Opposite-Spin Energy  =      -1.9708989678280462 [Eh]
	 SCS Correlation Energy    =      -2.1490742169832213 [Eh]
	 SCS Total Energy          =    -478.5456762437297584 [Eh]
	-----------------------------------------------------------


  -Total Gradient:
     Atom            X                  Y                   Z
    ------   -----------------  -----------------  -----------------
       1       -0.000426775417     0.000408693021     0.000106028807
       2       -0.001078978454     0.000512845231    -0.001110108718
       3        0.002045961104    -0.000783052157    -0.000881548940
       4       -0.000046360105    -0.003113127087     0.008404837124
       5       -0.001048653236     0.003248358078     0.008628537125
       6       -0.002035424769    -0.003135926748    -0.007530249854
       7        0.002454469359     0.002949019419    -0.006256067531
       8       -0.000284474334    -0.007766960865    -0.010912423260
       9        0.000968300460     0.008501699528    -0.011889367570
      10        0.000304059454    -0.000719951340     0.010442398446
      11       -0.000160746341     0.000903461613     0.000232537052
      12       -0.000551639756    -0.000169157151     0.016789373468
      13        0.000088696556     0.000028593564    -0.005131577933
      14       -0.003507606934     0.002146752599    -0.002534925179
      15        0.003379124846    -0.002144820550    -0.002248532187
      16       -0.005350641430     0.003467669658     0.000176361932
      17        0.005277462960    -0.003466585863     0.000378933119
      18        0.000589777444    -0.005465754144    -0.000301322234
      19       -0.000585358754     0.005125200716    -0.000234902185
      20        0.000390905437    -0.002087632163     0.001950737651
      21       -0.000422098089     0.001560674636     0.001921280860


*** tstop() called on gpu-2-9.local at Sat Nov 11 10:12:35 2017
Module time:
	user time   =    6019.83 seconds =     100.33 minutes
	system time =      95.95 seconds =       1.60 minutes
	total time  =       1923 seconds =      32.05 minutes
Total time:
	user time   =    6019.83 seconds =     100.33 minutes
	system time =      95.95 seconds =       1.60 minutes
	total time  =       1923 seconds =      32.05 minutes

			-----------------------------------------
			 OPTKING 2.0: for geometry optimizations 
			  - R.A. King,  Bethel University        
			-----------------------------------------

	Internal coordinates to be generated automatically.
	Detected frag 1 with atoms:  1 2 3 4 5 6 7 8 9 10 11 12 13 14 15 16 17 18 19 20
	 21
	---Fragment 1 Bond Connectivity---
	 1 : 2 3 13
	 2 : 1 4 14
	 3 : 1 5 15
	 4 : 2 10 16
	 5 : 3 10 17
	 6 : 8 11 18
	 7 : 9 11 19
	 8 : 6 12 20
	 9 : 7 12 21
	 10 : 4 5 11
	 11 : 6 7 10
	 12 : 8 9
	 13 : 1
	 14 : 2
	 15 : 3
	 16 : 4
	 17 : 5
	 18 : 6
	 19 : 7
	 20 : 8
	 21 : 9

	Assuming in current code that numbering for constraints corresponds to unified fragment.
	Fixed dihedral atom list: 
	     4    10    11     6
	---Fragment 1 Geometry and Gradient---
	 C           0.2034715524        0.1013463588       -6.6632550901
	 C          -1.8336532188        1.1841594329       -5.3914694027
	 C           2.1612278261       -1.0230406903       -5.3026522745
	 C          -1.9149114426        1.1444751841       -2.7571911735
	 C           2.0799696024       -1.0627249391       -2.6683740452
	 C          -0.0384133926       -2.3118339129        2.6228591269
	 C          -0.1253407947        2.2310677105        2.6889995415
	 C          -0.1196716163       -2.2494729505        5.2401298209
	 C          -0.2009298400        2.0912279767        5.3006010572
	 C           0.0428448311        0.0200881351       -1.3946986317
	 C          -0.0421928449       -0.0195961137        1.3378453565
	 N          -0.2009298400       -0.0989646113        6.6158504456
	 H           0.2639427887        0.1296922508       -8.7154976705
	 H          -3.3605519342        2.0553231802       -6.4516057633
	 H           3.7467080516       -1.8696379978       -6.2928687681
	 H          -3.5173992032        1.9967416701       -1.7915411196
	 H           3.6200964007       -1.9471167693       -1.6328041244
	 H           0.0258372959       -4.1089634653        1.6345323594
	 H          -0.1310099731        4.0546534288        1.7498056535
	 H          -0.1158921640       -3.9861312666        6.3305017996
	 H          -0.2689599808        3.7919814963        6.4419956414
	            -0.0004267754        0.0004086930        0.0001060288
	            -0.0010789785        0.0005128452       -0.0011101087
	             0.0020459611       -0.0007830522       -0.0008815489
	            -0.0000463601       -0.0031131271        0.0084048371
	            -0.0010486532        0.0032483581        0.0086285371
	            -0.0020354248       -0.0031359267       -0.0075302499
	             0.0024544694        0.0029490194       -0.0062560675
	            -0.0002844743       -0.0077669609       -0.0109124233
	             0.0009683005        0.0085016995       -0.0118893676
	             0.0003040595       -0.0007199513        0.0104423984
	            -0.0001607463        0.0009034616        0.0002325371
	            -0.0005516398       -0.0001691572        0.0167893735
	             0.0000886966        0.0000285936       -0.0051315779
	            -0.0035076069        0.0021467526       -0.0025349252
	             0.0033791248       -0.0021448205       -0.0022485322
	            -0.0053506414        0.0034676697        0.0001763619
	             0.0052774630       -0.0034665859        0.0003789331
	             0.0005897774       -0.0054657541       -0.0003013222
	            -0.0005853588        0.0051252007       -0.0002349022
	             0.0003909054       -0.0020876322        0.0019507377
	            -0.0004220981        0.0015606746        0.0019212809

	Previous optimization step data not found.  Starting new optimization.

	---Fragment 1 Intrafragment Coordinates---
	 - Coordinate -           - BOHR/RAD -       - ANG/DEG -
	 R(1,2)           =         2.634350	       1.394038
	 R(1,3)           =         2.635962	       1.394891
	 R(1,13)          =         2.053329	       1.086575
	 R(2,4)           =         2.635830	       1.394821
	 R(2,14)          =         2.052860	       1.086327
	 R(3,5)           =         2.635830	       1.394821
	 R(3,15)          =         2.052073	       1.085910
	 R(4,10)          =         2.636938	       1.395407
	 R(4,16)          =         2.055920	       1.087946
	 R(5,10)          =         2.635263	       1.394521
	 R(5,17)          =         2.055856	       1.087912
	 R(6,8)           =         2.619274	       1.386060
	 R(6,11)          =         2.627856	       1.390602
	 R(6,18)          =         2.051973	       1.085857
	 R(7,9)           =         2.616435	       1.384558
	 R(7,11)          =         2.626408	       1.389835
	 R(7,19)          =         2.051239	       1.085469
	 R(8,12)          =         2.554192	       1.351620
	 R(8,20)          =         2.050587	       1.085124
	 R(9,12)          =         2.554765	       1.351923
	 R(9,21)          =         2.049383	       1.084487
	 R(10,11)         =         2.734155	       1.446852
	 B(1,2,4)         =         2.094553	     120.009056
	 B(1,2,14)        =         2.094726	     120.018942
	 B(1,3,5)         =         2.093692	     119.959722
	 B(1,3,15)        =         2.095250	     120.048965
	 B(2,1,3)         =         2.094940	     120.031219
	 B(2,1,13)        =         2.093950	     119.974480
	 B(2,4,10)        =         2.094306	     119.994870
	 B(2,4,16)        =         2.079681	     119.156970
	 B(3,1,13)        =         2.094293	     119.994160
	 B(3,5,10)        =         2.095181	     120.045019
	 B(3,5,17)        =         2.079222	     119.130634
	 B(4,2,14)        =         2.093904	     119.971849
	 B(4,10,5)        =         2.093699	     119.960108
	 B(4,10,11)       =         2.093804	     119.966144
	 B(5,3,15)        =         2.094242	     119.991253
	 B(5,10,11)       =         2.095682	     120.073736
	 B(6,8,12)        =         2.164257	     124.002802
	 B(6,8,20)        =         2.107271	     120.737726
	 B(6,11,7)        =         2.089752	     119.733945
	 B(6,11,10)       =         2.095925	     120.087680
	 B(7,9,12)        =         2.164809	     124.034410
	 B(7,9,21)        =         2.108914	     120.831894
	 B(7,11,10)       =         2.097508	     120.178342
	 B(8,6,11)        =         2.057608	     117.892267
	 B(8,6,18)        =         2.097980	     120.205418
	 B(8,12,9)        =         2.031428	     116.392227
	 B(9,7,11)        =         2.058517	     117.944324
	 B(9,7,19)        =         2.099548	     120.295241
	 B(10,4,16)       =         2.109198	     120.848149
	 B(10,5,17)       =         2.108782	     120.824331
	 B(11,6,18)       =         2.127597	     121.902315
	 B(11,7,19)       =         2.125120	     121.760430
	 B(12,8,20)       =         2.011653	     115.259249
	 B(12,9,21)       =         2.009461	     115.133615
	 D(1,2,4,10)      =        -0.000325	      -0.018609
	 D(1,2,4,16)      =        -3.141283	    -179.982244
	 D(1,3,5,10)      =         0.000325	       0.018608
	 D(1,3,5,17)      =         3.141117	     179.972749
	 D(2,1,3,5)       =        -0.000348	      -0.019945
	 D(2,1,3,15)      =         3.139689	     179.890913
	 D(2,4,10,5)      =         0.000301	       0.017261
	 D(2,4,10,11)     =         3.141198	     179.977407
	 D(3,1,2,4)       =         0.000348	       0.019955
	 D(3,1,2,14)      =        -3.138767	    -179.838124
	 D(3,5,10,4)      =        -0.000301	      -0.017270
	 D(3,5,10,11)     =        -3.141198	    -179.977373
	 D(4,2,1,13)      =         3.139559	     179.883471
	 D(4,10,5,17)     =        -3.141080	    -179.970623
	 D(4,10,11,6)     =         2.095118	     120.041424
	 D(4,10,11,7)     =        -1.047622	     -60.024311
	 D(5,3,1,13)      =        -3.139558	    -179.883434
	 D(5,10,4,16)     =         3.141248	     179.980271
	 D(5,10,11,6)     =        -1.047171	     -59.998476
	 D(5,10,11,7)     =         2.093274	     119.935789
	 D(6,8,12,9)      =         0.000174	       0.009978
	 D(6,11,7,9)      =         0.000517	       0.029623
	 D(6,11,7,19)     =        -3.141515	    -179.995531
	 D(7,9,12,8)      =         0.000654	       0.037465
	 D(7,11,6,8)      =         0.000225	       0.012898
	 D(7,11,6,18)     =        -3.141242	    -179.979915
	 D(8,6,11,10)     =         3.140676	     179.947457
	 D(8,12,9,21)     =         3.140440	     179.933969
	 D(9,7,11,10)     =        -3.139932	    -179.904876
	 D(9,12,8,20)     =         3.138776	     179.838646
	 D(10,4,2,14)     =         3.138792	     179.839537
	 D(10,5,3,15)     =        -3.139713	    -179.892302
	 D(10,11,6,18)    =        -0.000792	      -0.045356
	 D(10,11,7,19)    =         0.001221	       0.069970
	 D(11,6,8,12)     =        -0.000600	      -0.034397
	 D(11,6,8,20)     =        -3.139047	    -179.854121
	 D(11,7,9,12)     =        -0.001000	      -0.057324
	 D(11,7,9,21)     =        -3.140689	    -179.948206
	 D(11,10,4,16)    =        -0.001040	      -0.059583
	 D(11,10,5,17)    =         0.001209	       0.069274
	 D(12,8,6,18)     =         3.140869	     179.958543
	 D(12,9,7,19)     =         3.141024	     179.967446
	 D(13,1,2,14)     =         0.000443	       0.025392
	 D(13,1,3,15)     =         0.000479	       0.027424
	 D(14,2,4,16)     =        -0.002166	      -0.124098
	 D(15,3,5,17)     =         0.001079	       0.061840
	 D(18,6,8,20)     =         0.002423	       0.138820
	 D(19,7,9,21)     =         0.001336	       0.076564

	Current energy   :      -478.5735435807

	Generating empirical Hessian (Schlegel '84) for each fragment.
	Adding user-defined constraint: Fragment 1; Coordinate 71:
		Value =     2.095118; Fixed value    =     2.094395
		Force =    -0.000361; Force constant =     0.500000
	Removing off-diagonal coupling between coordinate 71 and others.
	Taking RFO optimization step.
	Going to follow RFO solution 1.
	Using RFO vector 1.

	Determining step-restricting scale parameter for RS-RFO.
	Maximum step size allowed    0.10000

	 Iter      |step|        alpha        rfo_root  
	------------------------------------------------
	    0     0.16949       1.00000           1
	    1     0.13219       4.32722           1
	    2     0.11266       9.59950           1
	    3     0.10300      15.00089           1
	    4     0.10021      17.14388           1
	    5     0.10000      17.32039           1
	------------------------------------------------
	Norm of target step-size    0.10000
	Projected energy change by RFO approximation:        -0.0034077045

	Back-transformation to cartesian coordinates...
	Could not converge backtransformation.
	Using first guess instead.

	--- Internal Coordinate Step in ANG or DEG, aJ/ANG or AJ/DEG ---
	 ---------------------------------------------------------------------------
	   Coordinate                Previous        Force       Change         New 
	   ----------                --------       ------       ------       ------
	    1 R(1,2)          =      1.394038    -0.046885    -0.005795     1.388243
	    2 R(1,3)          =      1.394891    -0.052390    -0.006502     1.388389
	    3 R(1,13)         =      1.086575    -0.042280    -0.006585     1.079990
	    4 R(2,4)          =      1.394821    -0.048677    -0.005945     1.388876
	    5 R(2,14)         =      1.086327    -0.039785    -0.006191     1.080136
	    6 R(3,5)          =      1.394821    -0.048636    -0.005947     1.388874
	    7 R(3,15)         =      1.085910    -0.037739    -0.005860     1.080050
	    8 R(4,10)         =      1.395407    -0.023253    -0.002724     1.392683
	    9 R(4,16)         =      1.087946    -0.046886    -0.007264     1.080682
	   10 R(5,10)         =      1.394521    -0.018227    -0.002045     1.392476
	   11 R(5,17)         =      1.087912    -0.046431    -0.007217     1.080695
	   12 R(6,8)          =      1.386060     0.003985     0.000425     1.386485
	   13 R(6,11)         =      1.390602    -0.015374    -0.001253     1.389349
	   14 R(6,18)         =      1.085857    -0.040786    -0.006329     1.079528
	   15 R(7,9)          =      1.384558     0.012532     0.001512     1.386070
	   16 R(7,11)         =      1.389835    -0.009884    -0.000452     1.389383
	   17 R(7,19)         =      1.085469    -0.038438    -0.005968     1.079501
	   18 R(8,12)         =      1.351620    -0.118126    -0.012868     1.338752
	   19 R(8,20)         =      1.085124    -0.023118    -0.003574     1.081549
	   20 R(9,12)         =      1.351923    -0.118765    -0.012924     1.338999
	   21 R(9,21)         =      1.084487    -0.019602    -0.003023     1.081464
	   22 R(10,11)        =      1.446852     0.133782     0.019237     1.466090
	   23 B(1,2,4)        =    120.009056     0.000031     0.049993   120.059050
	   24 B(1,2,14)       =    120.018942    -0.000012    -0.010819   120.008123
	   25 B(1,3,5)        =    119.959722     0.000041     0.074048   120.033770
	   26 B(1,3,15)       =    120.048965    -0.000018    -0.027760   120.021206
	   27 B(2,1,3)        =    120.031219    -0.000044    -0.172662   119.858557
	   28 B(2,1,13)       =    119.974480     0.000025     0.095958   120.070438
	   29 B(2,4,10)       =    119.994870     0.000160     0.436041   120.430911
	   30 B(2,4,16)       =    119.156970     0.000143     0.547262   119.704233
	   31 B(3,1,13)       =    119.994160     0.000019     0.076689   120.070849
	   32 B(3,5,10)       =    120.045019     0.000151     0.412722   120.457741
	   33 B(3,5,17)       =    119.130634     0.000146     0.555324   119.685958
	   34 B(4,2,14)       =    119.971849    -0.000020    -0.039318   119.932531
	   35 B(4,10,5)       =    119.960108    -0.000339    -0.800496   119.159613
	   36 B(4,10,11)      =    119.966144     0.000181     0.427660   120.393803
	   37 B(5,3,15)       =    119.991253    -0.000023    -0.046230   119.945024
	   38 B(5,10,11)      =    120.073736     0.000158     0.371641   120.445377
	   39 B(6,8,12)       =    124.002802     0.000006    -0.102988   123.899814
	   40 B(6,8,20)       =    120.737726    -0.000044    -0.089350   120.648376
	   41 B(6,11,7)       =    119.733945    -0.000886    -2.004063   117.729882
	   42 B(6,11,10)      =    120.087680     0.000452     1.024643   121.112323
	   43 B(7,9,12)       =    124.034410    -0.000018    -0.146579   123.887831
	   44 B(7,9,21)       =    120.831894    -0.000048    -0.122633   120.709261
	   45 B(7,11,10)      =    120.178342     0.000433     0.978357   121.156699
	   46 B(8,6,11)       =    117.892267     0.000394     1.118028   119.010295
	   47 B(8,6,18)       =    120.205418    -0.000013     0.073546   120.278964
	   48 B(8,12,9)       =    116.392227     0.000130     0.045004   116.437231
	   49 B(9,7,11)       =    117.944324     0.000374     1.090307   119.034631
	   50 B(9,7,19)       =    120.295241    -0.000018     0.030766   120.326007
	   51 B(10,4,16)      =    120.848149    -0.000302    -0.983664   119.864485
	   52 B(10,5,17)      =    120.824331    -0.000297    -0.968385   119.855946
	   53 B(11,6,18)      =    121.902315    -0.000381    -1.191810   120.710505
	   54 B(11,7,19)      =    121.760430    -0.000355    -1.121484   120.638946
	   55 B(12,8,20)      =    115.259249     0.000038     0.192448   115.451697
	   56 B(12,9,21)      =    115.133615     0.000066     0.269228   115.402842
	   57 D(1,2,4,10)     =     -0.018609    -0.000001     0.007496    -0.011113
	   58 D(1,2,4,16)     =   -179.982244     0.000004     0.192935  -179.789309
	   59 D(1,3,5,10)     =      0.018608    -0.000003    -0.166028    -0.147420
	   60 D(1,3,5,17)     =    179.972749     0.000003     0.096700   180.069449
	   61 D(2,1,3,5)      =     -0.019945     0.000001     0.006136    -0.013809
	   62 D(2,1,3,15)     =    179.890913     0.000003     0.082028   179.972941
	   63 D(2,4,10,5)     =      0.017261    -0.000002    -0.164918    -0.147657
	   64 D(2,4,10,11)    =    179.977407     0.000004     0.272856   180.250263
	   65 D(3,1,2,4)      =      0.019955     0.000001     0.072682     0.092636
	   66 D(3,1,2,14)     =   -179.838124     0.000002     0.128983  -179.709141
	   67 D(3,5,10,4)     =     -0.017270     0.000004     0.244151     0.226881
	   68 D(3,5,10,11)    =   -179.977373    -0.000002    -0.193877  -180.171250
	   69 D(4,2,1,13)     =    179.883471     0.000002     0.065724   179.949195
	   70 D(4,10,5,17)    =   -179.970623    -0.000002    -0.019733  -179.990356
	   71 D(4,10,11,6)    =    120.041424     0.000015     0.196505   120.237929
	   72 D(4,10,11,7)    =    -60.024311     0.000021     0.651768   -59.372542
	   73 D(5,3,1,13)     =   -179.883434     0.000000     0.013067  -179.870366
	   74 D(5,10,4,16)    =    179.980271    -0.000007    -0.350087   179.630184
	   75 D(5,10,11,6)    =    -59.998476     0.000021     0.639473   -59.359003
	   76 D(5,10,11,7)    =    119.935789     0.000027     1.094737   121.030526
	   77 D(6,8,12,9)     =      0.009978     0.000000     0.028075     0.038052
	   78 D(6,11,7,9)     =      0.029623     0.000002     0.174775     0.204398
	   79 D(6,11,7,19)    =   -179.995531    -0.000003    -0.033882  -180.029413
	   80 D(7,9,12,8)     =      0.037465    -0.000001    -0.059323    -0.021858
	   81 D(7,11,6,8)     =      0.012898    -0.000003    -0.202538    -0.189640
	   82 D(7,11,6,18)    =   -179.979915    -0.000008    -0.386245  -180.366160
	   83 D(8,6,11,10)    =    179.947457     0.000003     0.239496   180.186953
	   84 D(8,12,9,21)    =    179.933969     0.000004     0.136996   180.070965
	   85 D(9,7,11,10)    =   -179.904876    -0.000004    -0.267495  -180.172371
	   86 D(9,12,8,20)    =    179.838646     0.000007     0.320971   180.159616
	   87 D(10,4,2,14)    =    179.839537    -0.000002    -0.048722   179.790815
	   88 D(10,5,3,15)    =   -179.892302    -0.000005    -0.241878  -180.134180
	   89 D(10,11,6,18)   =     -0.045356    -0.000001     0.055789     0.010433
	   90 D(10,11,7,19)   =      0.069970    -0.000009    -0.476152    -0.406182
	   91 D(11,6,8,12)    =     -0.034397     0.000002     0.104626     0.070229
	   92 D(11,6,8,20)    =   -179.854121    -0.000005    -0.203239  -180.057360
	   93 D(11,7,9,12)    =     -0.057324    -0.000000    -0.044751    -0.102076
	   94 D(11,7,9,21)    =   -179.948206    -0.000006    -0.251393  -180.199600
	   95 D(11,10,4,16)   =     -0.059583    -0.000001     0.087687     0.028104
	   96 D(11,10,5,17)   =      0.069274    -0.000008    -0.457762    -0.388487
	   97 D(12,8,6,18)    =    179.958543     0.000006     0.287425   180.245968
	   98 D(12,9,7,19)    =    179.967446     0.000005     0.163539   180.130985
	   99 D(13,1,2,14)    =      0.025392     0.000003     0.122026     0.147418
	  100 D(13,1,3,15)    =      0.027424     0.000002     0.088959     0.116383
	  101 D(14,2,4,16)    =     -0.124098     0.000003     0.136716     0.012619
	  102 D(15,3,5,17)    =      0.061840     0.000001     0.020850     0.082689
	  103 D(18,6,8,20)    =      0.138820    -0.000001    -0.020440     0.118380
	  104 D(19,7,9,21)    =      0.076564    -0.000001    -0.043103     0.033461
	 ---------------------------------------------------------------------------
	Successfully symmetrized geometry.
	 Forces used to impose fixed constraints are not included.
	  Forces zeroed: 71 

  ==> Convergence Check <==

  Measures of convergence in internal coordinates in au.
  Criteria marked as inactive (o), active & met (*), and active & unmet ( ).
  --------------------------------------------------------------------------------------------- ~
   Step     Total Energy     Delta E     MAX Force     RMS Force      MAX Disp      RMS Disp    ~
  --------------------------------------------------------------------------------------------- ~
    Convergence Criteria    1.00e-06 *    3.00e-04 *             o    1.20e-03 *             o  ~
  --------------------------------------------------------------------------------------------- ~
      1    -478.57354358   -4.79e+02      1.62e-02      3.70e-03 o    3.64e-02      9.81e-03 o  ~
  ---------------------------------------------------------------------------------------------

	Writing optimization data to binary file.
	Structure for next step:
	Cartesian Geometry (in Angstrom)
	    C     0.1064210840   0.0512662628  -3.5431599190
	    C    -0.9621566048   0.6273908623  -2.8697803586
	    C     1.1351335758  -0.5445604862  -2.8259673905
	    C    -1.0008699027   0.6093433385  -1.4815616455
	    C     1.0945865195  -0.5634770718  -1.4378145588
	    C    -0.0126071620  -1.2088056721   1.4096144878
	    C    -0.0718410209   1.1686247107   1.4467511581
	    C    -0.0595933850  -1.1801829839   2.7950076779
	    C    -0.1159582198   1.0951071357   2.8301663978
	    C     0.0279306980   0.0151589372  -0.7548695168
	    C    -0.0164467052  -0.0082554818   0.7103613265
	    N    -0.1106518737  -0.0541392658   3.5172789710
	    H     0.1363089399   0.0644716286  -4.6226558428
	    H    -1.7660810959   1.0874361628  -3.4254397475
	    H     1.9675308871  -0.9939546426  -3.3471847948
	    H    -1.8371312442   1.0565110832  -0.9633130499
	    H     1.8988870901  -1.0277793832  -0.8851609106
	    H     0.0234473190  -2.1519243208   0.8855839327
	    H    -0.0767322107   2.1277833690   0.9514599396
	    H    -0.0587818833  -2.0988543700   3.3657891364
	    H    -0.1562721344   1.9940740354   3.4299974039
			--------------------------
			 OPTKING Finished Execution 
			--------------------------

    Structure for next step:
    Molecular point group: c1
    Full point group: C1

    Geometry (in Angstrom), charge = 0, multiplicity = 1:

    C            0.105918597921     0.051012099190    -3.542841908947
    C           -0.962659090792     0.627136698764    -2.869462348532
    C            1.134631089814    -0.544814649764    -2.825649380499
    C           -1.001372388717     0.609089174960    -1.481243635500
    C            1.094084033440    -0.563731235430    -1.437496548728
    C           -0.013109648051    -1.209059835632     1.409932497820
    C           -0.072343506926     1.168370547135     1.447069168081
    C           -0.060095871075    -1.180437147531     2.795325687974
    C           -0.116460705830     1.094852972078     2.830484407826
    C            0.027428211932     0.014904773655    -0.754551506819
    C           -0.016949191275    -0.008509645417     0.710679336483
    N           -0.111154359694    -0.054393429343     3.517596981052
    H            0.135806453893     0.064217465024    -4.622337832805
    H           -1.766583581894     1.087181999223    -3.425121737494
    H            1.967028401062    -0.994208806144    -3.346866784778
    H           -1.837633730221     1.056256919647    -0.962995039873
    H            1.898384604025    -1.028033546779    -0.884842900589
    H            0.022944833004    -2.152178484413     0.885901942745
    H           -0.077234696743     2.127529205439     0.951777949651
    H           -0.059284369356    -2.099108533615     3.366107146386
    H           -0.156774620396     1.993819871807     3.430315413889

gradient() will perform analytic gradient computation.

*** tstart() called on gpu-2-9.local
*** at Sat Nov 11 10:12:37 2017

    SCF Algorithm Type (re)set to DF.

*** tstart() called on gpu-2-9.local
*** at Sat Nov 11 10:12:37 2017

   => Loading Basis Set <=

    Name: AUG-CC-PVTZ
    Role: ORBITAL
    Keyword: BASIS
    atoms 1-11  entry C          line   221 file /cbio/jclab/home/chayas/anaconda/envs/py35/share/psi4/basis/aug-cc-pvtz.gbs 
    atoms 12    entry N          line   267 file /cbio/jclab/home/chayas/anaconda/envs/py35/share/psi4/basis/aug-cc-pvtz.gbs 
    atoms 13-21 entry H          line    34 file /cbio/jclab/home/chayas/anaconda/envs/py35/share/psi4/basis/aug-cc-pvtz.gbs 


         ---------------------------------------------------------
                                   SCF
            by Justin Turney, Rob Parrish, and Andy Simmonett
                              RHF Reference
                        8 Threads,    500 MiB Core
         ---------------------------------------------------------

  ==> Geometry <==

    Molecular point group: c1
    Full point group: C1

    Geometry (in Angstrom), charge = 0, multiplicity = 1:

       Center              X                  Y                   Z               Mass       
    ------------   -----------------  -----------------  -----------------  -----------------
           C          0.105918597921     0.051012099190    -3.542841908947    12.000000000000
           C         -0.962659090792     0.627136698764    -2.869462348532    12.000000000000
           C          1.134631089814    -0.544814649764    -2.825649380499    12.000000000000
           C         -1.001372388717     0.609089174960    -1.481243635500    12.000000000000
           C          1.094084033440    -0.563731235430    -1.437496548728    12.000000000000
           C         -0.013109648051    -1.209059835632     1.409932497820    12.000000000000
           C         -0.072343506926     1.168370547135     1.447069168081    12.000000000000
           C         -0.060095871075    -1.180437147531     2.795325687974    12.000000000000
           C         -0.116460705830     1.094852972078     2.830484407826    12.000000000000
           C          0.027428211932     0.014904773655    -0.754551506819    12.000000000000
           C         -0.016949191275    -0.008509645417     0.710679336483    12.000000000000
           N         -0.111154359694    -0.054393429343     3.517596981052    14.003074004780
           H          0.135806453893     0.064217465024    -4.622337832805     1.007825032070
           H         -1.766583581894     1.087181999223    -3.425121737494     1.007825032070
           H          1.967028401062    -0.994208806144    -3.346866784778     1.007825032070
           H         -1.837633730221     1.056256919647    -0.962995039873     1.007825032070
           H          1.898384604025    -1.028033546779    -0.884842900589     1.007825032070
           H          0.022944833004    -2.152178484413     0.885901942745     1.007825032070
           H         -0.077234696743     2.127529205439     0.951777949651     1.007825032070
           H         -0.059284369356    -2.099108533615     3.366107146386     1.007825032070
           H         -0.156774620396     1.993819871807     3.430315413889     1.007825032070

  Running in c1 symmetry.

  Rotational constants: A =      0.09893  B =      0.01802  C =      0.01649 [cm^-1]
  Rotational constants: A =   2965.70772  B =    540.18780  C =    494.32543 [MHz]
  Nuclear repulsion =  605.809068705581467

  Charge       = 0
  Multiplicity = 1
  Electrons    = 82
  Nalpha       = 41
  Nbeta        = 41

  ==> Algorithm <==

  SCF Algorithm Type is DF.
  DIIS enabled.
  MOM disabled.
  Fractional occupation disabled.
  Guess Type is READ.
  Energy threshold   = 1.00e-10
  Density threshold  = 1.00e-10
  Integral threshold = 0.00e+00

  ==> Primary Basis <==

  Basis Set: AUG-CC-PVTZ
    Blend: AUG-CC-PVTZ
    Number of shells: 249
    Number of basis function: 759
    Number of Cartesian functions: 885
    Spherical Harmonics?: true
    Max angular momentum: 3

   => Loading Basis Set <=

    Name: (AUG-CC-PVTZ AUX)
    Role: JKFIT
    Keyword: DF_BASIS_SCF
    atoms 1-11  entry C          line   161 file /cbio/jclab/home/chayas/anaconda/envs/py35/share/psi4/basis/aug-cc-pvtz-jkfit.gbs 
    atoms 12    entry N          line   223 file /cbio/jclab/home/chayas/anaconda/envs/py35/share/psi4/basis/aug-cc-pvtz-jkfit.gbs 
    atoms 13-21 entry H          line    69 file /cbio/jclab/home/chayas/anaconda/envs/py35/share/psi4/basis/aug-cc-pvtz-jkfit.gbs 

  Reading orbitals from file 180, no projection.

  ==> Pre-Iterations <==

   -------------------------------------------------------
    Irrep   Nso     Nmo     Nalpha   Nbeta   Ndocc  Nsocc
   -------------------------------------------------------
     A        759     759       0       0       0       0
   -------------------------------------------------------
    Total     759     759      41      41      41       0
   -------------------------------------------------------

  ==> Integral Setup <==

  ==> DFJK: Density-Fitted J/K Matrices <==

    J tasked:                  Yes
    K tasked:                  Yes
    wK tasked:                  No
    OpenMP threads:              8
    Integrals threads:           8
    Memory (MB):               375
    Algorithm:                Disk
    Integral Cache:           NONE
    Schwarz Cutoff:          1E-12
    Fitting Condition:       1E-12

   => Auxiliary Basis Set <=

  Basis Set: (AUG-CC-PVTZ AUX)
    Blend: AUG-CC-PVTZ-JKFIT
    Number of shells: 486
    Number of basis function: 1662
    Number of Cartesian functions: 2067
    Spherical Harmonics?: true
    Max angular momentum: 4

  Minimum eigenvalue in the overlap matrix is 4.7168064870E-07.
  Using Symmetric Orthogonalization.

  SCF Guess: Orbitals guess was supplied from a previous computation.

  ==> Iterations <==

                           Total Energy        Delta E     RMS |[F,P]|

   @DF-RHF iter   0:  -476.53545124426455   -4.76535e+02   3.45522e-04 
   @DF-RHF iter   1:  -476.39973782747671    1.35713e-01   1.24600e-04 
   @DF-RHF iter   2:  -476.40054508269583   -8.07255e-04   1.26991e-04 DIIS
   @DF-RHF iter   3:  -476.40117218231927   -6.27100e-04   1.69037e-05 DIIS
   @DF-RHF iter   4:  -476.40118368305315   -1.15007e-05   4.99312e-06 DIIS
   @DF-RHF iter   5:  -476.40118577390450   -2.09085e-06   1.73162e-06 DIIS
   @DF-RHF iter   6:  -476.40118618694044   -4.13036e-07   8.08580e-07 DIIS
   @DF-RHF iter   7:  -476.40118636043775   -1.73497e-07   3.11305e-07 DIIS
   @DF-RHF iter   8:  -476.40118640547394   -4.50362e-08   1.54593e-07 DIIS
   @DF-RHF iter   9:  -476.40118640969126   -4.21733e-09   5.15640e-08 DIIS
   @DF-RHF iter  10:  -476.40118641004989   -3.58625e-10   1.35902e-08 DIIS
   @DF-RHF iter  11:  -476.40118641014874   -9.88507e-11   4.36940e-09 DIIS
   @DF-RHF iter  12:  -476.40118641011395    3.47882e-11   1.27844e-09 DIIS
   @DF-RHF iter  13:  -476.40118641012936   -1.54046e-11   8.14393e-10 DIIS
   @DF-RHF iter  14:  -476.40118641014578   -1.64277e-11   3.24621e-10 DIIS
   @DF-RHF iter  15:  -476.40118641012043    2.53522e-11   1.91174e-10 DIIS
   @DF-RHF iter  16:  -476.40118641013930   -1.88720e-11   9.22062e-11 DIIS

  ==> Post-Iterations <==

    Orbital Energies (a.u.)
    -----------------------

    Doubly Occupied:                                                      

       1A    -15.563414     2A    -11.273105     3A    -11.273078  
       4A    -11.264583     5A    -11.252158     6A    -11.243673  
       7A    -11.243591     8A    -11.242559     9A    -11.242283  
      10A    -11.240877    11A    -11.237690    12A    -11.237630  
      13A     -1.257709    14A     -1.174700    15A     -1.107969  
      16A     -1.035651    17A     -1.025993    18A     -1.018803  
      19A     -0.880084    20A     -0.862884    21A     -0.834888  
      22A     -0.807766    23A     -0.731918    24A     -0.687231  
      25A     -0.670865    26A     -0.656942    27A     -0.635008  
      28A     -0.633831    29A     -0.599435    30A     -0.595838  
      31A     -0.582194    32A     -0.542993    33A     -0.525870  
      34A     -0.509921    35A     -0.508125    36A     -0.501602  
      37A     -0.419100    38A     -0.390762    39A     -0.351237  
      40A     -0.345491    41A     -0.334584  

    Virtual:                                                              

      42A      0.025212    43A      0.030847    44A      0.032669  
      45A      0.037178    46A      0.043419    47A      0.046991  
      48A      0.051433    49A      0.054069    50A      0.060540  
      51A      0.081029    52A      0.085699    53A      0.089897  
      54A      0.093496    55A      0.093896    56A      0.098415  
      57A      0.100843    58A      0.107510    59A      0.108009  
      60A      0.110849    61A      0.114420    62A      0.114766  
      63A      0.119870    64A      0.121918    65A      0.126318  
      66A      0.129226    67A      0.130312    68A      0.132359  
      69A      0.135305    70A      0.143358    71A      0.144443  
      72A      0.144592    73A      0.149565    74A      0.151903  
      75A      0.153945    76A      0.157013    77A      0.159817  
      78A      0.172040    79A      0.175972    80A      0.176764  
      81A      0.187808    82A      0.189896    83A      0.200549  
      84A      0.204933    85A      0.214283    86A      0.225789  
      87A      0.228179    88A      0.234840    89A      0.239562  
      90A      0.242129    91A      0.242581    92A      0.247823  
      93A      0.251808    94A      0.254558    95A      0.260705  
      96A      0.265503    97A      0.265595    98A      0.270652  
      99A      0.272751   100A      0.278603   101A      0.282861  
     102A      0.287195   103A      0.294029   104A      0.295746  
     105A      0.300180   106A      0.305926   107A      0.306127  
     108A      0.312750   109A      0.316701   110A      0.319755  
     111A      0.325317   112A      0.326497   113A      0.330533  
     114A      0.332105   115A      0.333047   116A      0.344935  
     117A      0.350841   118A      0.358389   119A      0.361196  
     120A      0.363182   121A      0.364021   122A      0.375595  
     123A      0.384312   124A      0.389156   125A      0.395454  
     126A      0.399067   127A      0.409617   128A      0.413571  
     129A      0.416185   130A      0.417182   131A      0.424003  
     132A      0.427217   133A      0.438700   134A      0.441836  
     135A      0.443695   136A      0.444491   137A      0.446316  
     138A      0.448435   139A      0.458857   140A      0.462206  
     141A      0.472331   142A      0.473203   143A      0.477490  
     144A      0.478147   145A      0.481136   146A      0.482047  
     147A      0.485699   148A      0.486853   149A      0.489300  
     150A      0.491888   151A      0.499817   152A      0.501556  
     153A      0.507719   154A      0.511325   155A      0.512718  
     156A      0.517065   157A      0.521570   158A      0.522229  
     159A      0.526533   160A      0.531649   161A      0.532743  
     162A      0.539132   163A      0.540747   164A      0.547256  
     165A      0.550535   166A      0.552159   167A      0.553371  
     168A      0.556299   169A      0.569624   170A      0.571977  
     171A      0.578784   172A      0.589548   173A      0.592387  
     174A      0.599805   175A      0.605949   176A      0.607504  
     177A      0.615301   178A      0.626546   179A      0.630081  
     180A      0.634900   181A      0.638183   182A      0.643633  
     183A      0.659110   184A      0.668039   185A      0.673892  
     186A      0.675566   187A      0.680651   188A      0.686814  
     189A      0.689466   190A      0.697603   191A      0.701103  
     192A      0.706047   193A      0.707563   194A      0.714543  
     195A      0.716605   196A      0.721419   197A      0.731988  
     198A      0.740729   199A      0.744403   200A      0.745641  
     201A      0.748613   202A      0.750593   203A      0.768682  
     204A      0.774128   205A      0.781334   206A      0.784874  
     207A      0.796654   208A      0.800562   209A      0.811359  
     210A      0.819596   211A      0.824891   212A      0.827581  
     213A      0.830829   214A      0.850097   215A      0.852562  
     216A      0.859821   217A      0.864222   218A      0.867028  
     219A      0.872398   220A      0.874115   221A      0.876801  
     222A      0.885399   223A      0.887908   224A      0.892369  
     225A      0.893273   226A      0.899546   227A      0.903054  
     228A      0.910714   229A      0.913647   230A      0.916096  
     231A      0.927493   232A      0.928135   233A      0.929723  
     234A      0.936906   235A      0.938529   236A      0.946016  
     237A      0.951913   238A      0.952490   239A      0.957120  
     240A      0.965328   241A      0.970316   242A      0.976025  
     243A      0.983956   244A      0.990091   245A      0.992736  
     246A      0.995447   247A      0.997967   248A      1.004938  
     249A      1.008845   250A      1.014685   251A      1.015991  
     252A      1.025694   253A      1.027383   254A      1.039920  
     255A      1.041406   256A      1.045850   257A      1.046632  
     258A      1.056038   259A      1.058596   260A      1.068049  
     261A      1.076743   262A      1.078420   263A      1.085288  
     264A      1.087727   265A      1.089547   266A      1.094023  
     267A      1.100386   268A      1.100840   269A      1.106005  
     270A      1.108428   271A      1.120775   272A      1.126604  
     273A      1.131606   274A      1.134453   275A      1.139847  
     276A      1.143419   277A      1.150990   278A      1.151996  
     279A      1.157710   280A      1.166254   281A      1.167100  
     282A      1.177530   283A      1.184263   284A      1.189328  
     285A      1.192049   286A      1.195242   287A      1.199187  
     288A      1.200873   289A      1.204000   290A      1.213261  
     291A      1.216572   292A      1.223336   293A      1.223643  
     294A      1.240103   295A      1.246994   296A      1.251631  
     297A      1.256407   298A      1.264723   299A      1.265724  
     300A      1.270635   301A      1.273092   302A      1.280071  
     303A      1.290246   304A      1.297238   305A      1.300065  
     306A      1.305409   307A      1.314253   308A      1.314889  
     309A      1.323967   310A      1.328104   311A      1.346640  
     312A      1.353896   313A      1.362583   314A      1.376134  
     315A      1.379873   316A      1.382635   317A      1.387194  
     318A      1.396784   319A      1.408675   320A      1.409564  
     321A      1.417758   322A      1.423193   323A      1.434574  
     324A      1.434726   325A      1.442033   326A      1.453312  
     327A      1.469635   328A      1.475862   329A      1.479240  
     330A      1.487518   331A      1.500105   332A      1.500883  
     333A      1.514576   334A      1.530522   335A      1.539181  
     336A      1.547794   337A      1.548645   338A      1.562480  
     339A      1.567551   340A      1.570621   341A      1.580813  
     342A      1.588353   343A      1.591334   344A      1.601984  
     345A      1.604985   346A      1.625022   347A      1.636664  
     348A      1.638804   349A      1.646021   350A      1.652382  
     351A      1.666900   352A      1.679588   353A      1.685180  
     354A      1.691531   355A      1.697461   356A      1.710631  
     357A      1.711302   358A      1.721853   359A      1.728528  
     360A      1.730670   361A      1.737196   362A      1.744282  
     363A      1.746562   364A      1.756019   365A      1.757617  
     366A      1.772091   367A      1.781788   368A      1.805141  
     369A      1.811001   370A      1.823835   371A      1.825548  
     372A      1.829853   373A      1.840174   374A      1.846487  
     375A      1.852565   376A      1.858093   377A      1.871974  
     378A      1.887388   379A      1.892797   380A      1.898672  
     381A      1.906388   382A      1.912847   383A      1.921949  
     384A      1.924948   385A      1.935546   386A      1.945488  
     387A      1.947043   388A      1.957352   389A      1.976224  
     390A      1.979109   391A      1.987449   392A      1.997232  
     393A      2.002770   394A      2.003619   395A      2.009176  
     396A      2.022433   397A      2.034010   398A      2.034227  
     399A      2.042380   400A      2.054719   401A      2.055345  
     402A      2.064090   403A      2.070872   404A      2.082841  
     405A      2.088992   406A      2.093828   407A      2.097915  
     408A      2.103852   409A      2.114444   410A      2.116684  
     411A      2.141677   412A      2.144835   413A      2.155743  
     414A      2.159517   415A      2.164164   416A      2.169165  
     417A      2.181339   418A      2.189058   419A      2.193517  
     420A      2.201095   421A      2.207415   422A      2.210562  
     423A      2.229930   424A      2.242225   425A      2.255134  
     426A      2.259043   427A      2.264431   428A      2.286974  
     429A      2.291690   430A      2.299877   431A      2.319505  
     432A      2.328247   433A      2.333546   434A      2.333825  
     435A      2.353858   436A      2.366601   437A      2.370887  
     438A      2.375448   439A      2.385127   440A      2.400273  
     441A      2.405116   442A      2.418127   443A      2.435889  
     444A      2.438211   445A      2.461454   446A      2.482357  
     447A      2.482550   448A      2.489099   449A      2.517019  
     450A      2.528437   451A      2.542918   452A      2.545797  
     453A      2.569753   454A      2.571790   455A      2.588034  
     456A      2.590628   457A      2.602490   458A      2.608575  
     459A      2.627693   460A      2.634845   461A      2.654027  
     462A      2.676910   463A      2.715423   464A      2.716545  
     465A      2.752560   466A      2.758384   467A      2.759053  
     468A      2.785506   469A      2.795050   470A      2.831246  
     471A      2.838745   472A      2.849679   473A      2.851927  
     474A      2.874257   475A      2.892469   476A      2.971279  
     477A      2.975861   478A      2.998470   479A      3.067159  
[...]
	 R(2,14)          =         2.039602	       1.079311
	 R(3,5)           =         2.621268	       1.387115
	 R(3,15)          =         2.039653	       1.079338
	 R(4,10)          =         2.633025	       1.393337
	 R(4,16)          =         2.040875	       1.079985
	 R(5,10)          =         2.633139	       1.393397
	 R(5,17)          =         2.040917	       1.080007
	 R(6,8)           =         2.619864	       1.386372
	 R(6,11)          =         2.627823	       1.390584
	 R(6,18)          =         2.040326	       1.079694
	 R(7,9)           =         2.619682	       1.386276
	 R(7,11)          =         2.627892	       1.390621
	 R(7,19)          =         2.040403	       1.079735
	 R(8,12)          =         2.522789	       1.335003
	 R(8,20)          =         2.042985	       1.081101
	 R(9,12)          =         2.522833	       1.335026
	 R(9,21)          =         2.043009	       1.081114
	 R(10,11)         =         2.768180	       1.464858
	 B(1,2,4)         =         2.095674	     120.073285
	 B(1,2,14)        =         2.095315	     120.052699
	 B(1,3,5)         =         2.095158	     120.043735
	 B(1,3,15)        =         2.095491	     120.062791
	 B(2,1,3)         =         2.091929	     119.858709
	 B(2,1,13)        =         2.095615	     120.069909
	 B(2,4,10)        =         2.101905	     120.430296
	 B(2,4,16)        =         2.099267	     120.279140
	 B(3,1,13)        =         2.095634	     120.070985
	 B(3,5,10)        =         2.102387	     120.457915
	 B(3,5,17)        =         2.099021	     120.265037
	 B(4,2,14)        =         2.092162	     119.872026
	 B(4,10,5)        =         2.079138	     119.125816
	 B(4,10,11)       =         2.099422	     120.288036
	 B(5,3,15)        =         2.092534	     119.893395
	 B(5,10,11)       =         2.103336	     120.512256
	 B(6,8,12)        =         2.158115	     123.650872
	 B(6,8,20)        =         2.096794	     120.137443
	 B(6,11,7)        =         2.044846	     117.161024
	 B(6,11,10)       =         2.117013	     121.295881
	 B(7,9,12)        =         2.157894	     123.638211
	 B(7,9,21)        =         2.097057	     120.152519
	 B(7,11,10)       =         2.120072	     121.471158
	 B(8,6,11)        =         2.083179	     119.357388
	 B(8,6,18)        =         2.100929	     120.374346
	 B(8,12,9)        =         2.038712	     116.809590
	 B(9,7,11)        =         2.083463	     119.373632
	 B(9,7,19)        =         2.100672	     120.359656
	 B(10,4,16)       =         2.081975	     119.288401
	 B(10,5,17)       =         2.081671	     119.270945
	 B(11,6,18)       =         2.099051	     120.266786
	 B(11,7,19)       =         2.098965	     120.261857
	 B(12,8,20)       =         2.028204	     116.207552
	 B(12,9,21)       =         2.028222	     116.208541
	 D(1,2,4,10)      =         0.006053	       0.346785
	 D(1,2,4,16)      =        -3.126134	    -179.114308
	 D(1,3,5,10)      =        -0.010210	      -0.584999
	 D(1,3,5,17)      =        -3.136005	    -179.679845
	 D(2,1,3,5)       =        -0.002685	      -0.153851
	 D(2,1,3,15)      =         3.140699	     179.948813
	 D(2,4,10,5)      =        -0.018690	      -1.070863
	 D(2,4,10,11)     =        -3.106010	    -177.961282
	 D(3,1,2,4)       =         0.004754	       0.272396
	 D(3,1,2,14)      =        -3.127871	    -179.213805
	 D(3,5,10,4)      =         0.020772	       1.190165
	 D(3,5,10,11)     =         3.107968	     178.073430
	 D(4,2,1,13)      =        -3.140839	    -179.956843
	 D(4,10,5,17)     =        -3.136462	    -179.706050
	 D(4,10,11,6)     =         2.101483	     120.406128
	 D(4,10,11,7)     =        -0.984744	     -56.421680
	 D(5,3,1,13)      =        -3.140277	    -179.924610
	 D(5,10,4,16)     =         3.113589	     178.395537
	 D(5,10,11,6)     =        -0.985078	     -56.440817
	 D(5,10,11,7)     =         2.211880	     126.731375
	 D(6,8,12,9)      =         0.000574	       0.032891
	 D(6,11,7,9)      =         0.017468	       1.000854
	 D(6,11,7,19)     =        -3.138062	    -179.797727
	 D(7,9,12,8)      =        -0.003018	      -0.172899
	 D(7,11,6,8)      =        -0.019702	      -1.128845
	 D(7,11,6,18)     =         3.114196	     178.430306
	 D(8,6,11,10)     =        -3.108223	    -178.088070
	 D(8,12,9,21)     =        -3.139185	    -179.862059
	 D(9,7,11,10)     =         3.105890	     177.954394
	 D(9,12,8,20)     =        -3.128094	    -179.226581
	 D(10,4,2,14)     =         3.138694	     179.833920
	 D(10,5,3,15)     =         3.129594	     179.312512
	 D(10,11,6,18)    =         0.025675	       1.471081
	 D(10,11,7,19)    =        -0.049640	      -2.844188
	 D(11,6,8,12)     =         0.011165	       0.639713
	 D(11,6,8,20)     =         3.139349	     179.871460
	 D(11,7,9,12)     =        -0.006340	      -0.363275
	 D(11,7,9,21)     =         3.129623	     179.314200
	 D(11,10,4,16)    =         0.026269	       1.505118
	 D(11,10,5,17)    =        -0.049267	      -2.822786
	 D(12,8,6,18)     =        -3.122725	    -178.918953
	 D(12,9,7,19)     =        -3.133981	    -179.563897
	 D(13,1,2,14)     =         0.009721	       0.556956
	 D(13,1,3,15)     =         0.003108	       0.178054
	 D(14,2,4,16)     =         0.006507	       0.372826
	 D(15,3,5,17)     =         0.003799	       0.217667
	 D(18,6,8,20)     =         0.005459	       0.312794
	 D(19,7,9,21)     =         0.001982	       0.113579

	Current energy   :      -478.5758597762

	Energy change for the previous step:
		Projected    :         0.0000087879
		Actual       :        -0.0000005450

	Performing BFGS update.
	Previous computed or guess Hessian on step 1.
	Steps to be used in Hessian update: 4 3
	Adding user-defined constraint: Fragment 1; Coordinate 71:
		Value =     2.101483; Fixed value    =     2.094400
		Force =    -0.004250; Force constant =     0.600000
	Removing off-diagonal coupling between coordinate 71 and others.
	Taking RFO optimization step.
	Going to follow RFO solution 1.
	Using RFO vector 1.
	Norm of target step-size    0.01683
	Projected energy change by RFO approximation:        -0.0000086894

	Back-transformation to cartesian coordinates...
	Successfully converged to displaced geometry.

	--- Internal Coordinate Step in ANG or DEG, aJ/ANG or AJ/DEG ---
	 ---------------------------------------------------------------------------
	   Coordinate                Previous        Force       Change         New 
	   ----------                --------       ------       ------       ------
	    1 R(1,2)          =      1.388483     0.000082     0.000141     1.388624
	    2 R(1,3)          =      1.388542     0.000040     0.000041     1.388583
	    3 R(1,13)         =      1.079079    -0.000181    -0.000045     1.079034
	    4 R(2,4)          =      1.387152    -0.000197     0.000001     1.387153
	    5 R(2,14)         =      1.079311    -0.000228    -0.000073     1.079238
	    6 R(3,5)          =      1.387115    -0.000182     0.000013     1.387129
	    7 R(3,15)         =      1.079338    -0.000212     0.000015     1.079353
	    8 R(4,10)         =      1.393337     0.000240    -0.000063     1.393274
	    9 R(4,16)         =      1.079985    -0.000236    -0.000012     1.079973
	   10 R(5,10)         =      1.393397    -0.000300     0.000051     1.393448
	   11 R(5,17)         =      1.080007    -0.000174    -0.000064     1.079942
	   12 R(6,8)          =      1.386372    -0.000377     0.000029     1.386401
	   13 R(6,11)         =      1.390584     0.000350    -0.000038     1.390546
	   14 R(6,18)         =      1.079694    -0.000328     0.000043     1.079737
	   15 R(7,9)          =      1.386276    -0.000260     0.000034     1.386310
	   16 R(7,11)         =      1.390621    -0.000122     0.000110     1.390730
	   17 R(7,19)         =      1.079735    -0.000258    -0.000013     1.079722
	   18 R(8,12)         =      1.335003     0.000290    -0.000062     1.334941
	   19 R(8,20)         =      1.081101    -0.000005    -0.000022     1.081079
	   20 R(9,12)         =      1.335026     0.000197    -0.000145     1.334881
	   21 R(9,21)         =      1.081114    -0.000029     0.000055     1.081169
	   22 R(10,11)        =      1.464858     0.000615     0.000291     1.465148
	   23 B(1,2,4)        =    120.073285    -0.000001     0.001073   120.074357
	   24 B(1,2,14)       =    120.052699     0.000000     0.012259   120.064958
	   25 B(1,3,5)        =    120.043735    -0.000000     0.002149   120.045884
	   26 B(1,3,15)       =    120.062791    -0.000000     0.011733   120.074524
	   27 B(2,1,3)        =    119.858709    -0.000001    -0.006375   119.852334
	   28 B(2,1,13)       =    120.069909     0.000001     0.006197   120.076106
	   29 B(2,4,10)       =    120.430296     0.000002     0.001607   120.431903
	   30 B(2,4,16)       =    120.279140    -0.000001     0.016101   120.295241
	   31 B(3,1,13)       =    120.070985     0.000000     0.000008   120.070993
	   32 B(3,5,10)       =    120.457915     0.000003    -0.000357   120.457558
	   33 B(3,5,17)       =    120.265037    -0.000002     0.014047   120.279084
	   34 B(4,2,14)       =    119.872026     0.000000    -0.013252   119.858775
	   35 B(4,10,5)       =    119.125816    -0.000003     0.001467   119.127283
	   36 B(4,10,11)      =    120.288036    -0.000005     0.017889   120.305925
	   37 B(5,3,15)       =    119.893395     0.000000    -0.013949   119.879446
	   38 B(5,10,11)      =    120.512256     0.000008    -0.019059   120.493197
	   39 B(6,8,12)       =    123.650872    -0.000002    -0.014905   123.635967
	   40 B(6,8,20)       =    120.137443     0.000001    -0.007507   120.129936
	   41 B(6,11,7)       =    117.161024    -0.000003    -0.021789   117.139235
	   42 B(6,11,10)      =    121.295881    -0.000005     0.026268   121.322150
	   43 B(7,9,12)       =    123.638211    -0.000002    -0.021255   123.616956
	   44 B(7,9,21)       =    120.152519     0.000001    -0.005758   120.146762
	   45 B(7,11,10)      =    121.471158     0.000008    -0.003663   121.467495
	   46 B(8,6,11)       =    119.357388     0.000002     0.015956   119.373345
	   47 B(8,6,18)       =    120.374346    -0.000002     0.008326   120.382672
	   48 B(8,12,9)       =    116.809590     0.000001     0.022844   116.832434
	   49 B(9,7,11)       =    119.373632     0.000003     0.018292   119.391924
	   50 B(9,7,19)       =    120.359656    -0.000003     0.002353   120.362009
	   51 B(10,4,16)      =    119.288401    -0.000001    -0.018001   119.270400
	   52 B(10,5,17)      =    119.270945    -0.000001    -0.013235   119.257711
	   53 B(11,6,18)      =    120.266786    -0.000001    -0.024348   120.242438
	   54 B(11,7,19)      =    120.261857    -0.000000    -0.021025   120.240833
	   55 B(12,8,20)      =    116.207552     0.000000     0.026152   116.233705
	   56 B(12,9,21)      =    116.208541     0.000001     0.027657   116.236198
	   57 D(1,2,4,10)     =      0.346785     0.000000    -0.016587     0.330198
	   58 D(1,2,4,16)     =   -179.114308     0.000000     0.018737  -179.095571
	   59 D(1,3,5,10)     =     -0.584999    -0.000000     0.024126    -0.560873
	   60 D(1,3,5,17)     =   -179.679845    -0.000000    -0.010142  -179.689986
	   61 D(2,1,3,5)      =     -0.153851    -0.000000    -0.056766    -0.210617
	   62 D(2,1,3,15)     =    179.948813    -0.000000    -0.020391   179.928422
	   63 D(2,4,10,5)     =     -1.070863    -0.000000    -0.016060    -1.086923
	   64 D(2,4,10,11)    =   -177.961282     0.000000    -0.021696  -177.982978
	   65 D(3,1,2,4)      =      0.272396     0.000000     0.053055     0.325451
	   66 D(3,1,2,14)     =   -179.213805     0.000000     0.042617  -179.171188
	   67 D(3,5,10,4)     =      1.190165     0.000000     0.012302     1.202468
	   68 D(3,5,10,11)    =    178.073430    -0.000000     0.019129   178.092559
	   69 D(4,2,1,13)     =   -179.956843    -0.000000     0.008490  -179.948353
	   70 D(4,10,5,17)    =   -179.706050     0.000000     0.046467  -179.659583
	   71 D(4,10,11,6)    =    120.406128    -0.000002    -0.083846   120.322282
	   72 D(4,10,11,7)    =    -56.421680    -0.000001    -0.101196   -56.522875
	   73 D(5,3,1,13)     =   -179.924610     0.000000    -0.012218  -179.936827
	   74 D(5,10,4,16)    =    178.395537    -0.000000    -0.050843   178.344695
	   75 D(5,10,11,6)    =    -56.440817    -0.000001    -0.090223   -56.531041
	   76 D(5,10,11,7)    =    126.731375    -0.000000    -0.107573   126.623802
	   77 D(6,8,12,9)     =      0.032891     0.000001     0.180451     0.213341
	   78 D(6,11,7,9)     =      1.000854     0.000001     0.169108     1.169962
	   79 D(6,11,7,19)    =   -179.797727     0.000001     0.138450  -179.659278
	   80 D(7,9,12,8)     =     -0.172899     0.000000     0.087809    -0.085090
	   81 D(7,11,6,8)     =     -1.128845     0.000000     0.076531    -1.052314
	   82 D(7,11,6,18)    =    178.430306     0.000000     0.066951   178.497256
	   83 D(8,6,11,10)    =   -178.088070     0.000001     0.059429  -178.028640
	   84 D(8,12,9,21)    =   -179.862059    -0.000002    -0.328504  -180.190563
	   85 D(9,7,11,10)    =    177.954394     0.000000     0.187205   178.141599
	   86 D(9,12,8,20)    =   -179.226581    -0.000001    -0.331812  -179.558394
	   87 D(10,4,2,14)    =    179.833920     0.000000    -0.006039   179.827880
	   88 D(10,5,3,15)    =    179.312512    -0.000000    -0.012151   179.300361
	   89 D(10,11,6,18)   =      1.471081     0.000001     0.049850     1.520930
	   90 D(10,11,7,19)   =     -2.844188    -0.000000     0.156547    -2.687641
	   91 D(11,6,8,12)    =      0.639713    -0.000001    -0.264817     0.374896
	   92 D(11,6,8,20)    =    179.871460     0.000001     0.266697   180.138157
	   93 D(11,7,9,12)    =     -0.363275    -0.000001    -0.264942    -0.628218
	   94 D(11,7,9,21)    =    179.314200     0.000001     0.166987   179.481187
	   95 D(11,10,4,16)   =      1.505118     0.000000    -0.056479     1.448640
	   96 D(11,10,5,17)   =     -2.822786    -0.000000     0.053294    -2.769492
	   97 D(12,8,6,18)    =   -178.918953    -0.000001    -0.255076  -179.174029
	   98 D(12,9,7,19)    =   -179.563897    -0.000001    -0.234056  -179.797953
	   99 D(13,1,2,14)    =      0.556956    -0.000000    -0.001948     0.555008
	  100 D(13,1,3,15)    =      0.178054     0.000000     0.024158     0.202212
	  101 D(14,2,4,16)    =      0.372826     0.000000     0.029285     0.402111
	  102 D(15,3,5,17)    =      0.217667    -0.000000    -0.046419     0.171247
	  103 D(18,6,8,20)    =      0.312794     0.000001     0.276437     0.589231
	  104 D(19,7,9,21)    =      0.113579     0.000001     0.197873     0.311452
	 ---------------------------------------------------------------------------
	Successfully symmetrized geometry.
	 Forces used to impose fixed constraints are not included.
	  Forces zeroed: 71 

  ==> Convergence Check <==

  Measures of convergence in internal coordinates in au.
  Criteria marked as inactive (o), active & met (*), and active & unmet ( ).
  ---------------------------------------------------------------------------------------------
   Step     Total Energy     Delta E     MAX Force     RMS Force      MAX Disp      RMS Disp   
  ---------------------------------------------------------------------------------------------
    Convergence Criteria    1.00e-06 *    3.00e-04 *             o    1.20e-03 *             o
  ---------------------------------------------------------------------------------------------
      5    -478.57585978   -5.45e-07 *    1.07e-04 *    3.63e-05 o    5.79e-03      1.65e-03 o  ~
  ---------------------------------------------------------------------------------------------


  **** Optimization is complete! (in 5 steps) ****

  ==> Optimization Summary <==

  Measures of convergence in internal coordinates in au.
  --------------------------------------------------------------------------------------------------------------- ~
   Step         Total Energy             Delta E       MAX Force       RMS Force        MAX Disp        RMS Disp  ~
  --------------------------------------------------------------------------------------------------------------- ~
      1    -478.573543580735   -478.573543580735      0.01623817      0.00370319      0.03635314      0.00980719  ~
      2    -478.575562927182     -0.002019346446      0.00267319      0.00070617      0.05654049      0.00979744  ~
      3    -478.575814560376     -0.000251633195      0.00095023      0.00018437      0.03911527      0.00650216  ~
      4    -478.575859231151     -0.000044670775      0.00025425      0.00007255      0.00474382      0.00154329  ~
      5    -478.575859776201     -0.000000545049      0.00010737      0.00003769      0.00579122      0.00164983  ~
  --------------------------------------------------------------------------------------------------------------- ~

	Writing optimization data to binary file.
	Final energy is   -478.5758597762006
	Final (previous) structure:
	Cartesian Geometry (in Angstrom)
	    C     0.0780544891   0.0291271990  -3.5434889632
	    C    -0.9618405442   0.6419019648  -2.8571872521
	    C     1.1042541993  -0.5855173246  -2.8383826729
	    C    -0.9726832001   0.6450067099  -1.4700811766
	    C     1.0916464113  -0.5842515480  -1.4513254889
	    C     0.0302097478  -1.1966709850   1.4040789781
	    C    -0.0864049957   1.1732141886   1.4597921536
	    C    -0.0459619738  -1.1831120817   2.7882905789
	    C    -0.1603957268   1.0876370861   2.8414444161
	    C     0.0597878909   0.0417284877  -0.7549260517
	    C     0.0228960765   0.0077529175   0.7090728889
	    N    -0.1400354342  -0.0659524670   3.5130916050
	    H     0.0867922873   0.0273498613  -4.6225308150
	    H    -1.7676135569   1.1095488878  -3.4021165883
	    H     1.9138090837  -1.0635608534  -3.3685392922
	    H    -1.7871150658   1.1081795854  -0.9329235735
	    H     1.8906463340  -1.0567605184  -0.8992849190
	    H     0.0874543505  -2.1330465030   0.8696045714
	    H    -0.1003579313   2.1359359867   0.9711216875
	    H    -0.0433409094  -2.1121380354   3.3411771581
	    H    -0.2344550743   1.9862160019   3.4379992441
	Saving final (previous) structure.
			--------------------------
			 OPTKING Finished Execution 
			--------------------------

    Final optimized geometry and variables:
    Molecular point group: c1
    Full point group: C1

    Geometry (in Angstrom), charge = 0, multiplicity = 1:

    C            0.078054489095     0.029127199013    -3.543488963225
    C           -0.961840544167     0.641901964751    -2.857187252096
    C            1.104254199309    -0.585517324617    -2.838382672868
    C           -0.972683200075     0.645006709852    -1.470081176627
    C            1.091646411292    -0.584251548034    -1.451325488855
    C            0.030209747759    -1.196670985008     1.404078978087
    C           -0.086404995718     1.173214188628     1.459792153603
    C           -0.045961973830    -1.183112081731     2.788290578943
    C           -0.160395726789     1.087637086095     2.841444416101
    C            0.059787890897     0.041728487697    -0.754926051720
    C            0.022896076476     0.007752917488     0.709072888938
    N           -0.140035434163    -0.065952466998     3.513091604984
    H            0.086792287263     0.027349861262    -4.622530814989
    H           -1.767613556870     1.109548887760    -3.402116588267
    H            1.913809083683    -1.063560853420    -3.368539292221
    H           -1.787115065775     1.108179585430    -0.932923573458
    H            1.890646333953    -1.056760518358    -0.899284918988
    H            0.087454350499    -2.133046502968     0.869604571437
    H           -0.100357931278     2.135935986724     0.971121687464
    H           -0.043340909446    -2.112138035364     3.341177158119
    H           -0.234455074341     1.986216001909     3.437999244092

	Cleaning optimization helper files.

*** Psi4 exiting successfully. Buy a developer a beer!
