
    -----------------------------------------------------------------------
          Psi4: An Open-Source Ab Initio Electronic Structure Package
                               Psi4 1.1 release

                         Git: Rev {HEAD} add49b9 


    R. M. Parrish, L. A. Burns, D. G. A. Smith, A. C. Simmonett,
    A. E. DePrince III, E. G. Hohenstein, U. Bozkaya, A. Yu. Sokolov,
    R. Di Remigio, R. M. Richard, J. F. Gonthier, A. M. James,
    H. R. McAlexander, A. Kumar, M. Saitow, X. Wang, B. P. Pritchard,
    P. Verma, H. F. Schaefer III, K. Patkowski, R. A. King, E. F. Valeev,
    F. A. Evangelista, J. M. Turney, T. D. Crawford, and C. D. Sherrill,
    J. Chem. Theory Comput. in press (2017).
    (doi: 10.1021/acs.jctc.7b00174)

    -----------------------------------------------------------------------


    Psi4 started on: Sunday, 12 November 2017 09:52AM

    Process ID:  16314
    PSIDATADIR: /cbio/jclab/home/chayas/anaconda/envs/py35/share/psi4
    Memory:     500.0 MiB
    Threads:    8
    
  ==> Input File <==

--------------------------------------------------------------------------

memory 5 Gb

molecule phepyrOH_cation {
  symmetry C1
  1 1 
  C      1.885   -1.036   -0.112
  C      2.878   -1.652   2.002
  C      0.807   -0.463   0.561
  C      1.800   -1.079   2.676
  C      4.440   -1.719   -1.322
  C      4.716   -3.305   0.469
  C      5.516   -2.309   -1.970
  C      5.786   -3.855   -0.224
  C      2.921   -1.631   0.608
  C      4.040   -2.225   -0.090
  C      0.764   -0.484   1.955
  N      6.150   -3.348   -1.409
  O      -0.288   0.076   2.612
  H      1.904   -1.012   -1.199
  H      3.678   -2.112   2.578
  H      0.003   -0.001   -0.006
  H      1.772   -1.098   3.762
  H      3.931   -0.877   -1.782
  H      4.425   -3.721   1.429
  H      5.897   -1.982   -2.928
  H      6.368   -4.693   0.134
  H      6.938   -3.767   -1.902
  H      -0.652   0.814   2.097
  units Angstrom
}

dih_string = "3 11 13 23 330"
set optking fixed_dihedral = $dih_string

optimize('MP2/aug-cc-PVTZ')
--------------------------------------------------------------------------

  Memory set to   4.657 GiB by Python driver.
gradient() will perform analytic gradient computation.

*** tstart() called on gpu-1-8.local
*** at Sun Nov 12 09:52:11 2017

    SCF Algorithm Type (re)set to DF.

*** tstart() called on gpu-1-8.local
*** at Sun Nov 12 09:52:11 2017

   => Loading Basis Set <=

    Name: AUG-CC-PVTZ
    Role: ORBITAL
    Keyword: BASIS
    atoms 1-11  entry C          line   221 file /cbio/jclab/home/chayas/anaconda/envs/py35/share/psi4/basis/aug-cc-pvtz.gbs 
    atoms 12    entry N          line   267 file /cbio/jclab/home/chayas/anaconda/envs/py35/share/psi4/basis/aug-cc-pvtz.gbs 
    atoms 13    entry O          line   313 file /cbio/jclab/home/chayas/anaconda/envs/py35/share/psi4/basis/aug-cc-pvtz.gbs 
    atoms 14-23 entry H          line    34 file /cbio/jclab/home/chayas/anaconda/envs/py35/share/psi4/basis/aug-cc-pvtz.gbs 


         ---------------------------------------------------------
                                   SCF
            by Justin Turney, Rob Parrish, and Andy Simmonett
                              RHF Reference
                        8 Threads,   4768 MiB Core
         ---------------------------------------------------------

  ==> Geometry <==

    Molecular point group: c1
    Full point group: C1

    Geometry (in Angstrom), charge = 1, multiplicity = 1:

       Center              X                  Y                   Z               Mass       
    ------------   -----------------  -----------------  -----------------  -----------------
           C         -1.268721222319     0.715293752822    -0.570427428692    12.000000000000
           C         -0.275721222319     0.099293752822     1.543572571308    12.000000000000
           C         -2.346721222319     1.288293752822     0.102572571308    12.000000000000
           C         -1.353721222319     0.672293752822     2.217572571308    12.000000000000
           C          1.286278777681     0.032293752822    -1.780427428692    12.000000000000
           C          1.562278777681    -1.553706247178     0.010572571308    12.000000000000
           C          2.362278777681    -0.557706247178    -2.428427428692    12.000000000000
           C          2.632278777681    -2.103706247178    -0.682427428692    12.000000000000
           C         -0.232721222319     0.120293752822     0.149572571308    12.000000000000
           C          0.886278777681    -0.473706247178    -0.548427428692    12.000000000000
           C         -2.389721222319     1.267293752822     1.496572571308    12.000000000000
           N          2.996278777681    -1.596706247178    -1.867427428692    14.003074004780
           O         -3.441721222319     1.827293752822     2.153572571308    15.994914619560
           H         -1.249721222319     0.739293752822    -1.657427428692     1.007825032070
           H          0.524278777681    -0.360706247178     2.119572571308     1.007825032070
           H         -3.150721222319     1.750293752822    -0.464427428692     1.007825032070
           H         -1.381721222319     0.653293752822     3.303572571308     1.007825032070
           H          0.777278777681     0.874293752822    -2.240427428692     1.007825032070
           H          1.271278777681    -1.969706247178     0.970572571308     1.007825032070
           H          2.743278777681    -0.230706247178    -3.386427428692     1.007825032070
           H          3.214278777681    -2.941706247178    -0.324427428692     1.007825032070
           H          3.784278777681    -2.015706247178    -2.360427428692     1.007825032070
           H         -3.805721222319     2.565293752822     1.638572571308     1.007825032070

  Running in c1 symmetry.

  Rotational constants: A =      0.09612  B =      0.01336  C =      0.01192 [cm^-1]
  Rotational constants: A =   2881.71270  B =    400.42236  C =    357.41286 [MHz]
  Nuclear repulsion =  713.222329793319545

  Charge       = 1
  Multiplicity = 1
  Electrons    = 90
  Nalpha       = 45
  Nbeta        = 45

  ==> Algorithm <==

  SCF Algorithm Type is DF.
  DIIS enabled.
  MOM disabled.
  Fractional occupation disabled.
  Guess Type is SAD.
  Energy threshold   = 1.00e-10
  Density threshold  = 1.00e-10
  Integral threshold = 0.00e+00

  ==> Primary Basis <==

  Basis Set: AUG-CC-PVTZ
    Blend: AUG-CC-PVTZ
    Number of shells: 272
    Number of basis function: 828
    Number of Cartesian functions: 965
    Spherical Harmonics?: true
    Max angular momentum: 3

   => Loading Basis Set <=

    Name: (AUG-CC-PVTZ AUX)
    Role: JKFIT
    Keyword: DF_BASIS_SCF
    atoms 1-11  entry C          line   161 file /cbio/jclab/home/chayas/anaconda/envs/py35/share/psi4/basis/aug-cc-pvtz-jkfit.gbs 
    atoms 12    entry N          line   223 file /cbio/jclab/home/chayas/anaconda/envs/py35/share/psi4/basis/aug-cc-pvtz-jkfit.gbs 
    atoms 13    entry O          line   285 file /cbio/jclab/home/chayas/anaconda/envs/py35/share/psi4/basis/aug-cc-pvtz-jkfit.gbs 
    atoms 14-23 entry H          line    69 file /cbio/jclab/home/chayas/anaconda/envs/py35/share/psi4/basis/aug-cc-pvtz-jkfit.gbs 

  ==> Pre-Iterations <==

   -------------------------------------------------------
    Irrep   Nso     Nmo     Nalpha   Nbeta   Ndocc  Nsocc
   -------------------------------------------------------
     A        828     828       0       0       0       0
   -------------------------------------------------------
    Total     828     828      45      45      45       0
   -------------------------------------------------------

  ==> Integral Setup <==

  ==> DFJK: Density-Fitted J/K Matrices <==

    J tasked:                  Yes
    K tasked:                  Yes
    wK tasked:                  No
    OpenMP threads:              8
    Integrals threads:           8
    Memory (MB):              3576
    Algorithm:                Disk
    Integral Cache:           NONE
    Schwarz Cutoff:          1E-12
    Fitting Condition:       1E-12

   => Auxiliary Basis Set <=

  Basis Set: (AUG-CC-PVTZ AUX)
    Blend: AUG-CC-PVTZ-JKFIT
    Number of shells: 530
    Number of basis function: 1812
    Number of Cartesian functions: 2253
    Spherical Harmonics?: true
    Max angular momentum: 4

  Minimum eigenvalue in the overlap matrix is 5.9066862172E-07.
  Using Symmetric Orthogonalization.

  SCF Guess: Superposition of Atomic Densities via on-the-fly atomic UHF.

  ==> Iterations <==

                           Total Energy        Delta E     RMS |[F,P]|

   @DF-RHF iter   0:  -555.02710237801716   -5.55027e+02   2.07328e-02 
   @DF-RHF iter   1:  -551.28661298650286    3.74049e+00   2.27665e-03 
   @DF-RHF iter   2:  -551.60149742863109   -3.14884e-01   1.00562e-03 DIIS
   @DF-RHF iter   3:  -551.65698504154670   -5.54876e-02   4.34939e-04 DIIS
   @DF-RHF iter   4:  -551.67206675532225   -1.50817e-02   1.29932e-04 DIIS
   @DF-RHF iter   5:  -551.67400217605621   -1.93542e-03   5.36315e-05 DIIS
   @DF-RHF iter   6:  -551.67444275056232   -4.40575e-04   1.67878e-05 DIIS
   @DF-RHF iter   7:  -551.67449279232551   -5.00418e-05   6.70251e-06 DIIS
   @DF-RHF iter   8:  -551.67450072678571   -7.93446e-06   2.81289e-06 DIIS
   @DF-RHF iter   9:  -551.67450350263687   -2.77585e-06   1.53930e-06 DIIS
   @DF-RHF iter  10:  -551.67450444191149   -9.39275e-07   7.42384e-07 DIIS
   @DF-RHF iter  11:  -551.67450458198721   -1.40076e-07   1.96930e-07 DIIS
   @DF-RHF iter  12:  -551.67450458972314   -7.73593e-09   5.76990e-08 DIIS
   @DF-RHF iter  13:  -551.67450459040140   -6.78256e-10   2.22624e-08 DIIS
   @DF-RHF iter  14:  -551.67450459048518   -8.37872e-11   8.83072e-09 DIIS
   @DF-RHF iter  15:  -551.67450459050008   -1.48930e-11   3.75021e-09 DIIS
   @DF-RHF iter  16:  -551.67450459050895   -8.86757e-12   1.20084e-09 DIIS
   @DF-RHF iter  17:  -551.67450459051929   -1.03455e-11   7.05253e-10 DIIS
   @DF-RHF iter  18:  -551.67450459050576    1.35287e-11   1.97277e-10 DIIS
   @DF-RHF iter  19:  -551.67450459049928    6.48015e-12   1.03355e-10 DIIS
   @DF-RHF iter  20:  -551.67450459051383   -1.45519e-11   5.77900e-11 DIIS

  ==> Post-Iterations <==

    Orbital Energies (a.u.)
    -----------------------

    Doubly Occupied:                                                      

       1A    -20.699387     2A    -15.833316     3A    -11.484131  
       4A    -11.484008     5A    -11.445774     6A    -11.431973  
       7A    -11.414502     8A    -11.414344     9A    -11.379471  
      10A    -11.378190    11A    -11.372350    12A    -11.357104  
      13A    -11.354423    14A     -1.515432    15A     -1.511209  
      16A     -1.321114    17A     -1.263929    18A     -1.237017  
      19A     -1.154472    20A     -1.151109    21A     -1.068453  
      22A     -1.054192    23A     -0.974409    24A     -0.962109  
      25A     -0.950071    26A     -0.870011    27A     -0.859095  
      28A     -0.853779    29A     -0.821639    30A     -0.798503  
      31A     -0.781002    32A     -0.772732    33A     -0.756549  
      34A     -0.736516    35A     -0.723532    36A     -0.707163  
      37A     -0.706137    38A     -0.669232    39A     -0.653625  
      40A     -0.641388    41A     -0.613409    42A     -0.570910  
      43A     -0.537372    44A     -0.469393    45A     -0.440018  

    Virtual:                                                              

      46A     -0.105609    47A     -0.084631    48A     -0.063859  
      49A     -0.063025    50A     -0.059556    51A     -0.049225  
      52A     -0.043878    53A     -0.039267    54A     -0.034523  
      55A     -0.028754    56A     -0.026257    57A     -0.024531  
      58A     -0.016671    59A     -0.009767    60A     -0.007329  
      61A     -0.002999    62A      0.003670    63A      0.005777  
      64A      0.008950    65A      0.015146    66A      0.015971  
      67A      0.019110    68A      0.024324    69A      0.025344  
      70A      0.028431    71A      0.032781    72A      0.037612  
      73A      0.038348    74A      0.041806    75A      0.045321  
      76A      0.048592    77A      0.057675    78A      0.058087  
      79A      0.058344    80A      0.063938    81A      0.067976  
      82A      0.072244    83A      0.073846    84A      0.078855  
      85A      0.084167    86A      0.086613    87A      0.088086  
      88A      0.095517    89A      0.098165    90A      0.107892  
      91A      0.109768    92A      0.114458    93A      0.119677  
      94A      0.122870    95A      0.126017    96A      0.128103  
      97A      0.133271    98A      0.136835    99A      0.139800  
     100A      0.144791   101A      0.151126   102A      0.155219  
     103A      0.159416   104A      0.163257   105A      0.166232  
     106A      0.168374   107A      0.171417   108A      0.173972  
     109A      0.181131   110A      0.185148   111A      0.186936  
     112A      0.189195   113A      0.193516   114A      0.197460  
     115A      0.200990   116A      0.205877   117A      0.210569  
     118A      0.212910   119A      0.213637   120A      0.220138  
     121A      0.224064   122A      0.226861   123A      0.230875  
     124A      0.232734   125A      0.233629   126A      0.238765  
     127A      0.241421   128A      0.247264   129A      0.251734  
     130A      0.257840   131A      0.260175   132A      0.273485  
     133A      0.276027   134A      0.278867   135A      0.281617  
     136A      0.283135   137A      0.288122   138A      0.292921  
     139A      0.300180   140A      0.306693   141A      0.311891  
     142A      0.312390   143A      0.315872   144A      0.319855  
     145A      0.323733   146A      0.326379   147A      0.327208  
     148A      0.333734   149A      0.335275   150A      0.339380  
     151A      0.341790   152A      0.347689   153A      0.350875  
     154A      0.352739   155A      0.358370   156A      0.360275  
     157A      0.365518   158A      0.368826   159A      0.372622  
     160A      0.375331   161A      0.375453   162A      0.377661  
     163A      0.383857   164A      0.387681   165A      0.390608  
     166A      0.394235   167A      0.398697   168A      0.400977  
     169A      0.403815   170A      0.407628   171A      0.412420  
     172A      0.413378   173A      0.415032   174A      0.420380  
     175A      0.421354   176A      0.430732   177A      0.433077  
     178A      0.435512   179A      0.439657   180A      0.443318  
     181A      0.444073   182A      0.450999   183A      0.454516  
     184A      0.462359   185A      0.471103   186A      0.477970  
     187A      0.479750   188A      0.487032   189A      0.493285  
     190A      0.500696   191A      0.508143   192A      0.511797  
     193A      0.515277   194A      0.524647   195A      0.530087  
     196A      0.537056   197A      0.537821   198A      0.546017  
     199A      0.556181   200A      0.561146   201A      0.566295  
     202A      0.572745   203A      0.575008   204A      0.580211  
     205A      0.584118   206A      0.589589   207A      0.591949  
     208A      0.600665   209A      0.605204   210A      0.611282  
     211A      0.615370   212A      0.622730   213A      0.626558  
     214A      0.630774   215A      0.634372   216A      0.640759  
     217A      0.649559   218A      0.652582   219A      0.653971  
     220A      0.658920   221A      0.667434   222A      0.675846  
     223A      0.682908   224A      0.688088   225A      0.697587  
     226A      0.704845   227A      0.707256   228A      0.710105  
     229A      0.713576   230A      0.718738   231A      0.724245  
     232A      0.733620   233A      0.734737   234A      0.740797  
     235A      0.743709   236A      0.752713   237A      0.756609  
     238A      0.760298   239A      0.767307   240A      0.773316  
     241A      0.775128   242A      0.780226   243A      0.782933  
     244A      0.790253   245A      0.792201   246A      0.795730  
     247A      0.803523   248A      0.804326   249A      0.808978  
     250A      0.810357   251A      0.819353   252A      0.822410  
     253A      0.825939   254A      0.830992   255A      0.838577  
     256A      0.846216   257A      0.849276   258A      0.854866  
     259A      0.856163   260A      0.858434   261A      0.865986  
     262A      0.873019   263A      0.874392   264A      0.879864  
     265A      0.883542   266A      0.888313   267A      0.889997  
     268A      0.898045   269A      0.899537   270A      0.907241  
     271A      0.910085   272A      0.913017   273A      0.922997  
     274A      0.923481   275A      0.924931   276A      0.930765  
     277A      0.933803   278A      0.938139   279A      0.945688  
     280A      0.951670   281A      0.956235   282A      0.957953  
     283A      0.961931   284A      0.966725   285A      0.967818  
     286A      0.970901   287A      0.975589   288A      0.985289  
     289A      0.988130   290A      0.995166   291A      0.998951  
     292A      1.000217   293A      1.009771   294A      1.011319  
     295A      1.014093   296A      1.016485   297A      1.022784  
     298A      1.034046   299A      1.037145   300A      1.040928  
     301A      1.047327   302A      1.050450   303A      1.056658  
     304A      1.061668   305A      1.064541   306A      1.068293  
     307A      1.070555   308A      1.074395   309A      1.078287  
     310A      1.081001   311A      1.086597   312A      1.096397  
     313A      1.097538   314A      1.104758   315A      1.108598  
     316A      1.112894   317A      1.122222   318A      1.124975  
     319A      1.126665   320A      1.136619   321A      1.144868  
     322A      1.151314   323A      1.153990   324A      1.156316  
     325A      1.162879   326A      1.164450   327A      1.168807  
     328A      1.178087   329A      1.181498   330A      1.198550  
     331A      1.204117   332A      1.220678   333A      1.224548  
     334A      1.232521   335A      1.235591   336A      1.237041  
     337A      1.243786   338A      1.253457   339A      1.258306  
     340A      1.267236   341A      1.271930   342A      1.277818  
     343A      1.286140   344A      1.289446   345A      1.296304  
     346A      1.300743   347A      1.309578   348A      1.317824  
     349A      1.322436   350A      1.324384   351A      1.335273  
     352A      1.344912   353A      1.355687   354A      1.359603  
     355A      1.365870   356A      1.373008   357A      1.377410  
     358A      1.381651   359A      1.389521   360A      1.398442  
     361A      1.406279   362A      1.407351   363A      1.417493  
     364A      1.422418   365A      1.433509   366A      1.436725  
     367A      1.448964   368A      1.453775   369A      1.458313  
     370A      1.468706   371A      1.484661   372A      1.486422  
     373A      1.499432   374A      1.500254   375A      1.510349  
     376A      1.525137   377A      1.537563   378A      1.540098  
     379A      1.543631   380A      1.552648   381A      1.558445  
     382A      1.564773   383A      1.569391   384A      1.577948  
     385A      1.589655   386A      1.592641   387A      1.598067  
     388A      1.616186   389A      1.622656   390A      1.624711  
     391A      1.640823   392A      1.649024   393A      1.659006  
     394A      1.662830   395A      1.670457   396A      1.675599  
     397A      1.687252   398A      1.696764   399A      1.698790  
     400A      1.706516   401A      1.710326   402A      1.722820  
     403A      1.731150   404A      1.733020   405A      1.737836  
     406A      1.743682   407A      1.750806   408A      1.764387  
     409A      1.774765   410A      1.782288   411A      1.795913  
     412A      1.802749   413A      1.807411   414A      1.813475  
     415A      1.815021   416A      1.819052   417A      1.832792  
     418A      1.835534   419A      1.845888   420A      1.856638  
     421A      1.870965   422A      1.878017   423A      1.883090  
     424A      1.885575   425A      1.899352   426A      1.901858  
     427A      1.906544   428A      1.911079   429A      1.921035  
     430A      1.923234   431A      1.924766   432A      1.943959  
     433A      1.947896   434A      1.949973   435A      1.954153  
     436A      1.967293   437A      1.969810   438A      1.973839  
     439A      1.989891   440A      1.993059   441A      1.998392  
     442A      2.008213   443A      2.016198   444A      2.025736  
     445A      2.033316   446A      2.047661   447A      2.060371  
     448A      2.063860   449A      2.069392   450A      2.073827  
     451A      2.087261   452A      2.094810   453A      2.099724  
     454A      2.112597   455A      2.137200   456A      2.142203  
     457A      2.151327   458A      2.160093   459A      2.191038  
     460A      2.201491   461A      2.203954   462A      2.211088  
     463A      2.214924   464A      2.220199   465A      2.227501  
     466A      2.235716   467A      2.251451   468A      2.254476  
     469A      2.255684   470A      2.273898   471A      2.282437  
     472A      2.291814   473A      2.299430   474A      2.309143  
     475A      2.324629   476A      2.336973   477A      2.354358  
     478A      2.355130   479A      2.362332   480A      2.368392  
     481A      2.390556   482A      2.400028   483A      2.405500  
     484A      2.411962   485A      2.414403   486A      2.421792  
     487A      2.430327   488A      2.450192   489A      2.468457  
     490A      2.473910   491A      2.483130   492A      2.503543  
     493A      2.519634   494A      2.531533   495A      2.552362  
     496A      2.568242   497A      2.572951   498A      2.580715  
     499A      2.596393   500A      2.605066   501A      2.620488  
     502A      2.637264   503A      2.656921   504A      2.665027  
     505A      2.687937   506A      2.695839   507A      2.713846  
     508A      2.728601   509A      2.745063   510A      2.756267  
     511A      2.763760   512A      2.789513   513A      2.798848  
     514A      2.847670   515A      2.865712   516A      2.874414  
     517A      2.919944   518A      2.934232   519A      2.947099  
     520A      2.955063   521A      2.965717   522A      2.983033  
     523A      3.001674   524A      3.004912   525A      3.034900  
     526A      3.056328   527A      3.067441   528A      3.081682  
     529A      3.084853   530A      3.103753   531A      3.140935  
     532A      3.160088   533A      3.166523   534A      3.170463  
     535A      3.195962   536A      3.205471   537A      3.210896  
     538A      3.218342   539A      3.227356   540A      3.239817  
     541A      3.249048   542A      3.258312   543A      3.262542  
     544A      3.268251   545A      3.280962   546A      3.286355  
     547A      3.305825   548A      3.314849   549A      3.325816  
     550A      3.340056   551A      3.349672   552A      3.362430  
     553A      3.372643   554A      3.378951   555A      3.386358  
     556A      3.394296   557A      3.395888   558A      3.402476  
     559A      3.410764   560A      3.415524   561A      3.419958  
     562A      3.428786   563A      3.441795   564A      3.454272  
     565A      3.467305   566A      3.468587   567A      3.472571  
     568A      3.490181   569A      3.497508   570A      3.502276  
     571A      3.512617   572A      3.537215   573A      3.548090  
     574A      3.558267   575A      3.561685   576A      3.571188  
     577A      3.579038   578A      3.599059   579A      3.602073  
     580A      3.614521   581A      3.626686   582A      3.627158  
     583A      3.629177   584A      3.652202   585A      3.655478  
     586A      3.660107   587A      3.663693   588A      3.687813  
     589A      3.702042   590A      3.707790   591A      3.712126  
     592A      3.720276   593A      3.729580   594A      3.739057  
     595A      3.753712   596A      3.755476   597A      3.765980  
     598A      3.770973   599A      3.782507   600A      3.786926  
     601A      3.787865   602A      3.798273   603A      3.813990  
     604A      3.819715   605A      3.836076   606A      3.842764  
     607A      3.847503   608A      3.856783   609A      3.865053  
     610A      3.872310   611A      3.883087   612A      3.883672  
     613A      3.890716   614A      3.893698   615A      3.901386  
     616A      3.915874   617A      3.928083   618A      3.941447  
     619A      3.946300   620A      3.959415   621A      3.961011  
     622A      3.986700   623A      3.992591   624A      4.007911  
     625A      4.024396   626A      4.033645   627A      4.039367  
     628A      4.040295   629A      4.054997   630A      4.058519  
     631A      4.062855   632A      4.078662   633A      4.084548  
     634A      4.094352   635A      4.105524   636A      4.110247  
     637A      4.114474   638A      4.120738   639A      4.138331  
     640A      4.140514   641A      4.147495   642A      4.163009  
     643A      4.166180   644A      4.179839   645A      4.185297  
     646A      4.196433   647A      4.202553   648A      4.212498  
     649A      4.223102   650A      4.231048   651A      4.235970  
     652A      4.243462   653A      4.250567   654A      4.262573  
     655A      4.264919   656A      4.273958   657A      4.286246  
     658A      4.299102   659A      4.306055   660A      4.307202  
     661A      4.316923   662A      4.325779   663A      4.328960  
     664A      4.346758   665A      4.360651   666A      4.368888  
     667A      4.371443   668A      4.374762   669A      4.390299  
     670A      4.400430   671A      4.406089   672A      4.411134  
     673A      4.437133   674A      4.449011   675A      4.452463  
     676A      4.456090   677A      4.469167   678A      4.488797  
     679A      4.508296   680A      4.515345   681A      4.537662  
     682A      4.558850   683A      4.575822   684A      4.582112  
     685A      4.598597   686A      4.607301   687A      4.612309  
     688A      4.624928   689A      4.638629   690A      4.653229  
     691A      4.661129   692A      4.669124   693A      4.683389  
     694A      4.704495   695A      4.708797   696A      4.735793  
     697A      4.738090   698A      4.757239   699A      4.761940  
     700A      4.770149   701A      4.782234   702A      4.802747  
     703A      4.812164   704A      4.825853   705A      4.832396  
     706A      4.839995   707A      4.861432   708A      4.874374  
     709A      4.884621   710A      4.898589   711A      4.906289  
     712A      4.916084   713A      4.930981   714A      4.936488  
     715A      4.956597   716A      4.958786   717A      4.963631  
     718A      4.977772   719A      4.996224   720A      4.998850  
     721A      5.006780   722A      5.011484   723A      5.020101  
     724A      5.033934   725A      5.047874   726A      5.054588  
     727A      5.078749   728A      5.097311   729A      5.110036  
     730A      5.135533   731A      5.142541   732A      5.159262  
     733A      5.178862   734A      5.185057   735A      5.198944  
     736A      5.210679   737A      5.225596   738A      5.240790  
     739A      5.265194   740A      5.280043   741A      5.286471  
     742A      5.299351   743A      5.315121   744A      5.338988  
     745A      5.350537   746A      5.364059   747A      5.381875  
     748A      5.390218   749A      5.416328   750A      5.440313  
     751A      5.449641   752A      5.459592   753A      5.506870  
     754A      5.522502   755A      5.544877   756A      5.554486  
     757A      5.569778   758A      5.593781   759A      5.607840  
     760A      5.616104   761A      5.645160   762A      5.661539  
     763A      5.692535   764A      5.699069   765A      5.708658  
     766A      5.733545   767A      5.779945   768A      5.811877  
     769A      5.842825   770A      5.861121   771A      5.938616  
     772A      5.939732   773A      5.988520   774A      5.994762  
     775A      6.022370   776A      6.045563   777A      6.092412  
     778A      6.128407   779A      6.175188   780A      6.191028  
     781A      6.242549   782A      6.285613   783A      6.300699  
     784A      6.347565   785A      6.369924   786A      6.392338  
     787A      6.416044   788A      6.481104   789A      6.488783  
     790A      6.548112   791A      6.579141   792A      6.611499  
     793A      6.671717   794A      6.751801   795A      6.780500  
     796A      6.795387   797A      6.817067   798A      6.833951  
     799A      6.845058   800A      6.862825   801A      6.969559  
     802A      6.980565   803A      7.009769   804A      7.130636  
     805A      7.193391   806A      7.302303   807A      7.409171  
     808A      7.465475   809A      7.545065   810A      7.567307  
     811A      7.586368   812A      7.671526   813A      7.841056  
     814A      8.242203   815A      8.492770   816A     16.003717  
     817A     16.267709   818A     16.590838   819A     16.672783  
     820A     16.956959   821A     18.790979   822A     19.091315  
     823A     19.384045   824A     19.749376   825A     19.967570  
     826A     20.006197   827A     20.532976   828A     21.745768  

    Final Occupation by Irrep:
              A 
    DOCC [    45 ]

  Energy converged.

  @DF-RHF Final Energy:  -551.67450459051383

   => Energetics <=

    Nuclear Repulsion Energy =            713.2223297933195454
    One-Electron Energy =               -2149.4046794043779300
    Two-Electron Energy =                 884.5078450205444369
    DFT Exchange-Correlation Energy =       0.0000000000000000
    Empirical Dispersion Energy =           0.0000000000000000
    PCM Polarization Energy =               0.0000000000000000
    EFP Energy =                            0.0000000000000000
    Total Energy =                       -551.6745045905138340



Properties will be evaluated at   0.000000,   0.000000,   0.000000 Bohr

Properties computed using the SCF density matrix

  Nuclear Dipole Moment: (a.u.)
     X:     2.5310      Y:    -0.8641      Z:    -2.2353

  Electronic Dipole Moment: (a.u.)
     X:     0.4791      Y:    -0.3969      Z:    -0.0744

  Dipole Moment: (a.u.)
     X:     3.0101      Y:    -1.2610      Z:    -2.3098     Total:     3.9983

  Dipole Moment: (Debye)
     X:     7.6510      Y:    -3.2052      Z:    -5.8709     Total:    10.1626


*** tstop() called on gpu-1-8.local at Sun Nov 12 10:00:01 2017
Module time:
	user time   =    1141.31 seconds =      19.02 minutes
	system time =      51.06 seconds =       0.85 minutes
	total time  =        470 seconds =       7.83 minutes
Total time:
	user time   =    1141.32 seconds =      19.02 minutes
	system time =      51.06 seconds =       0.85 minutes
	total time  =        470 seconds =       7.83 minutes

  //>>>>>>>>>>>>>>>>>>>>>>>>>>>>>>>>>>>//
  //               DFMP2               //
  //<<<<<<<<<<<<<<<<<<<<<<<<<<<<<<<<<<<//

   => Loading Basis Set <=

    Name: (AUG-CC-PVTZ AUX)
    Role: RIFIT
    Keyword: DF_BASIS_MP2
    atoms 1-11  entry C          line   147 file /cbio/jclab/home/chayas/anaconda/envs/py35/share/psi4/basis/aug-cc-pvtz-ri.gbs 
    atoms 12    entry N          line   205 file /cbio/jclab/home/chayas/anaconda/envs/py35/share/psi4/basis/aug-cc-pvtz-ri.gbs 
    atoms 13    entry O          line   263 file /cbio/jclab/home/chayas/anaconda/envs/py35/share/psi4/basis/aug-cc-pvtz-ri.gbs 
    atoms 14-23 entry H          line    29 file /cbio/jclab/home/chayas/anaconda/envs/py35/share/psi4/basis/aug-cc-pvtz-ri.gbs 

	 --------------------------------------------------------
	                          DF-MP2                         
	      2nd-Order Density-Fitted Moller-Plesset Theory     
	              RMP2 Wavefunction,   8 Threads             
	                                                         
	        Rob Parrish, Justin Turney, Andy Simmonett,      
	           Ed Hohenstein, and C. David Sherrill          
	 --------------------------------------------------------

   => Auxiliary Basis Set <=

  Basis Set: (AUG-CC-PVTZ AUX)
    Blend: AUG-CC-PVTZ-RI
    Number of shells: 504
    Number of basis function: 1838
    Number of Cartesian functions: 2318
    Spherical Harmonics?: true
    Max angular momentum: 4

	 --------------------------------------------------------
	                 NBF =   828, NAUX =  1838
	 --------------------------------------------------------
	   CLASS    FOCC     OCC    AOCC    AVIR     VIR    FVIR
	   PAIRS       0      45      45     783     783       0
	 --------------------------------------------------------


         ------------------------------------------------------------
                                     CPHF                           
                                  Rob Parrish                       
         ------------------------------------------------------------

  ==> Geometry <==

    Molecular point group: c1
    Full point group: C1

    Geometry (in Angstrom), charge = 1, multiplicity = 1:

       Center              X                  Y                   Z               Mass       
    ------------   -----------------  -----------------  -----------------  -----------------
           C         -1.268721222319     0.715293752822    -0.570427428692    12.000000000000
           C         -0.275721222319     0.099293752822     1.543572571308    12.000000000000
           C         -2.346721222319     1.288293752822     0.102572571308    12.000000000000
           C         -1.353721222319     0.672293752822     2.217572571308    12.000000000000
           C          1.286278777681     0.032293752822    -1.780427428692    12.000000000000
           C          1.562278777681    -1.553706247178     0.010572571308    12.000000000000
           C          2.362278777681    -0.557706247178    -2.428427428692    12.000000000000
           C          2.632278777681    -2.103706247178    -0.682427428692    12.000000000000
           C         -0.232721222319     0.120293752822     0.149572571308    12.000000000000
           C          0.886278777681    -0.473706247178    -0.548427428692    12.000000000000
           C         -2.389721222319     1.267293752822     1.496572571308    12.000000000000
           N          2.996278777681    -1.596706247178    -1.867427428692    14.003074004780
           O         -3.441721222319     1.827293752822     2.153572571308    15.994914619560
           H         -1.249721222319     0.739293752822    -1.657427428692     1.007825032070
           H          0.524278777681    -0.360706247178     2.119572571308     1.007825032070
           H         -3.150721222319     1.750293752822    -0.464427428692     1.007825032070
           H         -1.381721222319     0.653293752822     3.303572571308     1.007825032070
           H          0.777278777681     0.874293752822    -2.240427428692     1.007825032070
           H          1.271278777681    -1.969706247178     0.970572571308     1.007825032070
           H          2.743278777681    -0.230706247178    -3.386427428692     1.007825032070
           H          3.214278777681    -2.941706247178    -0.324427428692     1.007825032070
           H          3.784278777681    -2.015706247178    -2.360427428692     1.007825032070
           H         -3.805721222319     2.565293752822     1.638572571308     1.007825032070

  Nuclear repulsion =  713.222329793319545
  Reference energy  = -551.674504590513834

  ==> Basis Set <==

  Basis Set: AUG-CC-PVTZ
    Blend: AUG-CC-PVTZ
    Number of shells: 272
    Number of basis function: 828
    Number of Cartesian functions: 965
    Spherical Harmonics?: true
    Max angular momentum: 3

  ==> CGRSolver (by Rob Parrish) <==

   Number of roots    =         1
   Preconditioning    =    JACOBI
   Convergence cutoff =     1E-06
   Maximum iterations =       100

  ==> CPHFRHamiltonian (by Rob Parrish) <== 

  ==> DFJK: Density-Fitted J/K Matrices <==

    J tasked:                  Yes
    K tasked:                  Yes
    wK tasked:                  No
    OpenMP threads:              8
    Integrals threads:           8
    Memory (MB):              3576
    Algorithm:                Disk
    Integral Cache:           NONE
    Schwarz Cutoff:          1E-12
    Fitting Condition:       1E-12

   => Auxiliary Basis Set <=

  Basis Set: (AUG-CC-PVTZ AUX)
    Blend: AUG-CC-PVTZ-JKFIT
    Number of shells: 530
    Number of basis function: 1812
    Number of Cartesian functions: 2253
    Spherical Harmonics?: true
    Max angular momentum: 4

  ==> CPHF Iterations <==

  => Iterations <=

             Iter  Converged  Remaining    Residual
  CGR           1          0          1   1.104E-01
  CGR           2          0          1   5.057E-02
  CGR           3          0          1   2.933E-02
  CGR           4          0          1   9.469E-03
  CGR           5          0          1   4.388E-03
  CGR           6          0          1   2.201E-03
  CGR           7          0          1   6.973E-04
  CGR           8          0          1   2.831E-04
  CGR           9          0          1   1.331E-04
  CGR          10          0          1   4.481E-05
  CGR          11          0          1   1.408E-05
  CGR          12          0          1   5.363E-06
  CGR          13          0          1   1.678E-06
  CGR          14          1          0   5.344E-07

    CGRSolver converged.

  ==> DFCorrGrad: Density-Fitted Correlated Gradients <==

    OpenMP threads:              8
    Integrals threads:           8
    Memory (MB):              3576
    Schwarz Cutoff:          0E+00
    Fitting Condition:       1E-12

   => Auxiliary Basis Set <=

  Basis Set: (AUG-CC-PVTZ AUX)
    Blend: AUG-CC-PVTZ-JKFIT
    Number of shells: 530
    Number of basis function: 1812
    Number of Cartesian functions: 2253
    Spherical Harmonics?: true
    Max angular momentum: 4

	-----------------------------------------------------------
	 ==================> DF-MP2 Energies <==================== 
	-----------------------------------------------------------
	 Reference Energy          =    -551.6745045905138340 [Eh]
	 Singles Energy            =      -0.0000000000000002 [Eh]
	 Same-Spin Energy          =      -0.5965550549386559 [Eh]
	 Opposite-Spin Energy      =      -1.8252802630193303 [Eh]
	 Correlation Energy        =      -2.4218353179579863 [Eh]
	 Total Energy              =    -554.0963399084718048 [Eh]
	-----------------------------------------------------------
	 ================> DF-SCS-MP2 Energies <================== 
	-----------------------------------------------------------
	 SCS Same-Spin Scale       =       0.3333333333333333 [-]
	 SCS Opposite-Spin Scale   =       1.2000000000000000 [-]
	 SCS Same-Spin Energy      =      -0.1988516849795520 [Eh]
	 SCS Opposite-Spin Energy  =      -2.1903363156231963 [Eh]
	 SCS Correlation Energy    =      -2.3891880006027484 [Eh]
	 SCS Total Energy          =    -554.0636925911165918 [Eh]
	-----------------------------------------------------------


  -Total Gradient:
     Atom            X                  Y                   Z
    ------   -----------------  -----------------  -----------------
       1        0.008686539314    -0.010077951385    -0.003578304156
       2        0.013063862846    -0.000694056446    -0.007508647341
       3       -0.009799183154     0.004614322189     0.008789108433
       4       -0.004716816888     0.005259190325    -0.002274246985
       5       -0.015467362811     0.009154297485     0.013612608157
       6       -0.019094891244     0.008455282859     0.008280964328
       7        0.008466788366    -0.010278612390     0.004752166220
       8        0.005469691239     0.003284872705    -0.013793739996
       9       -0.002432397981     0.001286135151     0.001551881651
      10        0.014403633379    -0.007067844716    -0.008868714790
      11        0.006437529527    -0.008470123534     0.004710261140
      12       -0.001683359473     0.000488872831     0.001396878167
      13       -0.009266349931    -0.000868844404    -0.002286727360
      14        0.001567504178     0.001607458370    -0.005766675703
      15        0.004014725119    -0.004780801408     0.002514437676
      16       -0.002763020980     0.002734584791    -0.003412771250
      17        0.001642863183    -0.002093275627     0.005549629258
      18       -0.005094364747     0.004345779438    -0.002931626628
      19       -0.001555208334    -0.000705840370     0.007013697740
      20        0.001870598426    -0.000442405170    -0.002580550256
      21        0.002415836619    -0.001679436877    -0.000100393265
      22        0.005106395456    -0.002723086686    -0.003232206411
      23       -0.001273012102     0.008651482872    -0.001837028619


*** tstop() called on gpu-1-8.local at Sun Nov 12 10:34:34 2017
Module time:
	user time   =    5396.39 seconds =      89.94 minutes
	system time =     108.01 seconds =       1.80 minutes
	total time  =       2543 seconds =      42.38 minutes
Total time:
	user time   =    5396.40 seconds =      89.94 minutes
	system time =     108.01 seconds =       1.80 minutes
	total time  =       2543 seconds =      42.38 minutes

			-----------------------------------------
			 OPTKING 2.0: for geometry optimizations 
			  - R.A. King,  Bethel University        
			-----------------------------------------

	Internal coordinates to be generated automatically.
	Detected frag 1 with atoms:  1 2 3 4 5 6 7 8 9 10 11 12 13 14 15 16 17 18 19 20
	 21 22 23
	---Fragment 1 Bond Connectivity---
	 1 : 3 9 14
	 2 : 4 9 15
	 3 : 1 11 16
	 4 : 2 11 17
	 5 : 7 10 18
	 6 : 8 10 19
	 7 : 5 12 20
	 8 : 6 12 21
	 9 : 1 2 10
	 10 : 5 6 9
	 11 : 3 4 13
	 12 : 7 8 22
	 13 : 11 23
	 14 : 1
	 15 : 2
	 16 : 3
	 17 : 4
	 18 : 5
	 19 : 6
	 20 : 7
	 21 : 8
	 22 : 12
	 23 : 13

	Assuming in current code that numbering for constraints corresponds to unified fragment.
	Fixed dihedral atom list: 
	     3    11    13    23
	---Fragment 1 Geometry and Gradient---
	 C          -2.3975356492        1.3517092974       -1.0779516189
	 C          -0.5210375992        0.1876379995        2.9169294260
	 C          -4.4346604204        2.4345223715        0.1938340685
	 C          -2.5581623705        1.2704510737        4.1906048396
	 C           2.4307146204        0.0610263486       -3.3645202397
	 C           2.9522790330       -2.9360792981        0.0199792643
	 C           4.4640599393       -1.0539120698       -4.5890627738
	 C           4.9742859952       -3.9754286712       -1.2896009458
	 C          -0.4397793755        0.2273222483        0.2826511968
	 C           1.6748241672       -0.8951750746       -1.0363776440
	 C          -4.5159186441        2.3948381228        2.8281122978
	 N           5.6621463076       -3.0173375218       -3.5289264133
	 O          -6.5039105359        3.4530847572        4.0696623671
	 H          -2.3616308526        1.3970627246       -3.1320839254
	 H           0.9907433071       -0.6816360216        4.0054116785
	 H          -5.9540002313        3.3075758449       -0.8776406488
	 H          -2.6110747022        1.2345462772        6.2428474199
	 H           1.4688440187        1.6521757525       -4.2337942608
	 H           2.4023687284       -3.7222053694        1.8341163519
	 H           5.1840455960       -0.4359716243       -6.3994204091
	 H           6.0741066046       -5.5590191706       -0.6130789902
	 H           7.1512505003       -3.8091327715       -4.4605613968
	 H          -7.1917708483        4.8477026432        3.0964534086
	             0.0086865393       -0.0100779514       -0.0035783042
	             0.0130638628       -0.0006940564       -0.0075086473
	            -0.0097991832        0.0046143222        0.0087891084
	            -0.0047168169        0.0052591903       -0.0022742470
	            -0.0154673628        0.0091542975        0.0136126082
	            -0.0190948912        0.0084552829        0.0082809643
	             0.0084667884       -0.0102786124        0.0047521662
	             0.0054696912        0.0032848727       -0.0137937400
	            -0.0024323980        0.0012861352        0.0015518817
	             0.0144036334       -0.0070678447       -0.0088687148
	             0.0064375295       -0.0084701235        0.0047102611
	            -0.0016833595        0.0004888728        0.0013968782
	            -0.0092663499       -0.0008688444       -0.0022867274
	             0.0015675042        0.0016074584       -0.0057666757
	             0.0040147251       -0.0047808014        0.0025144377
	            -0.0027630210        0.0027345848       -0.0034127712
	             0.0016428632       -0.0020932756        0.0055496293
	            -0.0050943647        0.0043457794       -0.0029316266
	            -0.0015552083       -0.0007058404        0.0070136977
	             0.0018705984       -0.0004424052       -0.0025805503
	             0.0024158366       -0.0016794369       -0.0001003933
	             0.0051063955       -0.0027230867       -0.0032322064
	            -0.0012730121        0.0086514829       -0.0018370286

	Previous optimization step data not found.  Starting new optimization.

	---Fragment 1 Intrafragment Coordinates---
	 - Coordinate -           - BOHR/RAD -       - ANG/DEG -
	 R(1,3)           =         2.634350	       1.394038
	 R(1,9)           =         2.635962	       1.394891
	 R(1,14)          =         2.054947	       1.087431
	 R(2,4)           =         2.635263	       1.394521
	 R(2,9)           =         2.635830	       1.394821
	 R(2,15)          =         2.055702	       1.087831
	 R(3,11)          =         2.635830	       1.394821
	 R(3,16)          =         2.053941	       1.086899
	 R(4,11)          =         2.636938	       1.395407
	 R(4,17)          =         2.053239	       1.086527
	 R(5,7)           =         2.622420	       1.387725
	 R(5,10)          =         2.627915	       1.390633
	 R(5,18)          =         2.052459	       1.086115
	 R(6,8)           =         2.623692	       1.388398
	 R(6,10)          =         2.629272	       1.391351
	 R(6,19)          =         2.052191	       1.085973
	 R(7,12)          =         2.532655	       1.340223
	 R(7,20)          =         2.043924	       1.081598
	 R(8,12)          =         2.530942	       1.339317
	 R(8,21)          =         2.043293	       1.081264
	 R(9,10)          =         2.733384	       1.446444
	 R(11,13)         =         2.571662	       1.360865
	 R(12,22)         =         1.926737	       1.019585
	 R(13,23)         =         1.834461	       0.970755
	 B(1,3,11)        =         2.094553	     120.009056
	 B(1,3,16)        =         2.088505	     119.662516
	 B(1,9,2)         =         2.093692	     119.959722
	 B(1,9,10)        =         2.095161	     120.043881
	 B(2,4,11)        =         2.093699	     119.960108
	 B(2,4,17)        =         2.089577	     119.723926
	 B(2,9,10)        =         2.094332	     119.996376
	 B(3,1,9)         =         2.094940	     120.031219
	 B(3,1,14)        =         2.079469	     119.144799
	 B(3,11,4)        =         2.094306	     119.994870
	 B(3,11,13)       =         2.094549	     120.008801
	 B(4,2,9)         =         2.095181	     120.045019
	 B(4,2,15)        =         2.078675	     119.099297
	 B(4,11,13)       =         2.094331	     119.996326
	 B(5,7,12)        =         2.095473	     120.061759
	 B(5,7,20)        =         2.162990	     123.930212
	 B(5,10,6)        =         2.092808	     119.909049
	 B(5,10,9)        =         2.095104	     120.040644
	 B(6,8,12)        =         2.095689	     120.074121
	 B(6,8,21)        =         2.161055	     123.819347
	 B(6,10,9)        =         2.095271	     120.050189
	 B(7,5,10)        =         2.073747	     118.816947
	 B(7,5,18)        =         2.088865	     119.683141
	 B(7,12,8)        =         2.135611	     122.361511
	 B(7,12,22)       =         2.073499	     118.802740
	 B(8,6,10)        =         2.073041	     118.776513
	 B(8,6,19)        =         2.089782	     119.735704
	 B(8,12,22)       =         2.074075	     118.835741
	 B(9,1,14)        =         2.108776	     120.823969
	 B(9,2,15)        =         2.109330	     120.855683
	 B(10,5,18)       =         2.120573	     121.499869
	 B(10,6,19)       =         2.120361	     121.487761
	 B(11,3,16)       =         2.100127	     120.328425
	 B(11,4,17)       =         2.099910	     120.315955
	 B(11,13,23)      =         1.924717	     110.278178
	 B(12,7,20)       =         2.024722	     116.007998
	 B(12,8,21)       =         2.026441	     116.106509
	 D(1,3,11,4)      =        -0.000325	      -0.018609
	 D(1,3,11,13)     =         3.140978	     179.964785
	 D(1,9,2,4)       =         0.000325	       0.018608
	 D(1,9,2,15)      =        -3.141497	    -179.994534
	 D(1,9,10,5)      =         0.522161	      29.917626
	 D(1,9,10,6)      =        -2.617252	    -149.957477
	 D(2,4,11,3)      =         0.000301	       0.017261
	 D(2,4,11,13)     =        -3.141002	    -179.966135
	 D(2,9,1,3)       =        -0.000348	      -0.019945
	 D(2,9,1,14)      =        -3.141221	    -179.978731
	 D(2,9,10,5)      =        -2.618515	    -150.029870
	 D(2,9,10,6)      =         0.525257	      30.095026
	 D(3,1,9,10)      =        -3.141025	    -179.967461
	 D(3,11,4,17)     =         3.141223	     179.978848
	 D(3,11,13,23)    =        -0.523670	     -30.004106
	 D(4,2,9,10)      =         3.141002	     179.966149
	 D(4,11,3,16)     =         3.141593	     180.000000
	 D(4,11,13,23)    =         2.617632	     149.979288
	 D(5,7,12,8)      =        -0.000900	      -0.051587
	 D(5,7,12,22)     =         3.141281	     179.982140
	 D(5,10,6,8)      =         0.001757	       0.100696
	 D(5,10,6,19)     =        -3.140779	    -179.953357
	 D(6,8,12,7)      =         0.001479	       0.084766
	 D(6,8,12,22)     =        -3.140702	    -179.948971
	 D(6,10,5,7)      =        -0.001201	      -0.068795
	 D(6,10,5,18)     =        -3.141485	    -179.993816
	 D(7,5,10,9)      =        -3.140617	    -179.944076
	 D(7,12,8,21)     =        -3.141052	    -179.969035
	 D(8,6,10,9)      =         3.141173	     179.975965
	 D(8,12,7,20)     =         3.139609	     179.886353
	 D(9,1,3,11)      =         0.000348	       0.019955
	 D(9,1,3,16)      =        -3.141571	    -179.998735
	 D(9,2,4,11)      =        -0.000301	      -0.017270
	 D(9,2,4,17)      =        -3.141228	    -179.979086
	 D(9,10,5,18)     =         0.002285	       0.130903
	 D(9,10,6,19)     =        -0.001363	      -0.078088
	 D(10,5,7,12)     =         0.000747	       0.042772
	 D(10,5,7,20)     =        -3.139673	    -179.890006
	 D(10,6,8,12)     =        -0.001882	      -0.107847
	 D(10,6,8,21)     =         3.140725	     179.950304
	 D(10,9,1,14)     =         0.001287	       0.073752
	 D(10,9,2,15)     =        -0.000820	      -0.046992
	 D(11,3,1,14)     =         3.141234	     179.979432
	 D(11,4,2,15)     =         3.141517	     179.995641
	 D(12,7,5,18)     =         3.141055	     179.969186
	 D(12,8,6,19)     =         3.140637	     179.945236
	 D(13,11,3,16)    =        -0.000286	      -0.016400
	 D(13,11,4,17)    =        -0.000079	      -0.004548
	 D(14,1,3,16)     =        -0.000685	      -0.039257
	 D(15,2,4,17)     =         0.000590	       0.033826
	 D(18,5,7,20)     =         0.000635	       0.036408
	 D(19,6,8,21)     =         0.000059	       0.003387
	 D(20,7,12,22)    =        -0.001395	      -0.079920
	 D(21,8,12,22)    =        -0.000048	      -0.002772

	Current energy   :      -554.0963399085

	Generating empirical Hessian (Schlegel '84) for each fragment.
	Adding user-defined constraint: Fragment 1; Coordinate 76:
		Value =    -0.523670; Fixed value    =    -0.523599
		Force =     0.000036; Force constant =     0.500000
	Removing off-diagonal coupling between coordinate 76 and others.
	Taking RFO optimization step.
	Going to follow RFO solution 1.
	Using RFO vector 1.

	Determining step-restricting scale parameter for RS-RFO.
	Maximum step size allowed    0.10000

	 Iter      |step|        alpha        rfo_root  
	------------------------------------------------
	    0     0.28089       1.00000           1
	    1     0.19181       3.95383           1
	    2     0.14416       9.99324           1
	    3     0.11728      20.30436           1
	    4     0.10395      30.62481           1
	    5     0.10027      34.52734           1
	    6     0.10000      34.83972           1
	------------------------------------------------
	Norm of target step-size    0.10000
	Projected energy change by RFO approximation:        -0.0048643987

	Back-transformation to cartesian coordinates...
	Could not converge backtransformation.
	Using first guess instead.

	--- Internal Coordinate Step in ANG or DEG, aJ/ANG or AJ/DEG ---
	 ---------------------------------------------------------------------------
	   Coordinate                Previous        Force       Change         New 
	   ----------                --------       ------       ------       ------
	    1 R(1,3)          =      1.394038    -0.096127    -0.009897     1.384141
	    2 R(1,9)          =      1.394891     0.012277     0.001470     1.396361
	    3 R(1,14)         =      1.087431    -0.048009    -0.006071     1.081360
	    4 R(2,4)          =      1.394521    -0.099627    -0.010398     1.384123
	    5 R(2,9)          =      1.394821     0.020619     0.002317     1.397138
	    6 R(2,15)         =      1.087831    -0.051949    -0.006574     1.081257
	    7 R(3,11)         =      1.394821    -0.009149    -0.001050     1.393771
	    8 R(3,16)         =      1.086899    -0.041083    -0.005188     1.081711
	    9 R(4,11)         =      1.395407    -0.059509    -0.006368     1.389039
	   10 R(4,17)         =      1.086527    -0.045652    -0.005753     1.080774
	   11 R(5,7)          =      1.387725    -0.114368    -0.011640     1.376085
	   12 R(5,10)         =      1.390633     0.070652     0.007528     1.398161
	   13 R(5,18)         =      1.086115    -0.057655    -0.007231     1.078884
	   14 R(6,8)          =      1.388398    -0.117942    -0.011998     1.376400
	   15 R(6,10)         =      1.391351     0.065204     0.006857     1.398207
	   16 R(6,19)         =      1.085973    -0.056742    -0.007162     1.078811
	   17 R(7,12)         =      1.340223     0.019882     0.001731     1.341954
	   18 R(7,20)         =      1.081598    -0.023158    -0.002897     1.078701
	   19 R(8,12)         =      1.339317     0.024967     0.002139     1.341456
	   20 R(8,21)         =      1.081264    -0.021163    -0.002610     1.078654
	   21 R(9,10)         =      1.446444     0.056594     0.006728     1.453172
	   22 R(11,13)        =      1.360865    -0.077106    -0.006733     1.354132
	   23 R(12,22)        =      1.019585    -0.054610    -0.005865     1.013721
	   24 R(13,23)        =      0.970755    -0.066150    -0.005938     0.964817
	   25 B(1,3,11)       =    120.009056     0.000052     0.083060   120.092116
	   26 B(1,3,16)       =    119.662516     0.000051     0.143362   119.805878
	   27 B(1,9,2)        =    119.959722    -0.000460    -0.817939   119.141783
	   28 B(1,9,10)       =    120.043881     0.000228     0.404548   120.448429
	   29 B(2,4,11)       =    119.960108    -0.000020    -0.095309   119.864800
	   30 B(2,4,17)       =    119.723926     0.000207     0.524876   120.248802
	   31 B(2,9,10)       =    119.996376     0.000232     0.413411   120.409787
	   32 B(3,1,9)        =    120.031219     0.000113     0.260899   120.292118
	   33 B(3,1,14)       =    119.144799    -0.000101    -0.240781   118.904019
	   34 B(3,11,4)       =    119.994870     0.000031    -0.001878   119.992992
	   35 B(3,11,13)      =    120.008801     0.000853     1.626951   121.635752
	   36 B(4,2,9)        =    120.045019     0.000284     0.569702   120.614721
	   37 B(4,2,15)       =    119.099297    -0.000212    -0.458497   118.640800
	   38 B(4,11,13)      =    119.996326    -0.000884    -1.628623   118.367703
	   39 B(5,7,12)       =    120.061759    -0.000226    -0.488494   119.573265
	   40 B(5,7,20)       =    123.930212    -0.000006    -0.042619   123.887593
	   41 B(5,10,6)       =    119.909049    -0.000833    -1.540983   118.368066
	   42 B(5,10,9)       =    120.040644     0.000441     0.815024   120.855668
	   43 B(6,8,12)       =    120.074121    -0.000221    -0.485928   119.588193
	   44 B(6,8,21)       =    123.819347     0.000003    -0.014436   123.804910
	   45 B(6,10,9)       =    120.050189     0.000393     0.725992   120.776181
	   46 B(7,5,10)       =    118.816947     0.000525     1.049732   119.866679
	   47 B(7,5,18)       =    119.683141    -0.000349    -0.740707   118.942434
	   48 B(7,12,8)       =    122.361511     0.000220     0.395000   122.756511
	   49 B(7,12,22)      =    118.802740    -0.000108    -0.192196   118.610543
	   50 B(8,6,10)       =    118.776513     0.000535     1.070682   119.847195
	   51 B(8,6,19)       =    119.735704    -0.000358    -0.758062   118.977642
	   52 B(8,12,22)      =    118.835741    -0.000112    -0.202801   118.632940
	   53 B(9,1,14)       =    120.823969    -0.000012    -0.023106   120.800863
	   54 B(9,2,15)       =    120.855683    -0.000072    -0.113041   120.742642
	   55 B(10,5,18)      =    121.499869    -0.000176    -0.309930   121.189940
	   56 B(10,6,19)      =    121.487761    -0.000177    -0.313052   121.174709
	   57 B(11,3,16)      =    120.328425    -0.000103    -0.226449   120.101976
	   58 B(11,4,17)      =    120.315955    -0.000188    -0.429573   119.886381
	   59 B(11,13,23)     =    110.278178    -0.000130    -0.317946   109.960232
	   60 B(12,7,20)      =    116.007998     0.000232     0.530832   116.538830
	   61 B(12,8,21)      =    116.106509     0.000218     0.500100   116.606609
	   62 D(1,3,11,4)     =     -0.018609    -0.000017    -0.368385    -0.386994
	   63 D(1,3,11,13)    =    179.964785     0.000015     0.345198   180.309983
	   64 D(1,9,2,4)      =      0.018608    -0.000009    -0.185715    -0.167107
	   65 D(1,9,2,15)     =   -179.994534     0.000018     0.327201  -179.667333
	   66 D(1,9,10,5)     =     29.917626     0.000009     0.178472    30.096099
	   67 D(1,9,10,6)     =   -149.957477     0.000008     0.160880  -149.796597
	   68 D(2,4,11,3)     =      0.017261     0.000001     0.064288     0.081550
	   69 D(2,4,11,13)    =   -179.966135    -0.000031    -0.626704  -180.592839
	   70 D(2,9,1,3)      =     -0.019945    -0.000007    -0.119528    -0.139473
	   71 D(2,9,1,14)     =   -179.978731     0.000024     0.476343  -179.502388
	   72 D(2,9,10,5)     =   -150.029870     0.000006     0.114540  -149.915331
	   73 D(2,9,10,6)     =     30.095026     0.000005     0.096947    30.191973
	   74 D(3,1,9,10)     =   -179.967461    -0.000009    -0.183298  -180.150759
	   75 D(3,11,4,17)    =    179.978848     0.000001     0.055481   180.034329
	   76 D(3,11,13,23)   =    -30.004106     0.000019     0.131911   -29.872194
	   77 D(4,2,9,10)     =    179.966149    -0.000006    -0.121975   179.844174
	   78 D(4,11,3,16)    =    180.000000    -0.000022    -0.450546   179.549454
	   79 D(4,11,13,23)   =    149.979288     0.000051     0.834540   150.813828
	   80 D(5,7,12,8)     =     -0.051587     0.000001     0.018473    -0.033114
	   81 D(5,7,12,22)    =    179.982140     0.000001     0.010652   179.992791
	   82 D(5,10,6,8)     =      0.100696    -0.000000    -0.004561     0.096134
	   83 D(5,10,6,19)    =   -179.953357     0.000016     0.297164  -179.656193
	   84 D(6,8,12,7)     =      0.084766    -0.000000    -0.002801     0.081965
	   85 D(6,8,12,22)    =   -179.948971     0.000000     0.005026  -179.943946
	   86 D(6,10,5,7)     =     -0.068795     0.000001     0.020684    -0.048111
	   87 D(6,10,5,18)    =   -179.993816     0.000016     0.303493  -179.690324
	   88 D(7,5,10,9)     =   -179.944076     0.000000     0.000740  -179.943336
	   89 D(7,12,8,21)    =   -179.969035    -0.000007    -0.136636  -180.105671
	   90 D(8,6,10,9)     =    179.975965     0.000001     0.015482   179.991446
	   91 D(8,12,7,20)    =    179.886353    -0.000006    -0.114795   179.771558
	   92 D(9,1,3,11)     =      0.019955     0.000020     0.395660     0.415615
	   93 D(9,1,3,16)     =   -179.998735     0.000024     0.477712  -179.521022
	   94 D(9,2,4,11)     =     -0.017270     0.000012     0.212804     0.195534
	   95 D(9,2,4,17)     =   -179.979086     0.000012     0.222014  -179.757072
	   96 D(9,10,5,18)    =      0.130903     0.000015     0.283548     0.414451
	   97 D(9,10,6,19)    =     -0.078088     0.000017     0.317207     0.239119
	   98 D(10,5,7,12)    =      0.042772    -0.000001    -0.026608     0.016164
	   99 D(10,5,7,20)    =   -179.890006     0.000006     0.116675  -179.773331
	  100 D(10,6,8,12)    =     -0.107847    -0.000000    -0.005026    -0.112873
	  101 D(10,6,8,21)    =    179.950304     0.000007     0.138723   180.089027
	  102 D(10,9,1,14)    =      0.073752     0.000021     0.412573     0.486326
	  103 D(10,9,2,15)    =     -0.046992     0.000021     0.390940     0.343948
	  104 D(11,3,1,14)    =    179.979432    -0.000010    -0.188909   179.790523
	  105 D(11,4,2,15)    =    179.995641    -0.000015    -0.289534   179.706107
	  106 D(12,7,5,18)    =    179.969186    -0.000016    -0.302775   179.666411
	  107 D(12,8,6,19)    =    179.945236    -0.000016    -0.300341   179.644895
	  108 D(13,11,3,16)   =     -0.016400     0.000010     0.262831     0.246431
	  109 D(13,11,4,17)   =     -0.004548    -0.000031    -0.635511    -0.640059
	  110 D(14,1,3,16)    =     -0.039257    -0.000006    -0.106857    -0.146114
	  111 D(15,2,4,17)    =      0.033826    -0.000014    -0.280324    -0.246498
	  112 D(18,5,7,20)    =      0.036408    -0.000008    -0.159492    -0.123084
	  113 D(19,6,8,21)    =      0.003387    -0.000008    -0.156592    -0.153205
	  114 D(20,7,12,22)   =     -0.079920    -0.000006    -0.122617    -0.202537
	  115 D(21,8,12,22)   =     -0.002772    -0.000007    -0.128810    -0.131582
	 ---------------------------------------------------------------------------
	Successfully symmetrized geometry.
	 Forces used to impose fixed constraints are not included.
	  Forces zeroed: 76 

  ==> Convergence Check <==

  Measures of convergence in internal coordinates in au.
  Criteria marked as inactive (o), active & met (*), and active & unmet ( ).
  --------------------------------------------------------------------------------------------- ~
   Step     Total Energy     Delta E     MAX Force     RMS Force      MAX Disp      RMS Disp    ~
  --------------------------------------------------------------------------------------------- ~
    Convergence Criteria    1.00e-06 *    3.00e-04 *             o    1.20e-03 *             o  ~
  --------------------------------------------------------------------------------------------- ~
      1    -554.09633991   -5.54e+02      1.43e-02      4.33e-03 o    2.84e-02      9.31e-03 o  ~
  ---------------------------------------------------------------------------------------------

	Writing optimization data to binary file.
	Structure for next step:
	Cartesian Geometry (in Angstrom)
	    C    -1.2796662160   0.7237214594  -0.5683419514
	    C    -0.2936074559   0.1124781170   1.5425744471
	    C    -2.3511226048   1.2901656824   0.1002142940
	    C    -1.3614814671   0.6842010926   2.2123310211
	    C     1.3064881395   0.0231054595  -1.7901141078
	    C     1.5726451656  -1.5585739309  -0.0026622022
	    C     2.3735057153  -0.5600278722  -2.4343497870
	    C     2.6354191146  -2.1108636009  -0.6808694783
	    C    -0.2391910073   0.1269513346   0.1465711131
	    C     0.8857366455  -0.4716414693  -0.5519513435
	    C    -2.3925408799   1.2752394840   1.4932894842
	    N     3.0015257483  -1.6011592798  -1.8664799894
	    O    -3.4282481052   1.8146172631   2.1788958228
	    H    -1.2688670689   0.7430047009  -1.6494756059
	    H     0.5004536872  -0.3378741618   2.1220270795
	    H    -3.1566448871   1.7435060578  -0.4616704553
	    H    -1.3956285264   0.6731114767   3.2925089454
	    H     0.8124787904   0.8629781368  -2.2533194831
	    H     1.2830146819  -1.9799176522   0.9472940348
	    H     2.7540949632  -0.2293702160  -3.3879814178
	    H     3.2084954932  -2.9494914706  -0.3178524739
	    H     3.7857141797  -2.0196479956  -2.3538660285
	    H    -3.8091622190   2.5462436992   1.6783972222
			--------------------------
			 OPTKING Finished Execution 
			--------------------------

    Structure for next step:
    Molecular point group: c1
    Full point group: C1

    Geometry (in Angstrom), charge = 1, multiplicity = 1:

    C           -1.280860216179     0.723339686410    -0.567833458944
    C           -0.294801456095     0.112096343934     1.543082939582
    C           -2.352316605059     1.289783909342     0.100722786467
    C           -1.362675467290     0.683819319565     2.212839513575
    C            1.305294139246     0.022723686419    -1.789605615301
    C            1.571451165337    -1.558955703917    -0.002153709731
    C            2.372311715055    -0.560409645213    -2.433841294490
    C            2.634225114358    -2.111245373954    -0.680360985850
    C           -0.240385007569     0.126569561588     0.147079605536
    C            0.884542645286    -0.472023242314    -0.551442851037
    C           -2.393734880152     1.274857710948     1.493797976723
    N            3.000331748043    -1.601541052793    -1.865971496904
    O           -3.429442105475     1.814235490094     2.179404315288
    H           -1.270061069077     0.742622927903    -1.648967113414
    H            0.499259686970    -0.338255934811     2.122535572026
    H           -3.157838887337     1.743124284750    -0.461161962821
    H           -1.396822526583     0.672729703684     3.293017437892
    H            0.811284790140     0.862596363815    -2.252810990673
    H            1.281820681682    -1.980299425212     0.947802527318
    H            2.752900962997    -0.229751988996    -3.387472925353
    H            3.207301493010    -2.949873243615    -0.317343981463
    H            3.784520179454    -2.020029768664    -2.353357536039
    H           -3.810356219271     2.545861926175     1.678905714642

gradient() will perform analytic gradient computation.

*** tstart() called on gpu-1-8.local
*** at Sun Nov 12 10:34:36 2017

    SCF Algorithm Type (re)set to DF.

*** tstart() called on gpu-1-8.local
*** at Sun Nov 12 10:34:36 2017

   => Loading Basis Set <=

    Name: AUG-CC-PVTZ
    Role: ORBITAL
    Keyword: BASIS
    atoms 1-11  entry C          line   221 file /cbio/jclab/home/chayas/anaconda/envs/py35/share/psi4/basis/aug-cc-pvtz.gbs 
    atoms 12    entry N          line   267 file /cbio/jclab/home/chayas/anaconda/envs/py35/share/psi4/basis/aug-cc-pvtz.gbs 
    atoms 13    entry O          line   313 file /cbio/jclab/home/chayas/anaconda/envs/py35/share/psi4/basis/aug-cc-pvtz.gbs 
    atoms 14-23 entry H          line    34 file /cbio/jclab/home/chayas/anaconda/envs/py35/share/psi4/basis/aug-cc-pvtz.gbs 


         ---------------------------------------------------------
                                   SCF
            by Justin Turney, Rob Parrish, and Andy Simmonett
                              RHF Reference
                        8 Threads,   4768 MiB Core
         ---------------------------------------------------------

  ==> Geometry <==

    Molecular point group: c1
    Full point group: C1

    Geometry (in Angstrom), charge = 1, multiplicity = 1:

       Center              X                  Y                   Z               Mass       
    ------------   -----------------  -----------------  -----------------  -----------------
           C         -1.280860216179     0.723339686410    -0.567833458944    12.000000000000
           C         -0.294801456095     0.112096343934     1.543082939582    12.000000000000
           C         -2.352316605059     1.289783909342     0.100722786467    12.000000000000
           C         -1.362675467290     0.683819319565     2.212839513575    12.000000000000
           C          1.305294139246     0.022723686419    -1.789605615301    12.000000000000
           C          1.571451165337    -1.558955703917    -0.002153709731    12.000000000000
           C          2.372311715055    -0.560409645213    -2.433841294490    12.000000000000
           C          2.634225114358    -2.111245373954    -0.680360985850    12.000000000000
           C         -0.240385007569     0.126569561588     0.147079605536    12.000000000000
           C          0.884542645286    -0.472023242314    -0.551442851037    12.000000000000
           C         -2.393734880152     1.274857710948     1.493797976723    12.000000000000
           N          3.000331748043    -1.601541052793    -1.865971496904    14.003074004780
           O         -3.429442105475     1.814235490094     2.179404315288    15.994914619560
           H         -1.270061069077     0.742622927903    -1.648967113414     1.007825032070
           H          0.499259686970    -0.338255934811     2.122535572026     1.007825032070
           H         -3.157838887337     1.743124284750    -0.461161962821     1.007825032070
           H         -1.396822526583     0.672729703684     3.293017437892     1.007825032070
           H          0.811284790140     0.862596363815    -2.252810990673     1.007825032070
           H          1.281820681682    -1.980299425212     0.947802527318     1.007825032070
           H          2.752900962997    -0.229751988996    -3.387472925353     1.007825032070
           H          3.207301493010    -2.949873243615    -0.317343981463     1.007825032070
           H          3.784520179454    -2.020029768664    -2.353357536039     1.007825032070
           H         -3.810356219271     2.545861926175     1.678905714642     1.007825032070

  Running in c1 symmetry.

  Rotational constants: A =      0.09643  B =      0.01330  C =      0.01188 [cm^-1]
  Rotational constants: A =   2890.79269  B =    398.64433  C =    356.21347 [MHz]
  Nuclear repulsion =  713.320482183430386

  Charge       = 1
  Multiplicity = 1
  Electrons    = 90
  Nalpha       = 45
  Nbeta        = 45

  ==> Algorithm <==

  SCF Algorithm Type is DF.
  DIIS enabled.
  MOM disabled.
  Fractional occupation disabled.
  Guess Type is READ.
  Energy threshold   = 1.00e-10
  Density threshold  = 1.00e-10
  Integral threshold = 0.00e+00

  ==> Primary Basis <==

  Basis Set: AUG-CC-PVTZ
    Blend: AUG-CC-PVTZ
    Number of shells: 272
    Number of basis function: 828
    Number of Cartesian functions: 965
    Spherical Harmonics?: true
    Max angular momentum: 3

   => Loading Basis Set <=

    Name: (AUG-CC-PVTZ AUX)
    Role: JKFIT
    Keyword: DF_BASIS_SCF
    atoms 1-11  entry C          line   161 file /cbio/jclab/home/chayas/anaconda/envs/py35/share/psi4/basis/aug-cc-pvtz-jkfit.gbs 
    atoms 12    entry N          line   223 file /cbio/jclab/home/chayas/anaconda/envs/py35/share/psi4/basis/aug-cc-pvtz-jkfit.gbs 
    atoms 13    entry O          line   285 file /cbio/jclab/home/chayas/anaconda/envs/py35/share/psi4/basis/aug-cc-pvtz-jkfit.gbs 
    atoms 14-23 entry H          line    69 file /cbio/jclab/home/chayas/anaconda/envs/py35/share/psi4/basis/aug-cc-pvtz-jkfit.gbs 

  Reading orbitals from file 180, no projection.

  ==> Pre-Iterations <==

   -------------------------------------------------------
    Irrep   Nso     Nmo     Nalpha   Nbeta   Ndocc  Nsocc
   -------------------------------------------------------
     A        828     828       0       0       0       0
   -------------------------------------------------------
    Total     828     828      45      45      45       0
   -------------------------------------------------------

  ==> Integral Setup <==

  ==> DFJK: Density-Fitted J/K Matrices <==

    J tasked:                  Yes
    K tasked:                  Yes
    wK tasked:                  No
    OpenMP threads:              8
    Integrals threads:           8
    Memory (MB):              3576
    Algorithm:                Disk
    Integral Cache:           NONE
    Schwarz Cutoff:          1E-12
    Fitting Condition:       1E-12

   => Auxiliary Basis Set <=

  Basis Set: (AUG-CC-PVTZ AUX)
    Blend: AUG-CC-PVTZ-JKFIT
    Number of shells: 530
    Number of basis function: 1812
    Number of Cartesian functions: 2253
    Spherical Harmonics?: true
    Max angular momentum: 4

  Minimum eigenvalue in the overlap matrix is 5.7137562224E-07.
  Using Symmetric Orthogonalization.

  SCF Guess: Orbitals guess was supplied from a previous computation.

  ==> Iterations <==

                           Total Energy        Delta E     RMS |[F,P]|

   @DF-RHF iter   0:  -551.79015194738554   -5.51790e+02   4.26842e-04 
   @DF-RHF iter   1:  -551.67915608681392    1.10996e-01   9.68326e-05 
   @DF-RHF iter   2:  -551.67954553970731   -3.89453e-04   6.73005e-05 DIIS
   @DF-RHF iter   3:  -551.67984329198214   -2.97752e-04   7.75249e-06 DIIS
   @DF-RHF iter   4:  -551.67985165824155   -8.36626e-06   3.84893e-06 DIIS
   @DF-RHF iter   5:  -551.67985369529833   -2.03706e-06   1.21452e-06 DIIS
   @DF-RHF iter   6:  -551.67985406329967   -3.68001e-07   6.53317e-07 DIIS
   @DF-RHF iter   7:  -551.67985419881245   -1.35513e-07   3.69190e-07 DIIS
   @DF-RHF iter   8:  -551.67985424366225   -4.48498e-08   1.31143e-07 DIIS
   @DF-RHF iter   9:  -551.67985424940025   -5.73800e-09   4.71430e-08 DIIS
   @DF-RHF iter  10:  -551.67985424978883   -3.88582e-10   1.40189e-08 DIIS
   @DF-RHF iter  11:  -551.67985424983851   -4.96811e-11   3.73629e-09 DIIS
   @DF-RHF iter  12:  -551.67985424983328    5.22959e-12   1.79773e-09 DIIS
   @DF-RHF iter  13:  -551.67985424983942   -6.13909e-12   5.99344e-10 DIIS
   @DF-RHF iter  14:  -551.67985424983738    2.04636e-12   4.25946e-10 DIIS
   @DF-RHF iter  15:  -551.67985424984965   -1.22782e-11   1.69593e-10 DIIS
   @DF-RHF iter  16:  -551.67985424984272    6.93490e-12   7.07509e-11 DIIS

  ==> Post-Iterations <==

    Orbital Energies (a.u.)
    -----------------------

    Doubly Occupied:                                                      

       1A    -20.700996     2A    -15.830367     3A    -11.481749  
       4A    -11.481599     5A    -11.449499     6A    -11.431249  
       7A    -11.411965     8A    -11.411648     9A    -11.378626  
      10A    -11.376596    11A    -11.373663    12A    -11.355357  
      13A    -11.350369    14A     -1.521432    15A     -1.509360  
      16A     -1.318901    17A     -1.266177    18A     -1.238975  
      19A     -1.155885    20A     -1.154048    21A     -1.065577  
      22A     -1.056455    23A     -0.976156    24A     -0.962760  
      25A     -0.952084    26A     -0.870919    27A     -0.861043  
      28A     -0.854676    29A     -0.820901    30A     -0.800754  
      31A     -0.782296    32A     -0.772780    33A     -0.757592  
      34A     -0.737826    35A     -0.724129    36A     -0.710290  
      37A     -0.705451    38A     -0.671451    39A     -0.656920  
      40A     -0.641238    41A     -0.613586    42A     -0.570691  
      43A     -0.539546    44A     -0.471758    45A     -0.439879  

    Virtual:                                                              

      46A     -0.106871    47A     -0.083886    48A     -0.062804  
      49A     -0.060776    50A     -0.058879    51A     -0.049184  
      52A     -0.043821    53A     -0.039191    54A     -0.034215  
      55A     -0.028594    56A     -0.025913    57A     -0.024344  
      58A     -0.016554    59A     -0.008526    60A     -0.007093  
      61A     -0.002736    62A      0.003654    63A      0.006240  
      64A      0.009190    65A      0.015338    66A      0.015973  
      67A      0.019308    68A      0.024585    69A      0.025428  
      70A      0.028701    71A      0.032668    72A      0.037318  
      73A      0.038286    74A      0.041837    75A      0.045322  
      76A      0.048733    77A      0.057677    78A      0.058084  
      79A      0.058625    80A      0.064273    81A      0.068395  
      82A      0.072173    83A      0.073733    84A      0.078730  
      85A      0.084172    86A      0.086767    87A      0.088403  
      88A      0.095491    89A      0.098245    90A      0.108296  
      91A      0.109999    92A      0.114480    93A      0.119646  
      94A      0.123243    95A      0.126398    96A      0.128395  
      97A      0.133962    98A      0.137266    99A      0.140037  
     100A      0.144919   101A      0.151385   102A      0.155339  
     103A      0.159797   104A      0.163259   105A      0.166702  
     106A      0.168664   107A      0.171730   108A      0.173703  
     109A      0.182464   110A      0.185064   111A      0.187091  
     112A      0.189476   113A      0.193170   114A      0.197474  
     115A      0.201552   116A      0.206403   117A      0.211001  
     118A      0.213273   119A      0.213860   120A      0.220263  
     121A      0.224366   122A      0.226983   123A      0.230415  
     124A      0.233117   125A      0.234380   126A      0.239704  
     127A      0.242789   128A      0.248413   129A      0.251675  
     130A      0.258017   131A      0.259669   132A      0.273542  
     133A      0.276154   134A      0.279641   135A      0.282087  
     136A      0.283309   137A      0.287977   138A      0.293469  
     139A      0.300754   140A      0.307275   141A      0.311199  
     142A      0.312233   143A      0.315276   144A      0.320915  
     145A      0.324585   146A      0.326446   147A      0.327426  
     148A      0.334133   149A      0.335007   150A      0.339898  
     151A      0.341717   152A      0.347967   153A      0.351178  
     154A      0.352425   155A      0.359595   156A      0.360298  
     157A      0.366102   158A      0.368472   159A      0.372792  
     160A      0.375240   161A      0.376677   162A      0.378241  
     163A      0.384722   164A      0.387888   165A      0.390511  
     166A      0.394575   167A      0.399232   168A      0.400361  
     169A      0.404594   170A      0.407884   171A      0.412299  
     172A      0.413720   173A      0.415547   174A      0.421105  
     175A      0.422390   176A      0.430862   177A      0.432484  
     178A      0.436486   179A      0.439263   180A      0.442375  
     181A      0.443802   182A      0.450686   183A      0.454779  
     184A      0.463041   185A      0.471455   186A      0.478613  
     187A      0.482027   188A      0.486916   189A      0.492742  
     190A      0.501031   191A      0.506831   192A      0.511676  
     193A      0.516069   194A      0.524917   195A      0.530718  
     196A      0.535287   197A      0.537414   198A      0.546084  
     199A      0.556349   200A      0.562779   201A      0.566517  
     202A      0.573426   203A      0.576036   204A      0.580236  
     205A      0.584709   206A      0.590063   207A      0.591878  
     208A      0.601825   209A      0.606085   210A      0.611693  
     211A      0.616161   212A      0.623128   213A      0.626630  
     214A      0.630926   215A      0.635330   216A      0.641000  
     217A      0.651372   218A      0.652306   219A      0.654449  
     220A      0.659375   221A      0.668170   222A      0.676262  
     223A      0.683366   224A      0.687505   225A      0.697730  
     226A      0.705144   227A      0.707452   228A      0.710582  
     229A      0.714774   230A      0.718967   231A      0.725145  
     232A      0.734023   233A      0.734859   234A      0.738807  
     235A      0.743471   236A      0.755572   237A      0.757562  
     238A      0.761461   239A      0.766869   240A      0.773110  
     241A      0.774097   242A      0.780841   243A      0.783617  
     244A      0.789195   245A      0.792321   246A      0.795727  
     247A      0.803349   248A      0.804456   249A      0.809724  
     250A      0.811732   251A      0.819768   252A      0.821950  
[...]
	 B(5,10,9)        =         2.123265	     121.654117
	 B(6,8,12)        =         2.085637	     119.498201
	 B(6,8,21)        =         2.156849	     123.578367
	 B(6,10,9)        =         2.122449	     121.607373
	 B(7,5,10)        =         2.110899	     120.945614
	 B(7,5,18)        =         2.063304	     118.218638
	 B(7,12,8)        =         2.136036	     122.385857
	 B(7,12,22)       =         2.073609	     118.809055
	 B(8,6,10)        =         2.110775	     120.938488
	 B(8,6,19)        =         2.063216	     118.213551
	 B(8,12,22)       =         2.073540	     118.805085
	 B(9,1,14)        =         2.102804	     120.481795
	 B(9,2,15)        =         2.102805	     120.481876
	 B(10,5,18)       =         2.108516	     120.809069
	 B(10,6,19)       =         2.108738	     120.821786
	 B(11,3,16)       =         2.092599	     119.897070
	 B(11,4,17)       =         2.072385	     118.738915
	 B(11,13,23)      =         1.932395	     110.718084
	 B(12,7,20)       =         2.040592	     116.917289
	 B(12,8,21)       =         2.040634	     116.919693
	 D(1,3,11,4)      =        -0.039410	      -2.258036
	 D(1,3,11,13)     =        -3.098624	    -177.538106
	 D(1,9,2,4)       =        -0.013931	      -0.798213
	 D(1,9,2,15)      =        -3.101558	    -177.706199
	 D(1,9,10,5)      =         0.457936	      26.237825
	 D(1,9,10,6)      =        -2.683375	    -153.746083
	 D(2,4,11,3)      =         0.015011	       0.860041
	 D(2,4,11,13)     =         3.079092	     176.418964
	 D(2,9,1,3)       =        -0.010706	      -0.613411
	 D(2,9,1,14)      =        -3.083203	    -176.654522
	 D(2,9,10,5)      =        -2.689670	    -154.106766
	 D(2,9,10,6)      =         0.452203	      25.909327
	 D(3,1,9,10)      =         3.124999	     179.049233
	 D(3,11,4,17)     =        -3.138637	    -179.830666
	 D(3,11,13,23)    =        -0.518620	     -29.714746
	 D(4,2,9,10)      =         3.133553	     179.539335
	 D(4,11,3,16)     =         3.093986	     177.272341
	 D(4,11,13,23)    =         2.703249	     154.884747
	 D(5,7,12,8)      =         0.001029	       0.058976
	 D(5,7,12,22)     =        -3.140234	    -179.922166
	 D(5,10,6,8)      =         0.000643	       0.036858
	 D(5,10,6,19)     =        -3.107888	    -178.068872
	 D(6,8,12,7)      =         0.001104	       0.063250
	 D(6,8,12,22)     =        -3.140818	    -179.955608
	 D(6,10,5,7)      =         0.001492	       0.085467
	 D(6,10,5,18)     =        -3.106725	    -178.002209
	 D(7,5,10,9)      =        -3.139833	    -179.899187
	 D(7,12,8,21)     =         3.130859	     179.385000
	 D(8,6,10,9)      =        -3.141217	    -179.978480
	 D(8,12,7,20)     =         3.130495	     179.364138
	 D(9,1,3,11)      =         0.037339	       2.139354
	 D(9,1,3,16)      =        -3.096041	    -177.390072
	 D(9,2,4,11)      =         0.011696	       0.670128
	 D(9,2,4,17)      =        -3.117537	    -178.621734
	 D(9,10,5,18)     =         0.035136	       2.013137
	 D(9,10,6,19)     =         0.033437	       1.915789
	 D(10,5,7,12)     =        -0.002345	      -0.134369
	 D(10,5,7,20)     =        -3.130958	    -179.390651
	 D(10,6,8,12)     =        -0.001936	      -0.110933
	 D(10,6,8,21)     =        -3.130860	    -179.385046
	 D(10,9,1,14)     =         0.052502	       3.008121
	 D(10,9,2,15)     =         0.045926	       2.631349
	 D(11,3,1,14)     =         3.111079	     178.251700
	 D(11,4,2,15)     =         3.100296	     177.633856
	 D(12,7,5,18)     =         3.106715	     178.001657
	 D(12,8,6,19)     =         3.107437	     178.043024
	 D(13,11,3,16)    =         0.034772	       1.992271
	 D(13,11,4,17)    =        -0.074556	      -4.271744
	 D(14,1,3,16)     =        -0.022301	      -1.277726
	 D(15,2,4,17)     =        -0.028938	      -1.658006
	 D(18,5,7,20)     =        -0.021897	      -1.254624
	 D(19,6,8,21)     =        -0.021487	      -1.231089
	 D(20,7,12,22)    =        -0.010769	      -0.617004
	 D(21,8,12,22)    =        -0.011063	      -0.633858

	Current energy   :      -554.1003293311

	Energy change for the previous step:
		Projected    :        -0.0000054913
		Actual       :        -0.0000001574

	Performing BFGS update.
	Previous computed or guess Hessian on step 1.
	Steps to be used in Hessian update: 6 5
	Adding user-defined constraint: Fragment 1; Coordinate 76:
		Value =    -0.518620; Fixed value    =    -0.523600
		Force =    -0.003237; Force constant =     0.650000
	Removing off-diagonal coupling between coordinate 76 and others.
	Taking RFO optimization step.
	Going to follow RFO solution 1.
	Rejecting RFO root 1 because normalization gives large value.
	Using RFO vector 2.
	Norm of target step-size    0.00412
	Projected energy change by RFO approximation:        -0.0000014064

	Back-transformation to cartesian coordinates...
	Successfully converged to displaced geometry.

	--- Internal Coordinate Step in ANG or DEG, aJ/ANG or AJ/DEG ---
	 ---------------------------------------------------------------------------
	   Coordinate                Previous        Force       Change         New 
	   ----------                --------       ------       ------       ------
	    1 R(1,3)          =      1.379840    -0.000155    -0.000016     1.379825
	    2 R(1,9)          =      1.398438    -0.000178    -0.000025     1.398413
	    3 R(1,14)         =      1.079486     0.000062     0.000012     1.079498
	    4 R(2,4)          =      1.377970     0.000034    -0.000008     1.377962
	    5 R(2,9)          =      1.399681    -0.000378    -0.000070     1.399612
	    6 R(2,15)         =      1.079392     0.000084     0.000033     1.079425
	    7 R(3,11)         =      1.393254     0.000063    -0.000017     1.393237
	    8 R(3,16)         =      1.079877    -0.000041    -0.000007     1.079870
	    9 R(4,11)         =      1.392604    -0.000302    -0.000010     1.392594
	   10 R(4,17)         =      1.078509    -0.000080    -0.000019     1.078490
	   11 R(5,7)          =      1.371513    -0.000217    -0.000053     1.371460
	   12 R(5,10)         =      1.401862    -0.000155    -0.000014     1.401848
	   13 R(5,18)         =      1.077347     0.000020     0.000006     1.077354
	   14 R(6,8)          =      1.371490    -0.000204    -0.000053     1.371436
	   15 R(6,10)         =      1.401956    -0.000230    -0.000036     1.401920
	   16 R(6,19)         =      1.077297     0.000054     0.000024     1.077320
	   17 R(7,12)         =      1.343397     0.000090     0.000024     1.343421
	   18 R(7,20)         =      1.077242    -0.000046    -0.000008     1.077233
	   19 R(8,12)         =      1.343437     0.000059     0.000025     1.343462
	   20 R(8,21)         =      1.077257    -0.000044    -0.000008     1.077250
	   21 R(9,10)         =      1.444335    -0.000497    -0.000069     1.444267
	   22 R(11,13)        =      1.347445    -0.000187     0.000007     1.347452
	   23 R(12,22)        =      1.011654    -0.000071    -0.000020     1.011635
	   24 R(13,23)        =      0.963541    -0.000108    -0.000033     0.963509
	   25 B(1,3,11)       =    120.003307     0.000001    -0.000269   120.003038
	   26 B(1,3,16)       =    120.097953    -0.000001     0.001959   120.099911
	   27 B(1,9,2)        =    118.595266     0.000000     0.011773   118.607038
	   28 B(1,9,10)       =    120.674533     0.000000    -0.003054   120.671479
	   29 B(2,4,11)       =    120.043459     0.000000    -0.001122   120.042337
	   30 B(2,4,17)       =    121.213931    -0.000002    -0.003457   121.210473
	   31 B(2,9,10)       =    120.729329    -0.000000    -0.008939   120.720390
	   32 B(3,1,9)        =    120.751715    -0.000001    -0.006693   120.745022
	   33 B(3,1,14)       =    118.651044    -0.000001     0.011129   118.662173
	   34 B(3,11,4)       =    119.764149    -0.000001     0.003597   119.767746
	   35 B(3,11,13)      =    123.045383     0.000001     0.000433   123.045816
	   36 B(4,2,9)        =    120.801416     0.000001    -0.006084   120.795333
	   37 B(4,2,15)       =    118.646328    -0.000002     0.011517   118.657845
	   38 B(4,11,13)      =    117.031633    -0.000000    -0.008183   117.023449
	   39 B(5,7,12)       =    119.493158    -0.000001    -0.007012   119.486145
	   40 B(5,7,20)       =    123.585628    -0.000000     0.001371   123.586999
	   41 B(5,10,6)       =    116.738508     0.000000     0.008978   116.747486
	   42 B(5,10,9)       =    121.654117     0.000000    -0.000296   121.653821
	   43 B(6,8,12)       =    119.498201    -0.000001    -0.006877   119.491324
	   44 B(6,8,21)       =    123.578367    -0.000001     0.001105   123.579472
	   45 B(6,10,9)       =    121.607373    -0.000000    -0.008688   121.598685
	   46 B(7,5,10)       =    120.945614     0.000001    -0.002887   120.942727
	   47 B(7,5,18)       =    118.218638    -0.000001     0.007624   118.226261
	   48 B(7,12,8)       =    122.385857     0.000000     0.010323   122.396180
	   49 B(7,12,22)      =    118.809055    -0.000000    -0.005227   118.803827
	   50 B(8,6,10)       =    120.938488     0.000001    -0.002489   120.935999
	   51 B(8,6,19)       =    118.213551    -0.000001     0.009578   118.223129
	   52 B(8,12,22)      =    118.805085    -0.000000    -0.005096   118.799989
	   53 B(9,1,14)       =    120.481795     0.000002    -0.001082   120.480713
	   54 B(9,2,15)       =    120.481876     0.000002    -0.004221   120.477655
	   55 B(10,5,18)      =    120.809069     0.000001    -0.004795   120.804274
	   56 B(10,6,19)      =    120.821786     0.000001    -0.007058   120.814728
	   57 B(11,3,16)      =    119.897070    -0.000000    -0.001857   119.895214
	   58 B(11,4,17)      =    118.738915     0.000002     0.004215   118.743131
	   59 B(11,13,23)     =    110.718084    -0.000001    -0.001813   110.716270
	   60 B(12,7,20)      =    116.917289     0.000001     0.005821   116.923110
	   61 B(12,8,21)      =    116.919693     0.000001     0.005895   116.925588
	   62 D(1,3,11,4)     =     -2.258036    -0.000001     0.005816    -2.252220
	   63 D(1,3,11,13)    =   -177.538106     0.000001     0.067386  -177.470720
	   64 D(1,9,2,4)      =     -0.798213    -0.000000    -0.008705    -0.806918
	   65 D(1,9,2,15)     =   -177.706199    -0.000000    -0.035774  -177.741973
	   66 D(1,9,10,5)     =     26.237825     0.000000     0.075862    26.313687
	   67 D(1,9,10,6)     =   -153.746083     0.000000     0.093357  -153.652726
	   68 D(2,4,11,3)     =      0.860041     0.000001     0.053007     0.913049
	   69 D(2,4,11,13)    =    176.418964    -0.000001    -0.004560   176.414404
	   70 D(2,9,1,3)      =     -0.613411     0.000000     0.068165    -0.545245
	   71 D(2,9,1,14)     =   -176.654522     0.000000     0.009877  -176.644645
	   72 D(2,9,10,5)     =   -154.106766    -0.000000     0.034905  -154.071861
	   73 D(2,9,10,6)     =     25.909327    -0.000000     0.052400    25.961727
	   74 D(3,1,9,10)     =    179.049233     0.000000     0.027991   179.077224
	   75 D(3,11,4,17)    =   -179.830666     0.000000     0.019746  -179.810920
	   76 D(3,11,13,23)   =    -29.714746    -0.000005    -0.050385   -29.765132
	   77 D(4,2,9,10)     =    179.539335     0.000000     0.031469   179.570804
	   78 D(4,11,3,16)    =    177.272341    -0.000001    -0.017060   177.255281
	   79 D(4,11,13,23)   =    154.884747    -0.000003     0.009099   154.893847
	   80 D(5,7,12,8)     =      0.058976    -0.000000    -0.010954     0.048022
	   81 D(5,7,12,22)    =   -179.922166    -0.000000    -0.008388  -179.930554
	   82 D(5,10,6,8)     =      0.036858    -0.000000    -0.001091     0.035767
	   83 D(5,10,6,19)    =   -178.068872     0.000000    -0.002409  -178.071281
	   84 D(6,8,12,7)     =      0.063250    -0.000000    -0.002027     0.061223
	   85 D(6,8,12,22)    =   -179.955608    -0.000000    -0.004592  -179.960200
	   86 D(6,10,5,7)     =      0.085467    -0.000000    -0.011892     0.073575
	   87 D(6,10,5,18)    =   -178.002209    -0.000000    -0.009927  -178.012136
	   88 D(7,5,10,9)     =   -179.899187     0.000000     0.004797  -179.894390
	   89 D(7,12,8,21)    =    179.385000    -0.000000     0.009220   179.394219
	   90 D(8,6,10,9)     =   -179.978480    -0.000000    -0.017769  -179.996250
	   91 D(8,12,7,20)    =    179.364138    -0.000000     0.005146   179.369284
	   92 D(9,1,3,11)     =      2.139354     0.000000    -0.067029     2.072325
	   93 D(9,1,3,16)     =   -177.390072     0.000000    -0.044087  -177.434159
	   94 D(9,2,4,11)     =      0.670128    -0.000000    -0.051425     0.618703
	   95 D(9,2,4,17)     =   -178.621734    -0.000000    -0.017382  -178.639116
	   96 D(9,10,5,18)    =      2.013137     0.000000     0.006762     2.019900
	   97 D(9,10,6,19)    =      1.915789    -0.000000    -0.019087     1.896702
	   98 D(10,5,7,12)    =     -0.134369     0.000000     0.018017    -0.116353
	   99 D(10,5,7,20)    =   -179.390651     0.000000     0.000759  -179.389892
	  100 D(10,6,8,12)    =     -0.110933     0.000000     0.008048    -0.102885
	  101 D(10,6,8,21)    =   -179.385046     0.000000    -0.004017  -179.389063
	  102 D(10,9,1,14)    =      3.008121     0.000000    -0.030298     2.977823
	  103 D(10,9,2,15)    =      2.631349    -0.000000     0.004401     2.635749
	  104 D(11,3,1,14)    =    178.251700     0.000000    -0.010242   178.241458
	  105 D(11,4,2,15)    =    177.633856    -0.000000    -0.025307   177.608549
	  106 D(12,7,5,18)    =    178.001657     0.000000     0.015875   178.017532
	  107 D(12,8,6,19)    =    178.043024     0.000000     0.009031   178.052055
	  108 D(13,11,3,16)   =      1.992271     0.000001     0.044510     2.036781
	  109 D(13,11,4,17)   =     -4.271744    -0.000001    -0.037821    -4.309565
	  110 D(14,1,3,16)    =     -1.277726     0.000000     0.012699    -1.265026
	  111 D(15,2,4,17)    =     -1.658006     0.000000     0.008737    -1.649270
	  112 D(18,5,7,20)    =     -1.254624     0.000000    -0.001383    -1.256008
	  113 D(19,6,8,21)    =     -1.231089     0.000000    -0.003034    -1.234123
	  114 D(20,7,12,22)   =     -0.617004    -0.000000     0.007711    -0.609293
	  115 D(21,8,12,22)   =     -0.633858     0.000000     0.006654    -0.627204
	 ---------------------------------------------------------------------------
	Successfully symmetrized geometry.
	 Forces used to impose fixed constraints are not included.
	  Forces zeroed: 76 

  ==> Convergence Check <==

  Measures of convergence in internal coordinates in au.
  Criteria marked as inactive (o), active & met (*), and active & unmet ( ).
  ---------------------------------------------------------------------------------------------
   Step     Total Energy     Delta E     MAX Force     RMS Force      MAX Disp      RMS Disp   
  ---------------------------------------------------------------------------------------------
    Convergence Criteria    1.00e-06 *    3.00e-04 *             o    1.20e-03 *             o
  ---------------------------------------------------------------------------------------------
      7    -554.10032933   -1.57e-07 *    1.79e-04 *    2.41e-05 o    1.63e-03      3.84e-04 o  ~
  ---------------------------------------------------------------------------------------------


  **** Optimization is complete! (in 7 steps) ****

  ==> Optimization Summary <==

  Measures of convergence in internal coordinates in au.
  --------------------------------------------------------------------------------------------------------------- ~
   Step         Total Energy             Delta E       MAX Force       RMS Force        MAX Disp        RMS Disp  ~
  --------------------------------------------------------------------------------------------------------------- ~
      1    -554.096339908472   -554.096339908472      0.01431551      0.00432953      0.02842484      0.00931335  ~
      2    -554.099265426053     -0.002925517581      0.00485017      0.00147767      0.03556579      0.00930255  ~
      3    -554.100072531923     -0.000807105870      0.00162930      0.00046586      0.03452227      0.00931118  ~
      4    -554.100292675431     -0.000220143508      0.00067214      0.00014526      0.02823116      0.00608334  ~
      5    -554.100327829062     -0.000035153631      0.00035175      0.00009322      0.01012323      0.00214997  ~
      6    -554.100329173783     -0.000001344721      0.00021806      0.00004043      0.00513512      0.00097844  ~
      7    -554.100329331146     -0.000000157363      0.00026201      0.00003435      0.00162939      0.00038379  ~
  --------------------------------------------------------------------------------------------------------------- ~

	Writing optimization data to binary file.
	Final energy is   -554.1003293311461
	Final (previous) structure:
	Cartesian Geometry (in Angstrom)
	    C    -1.2568333705   0.7774555798  -0.5624739136
	    C    -0.3287744526   0.0726894751   1.5423813759
	    C    -2.3354663476   1.3300778644   0.0971617596
	    C    -1.3899864795   0.6486894089   2.2063508092
	    C     1.2983207804   0.0010747419  -1.8019520952
	    C     1.5997703960  -1.5323448586   0.0027496573
	    C     2.3608004058  -0.5767821623  -2.4486870443
	    C     2.6596268592  -2.0873933756  -0.6677797526
	    C    -0.2381035611   0.1336330406   0.1469701233
	    C     0.8799666294  -0.4620720242  -0.5466862697
	    C    -2.3966308869   1.2895290095   1.4884815446
	    N     3.0111041251  -1.5994905851  -1.8691278215
	    O    -3.4420747904   1.7664188917   2.1922081821
	    H    -1.2454414466   0.7956049050  -1.6417470849
	    H     0.4582595517  -0.3842617702   2.1227785055
	    H    -3.1367958843   1.7876798590  -0.4637351710
	    H    -1.4553088413   0.6248165364   3.2826150928
	    H     0.8123336403   0.8407833379  -2.2703359631
	    H     1.3156941169  -1.9603033105   0.9497029696
	    H     2.7238151198  -0.2493444413  -3.4086112620
	    H     3.2355876611  -2.9158074238  -0.2903113936
	    H     3.7940762833  -2.0172344902  -2.3548118267
	    H    -3.8641642554   2.4951434898   1.7240066498
	Saving final (previous) structure.
			--------------------------
			 OPTKING Finished Execution 
			--------------------------

    Final optimized geometry and variables:
    Molecular point group: c1
    Full point group: C1

    Geometry (in Angstrom), charge = 1, multiplicity = 1:

    C           -1.256833370544     0.777455579760    -0.562473913599
    C           -0.328774452596     0.072689475137     1.542381375923
    C           -2.335466347628     1.330077864419     0.097161759588
    C           -1.389986479526     0.648689408903     2.206350809191
    C            1.298320780355     0.001074741902    -1.801952095242
    C            1.599770396011    -1.532344858625     0.002749657293
    C            2.360800405825    -0.576782162315    -2.448687044277
    C            2.659626859214    -2.087393375623    -0.667779752630
    C           -0.238103561129     0.133633040575     0.146970123328
    C            0.879966629427    -0.462072024223    -0.546686269687
    C           -2.396630886911     1.289529009488     1.488481544644
    N            3.011104125058    -1.599490585131    -1.869127821513
    O           -3.442074790420     1.766418891696     2.192208182095
    H           -1.245441446632     0.795604904981    -1.641747084873
    H            0.458259551654    -0.384261770234     2.122778505470
    H           -3.136795884341     1.787679858997    -0.463735171042
    H           -1.455308841319     0.624816536380     3.282615092786
    H            0.812333640306     0.840783337948    -2.270335963064
    H            1.315694116925    -1.960303310512     0.949702969594
    H            2.723815119755    -0.249344441300    -3.408611262046
    H            3.235587661062    -2.915807423822    -0.290311393586
    H            3.794076283269    -2.017234490158    -2.354811826710
    H           -3.864164255420     2.495143489838     1.724006649802

	Cleaning optimization helper files.

*** Psi4 exiting successfully. Buy a developer a beer!
