
    -----------------------------------------------------------------------
          Psi4: An Open-Source Ab Initio Electronic Structure Package
                               Psi4 1.1 release

                         Git: Rev {HEAD} add49b9 


    R. M. Parrish, L. A. Burns, D. G. A. Smith, A. C. Simmonett,
    A. E. DePrince III, E. G. Hohenstein, U. Bozkaya, A. Yu. Sokolov,
    R. Di Remigio, R. M. Richard, J. F. Gonthier, A. M. James,
    H. R. McAlexander, A. Kumar, M. Saitow, X. Wang, B. P. Pritchard,
    P. Verma, H. F. Schaefer III, K. Patkowski, R. A. King, E. F. Valeev,
    F. A. Evangelista, J. M. Turney, T. D. Crawford, and C. D. Sherrill,
    J. Chem. Theory Comput. in press (2017).
    (doi: 10.1021/acs.jctc.7b00174)

    -----------------------------------------------------------------------


    Psi4 started on: Sunday, 12 November 2017 02:25AM

    Process ID:  14506
    PSIDATADIR: /cbio/jclab/home/chayas/anaconda/envs/py35/share/psi4
    Memory:     500.0 MiB
    Threads:    8
    
  ==> Input File <==

--------------------------------------------------------------------------

memory 5 Gb

molecule phepyrOH_anion {
  symmetry C1
  -1 1 
  C      1.885   -1.036   -0.112
  C      2.878   -1.652   2.002
  C      0.807   -0.463   0.561
  C      1.800   -1.079   2.676
  C      4.086   -2.207   -1.480
  C      5.074   -2.818   0.626
  C      5.179   -2.788   -2.100
  C      6.123   -3.372   -0.089
  C      2.921   -1.631   0.608
  C      4.040   -2.226   -0.090
  C      0.764   -0.484   1.955
  N      6.203   -3.373   -1.439
  O      -0.227   0.042   2.574
  H      1.904   -1.011   -1.199
  H      3.678   -2.112   2.577
  H      0.011   -0.006   -0.025
  H      1.791   -1.108   3.764
  H      3.298   -1.753   -2.073
  H      5.072   -2.852   1.711
  H      5.263   -2.798   -3.182
  H      6.954   -3.847   0.422
  units Angstrom
}

dih_string = "1 9 10 5 0.001"
set optking fixed_dihedral = $dih_string

optimize('MP2/aug-cc-PVTZ')
--------------------------------------------------------------------------

  Memory set to   4.657 GiB by Python driver.
gradient() will perform analytic gradient computation.

*** tstart() called on gpu-1-16.local
*** at Sun Nov 12 02:25:35 2017

    SCF Algorithm Type (re)set to DF.

*** tstart() called on gpu-1-16.local
*** at Sun Nov 12 02:25:35 2017

   => Loading Basis Set <=

    Name: AUG-CC-PVTZ
    Role: ORBITAL
    Keyword: BASIS
    atoms 1-11  entry C          line   221 file /cbio/jclab/home/chayas/anaconda/envs/py35/share/psi4/basis/aug-cc-pvtz.gbs 
    atoms 12    entry N          line   267 file /cbio/jclab/home/chayas/anaconda/envs/py35/share/psi4/basis/aug-cc-pvtz.gbs 
    atoms 13    entry O          line   313 file /cbio/jclab/home/chayas/anaconda/envs/py35/share/psi4/basis/aug-cc-pvtz.gbs 
    atoms 14-21 entry H          line    34 file /cbio/jclab/home/chayas/anaconda/envs/py35/share/psi4/basis/aug-cc-pvtz.gbs 


         ---------------------------------------------------------
                                   SCF
            by Justin Turney, Rob Parrish, and Andy Simmonett
                              RHF Reference
                        8 Threads,   4768 MiB Core
         ---------------------------------------------------------

  ==> Geometry <==

    Molecular point group: c1
    Full point group: C1

    Geometry (in Angstrom), charge = -1, multiplicity = 1:

       Center              X                  Y                   Z               Mass       
    ------------   -----------------  -----------------  -----------------  -----------------
           C         -1.279190480264     0.723612679486    -0.568984761656    12.000000000000
           C         -0.286190480264     0.107612679486     1.545015238344    12.000000000000
           C         -2.357190480264     1.296612679486     0.104015238344    12.000000000000
           C         -1.364190480264     0.680612679486     2.219015238344    12.000000000000
           C          0.921809519736    -0.447387320514    -1.936984761656    12.000000000000
           C          1.909809519736    -1.058387320514     0.169015238344    12.000000000000
           C          2.014809519736    -1.028387320514    -2.556984761656    12.000000000000
           C          2.958809519736    -1.612387320514    -0.545984761656    12.000000000000
           C         -0.243190480264     0.128612679486     0.151015238344    12.000000000000
           C          0.875809519736    -0.466387320514    -0.546984761656    12.000000000000
           C         -2.400190480264     1.275612679486     1.498015238344    12.000000000000
           N          3.038809519736    -1.613387320514    -1.895984761656    14.003074004780
           O         -3.391190480264     1.801612679486     2.117015238344    15.994914619560
           H         -1.260190480264     0.748612679486    -1.655984761656     1.007825032070
           H          0.513809519736    -0.352387320514     2.120015238344     1.007825032070
           H         -3.153190480264     1.753612679486    -0.481984761656     1.007825032070
           H         -1.373190480264     0.651612679486     3.307015238344     1.007825032070
           H          0.133809519736     0.006612679486    -2.529984761656     1.007825032070
           H          1.907809519736    -1.092387320514     1.254015238344     1.007825032070
           H          2.098809519736    -1.038387320514    -3.638984761656     1.007825032070
           H          3.789809519736    -2.087387320514    -0.034984761656     1.007825032070

  Running in c1 symmetry.

  Rotational constants: A =      0.09734  B =      0.01407  C =      0.01229 [cm^-1]
  Rotational constants: A =   2918.22034  B =    421.76375  C =    368.50465 [MHz]
  Nuclear repulsion =  687.583728795391153

  Charge       = -1
  Multiplicity = 1
  Electrons    = 90
  Nalpha       = 45
  Nbeta        = 45

  ==> Algorithm <==

  SCF Algorithm Type is DF.
  DIIS enabled.
  MOM disabled.
  Fractional occupation disabled.
  Guess Type is SAD.
  Energy threshold   = 1.00e-10
  Density threshold  = 1.00e-10
  Integral threshold = 0.00e+00

  ==> Primary Basis <==

  Basis Set: AUG-CC-PVTZ
    Blend: AUG-CC-PVTZ
    Number of shells: 254
    Number of basis function: 782
    Number of Cartesian functions: 915
    Spherical Harmonics?: true
    Max angular momentum: 3

   => Loading Basis Set <=

    Name: (AUG-CC-PVTZ AUX)
    Role: JKFIT
    Keyword: DF_BASIS_SCF
    atoms 1-11  entry C          line   161 file /cbio/jclab/home/chayas/anaconda/envs/py35/share/psi4/basis/aug-cc-pvtz-jkfit.gbs 
    atoms 12    entry N          line   223 file /cbio/jclab/home/chayas/anaconda/envs/py35/share/psi4/basis/aug-cc-pvtz-jkfit.gbs 
    atoms 13    entry O          line   285 file /cbio/jclab/home/chayas/anaconda/envs/py35/share/psi4/basis/aug-cc-pvtz-jkfit.gbs 
    atoms 14-21 entry H          line    69 file /cbio/jclab/home/chayas/anaconda/envs/py35/share/psi4/basis/aug-cc-pvtz-jkfit.gbs 

  ==> Pre-Iterations <==

   -------------------------------------------------------
    Irrep   Nso     Nmo     Nalpha   Nbeta   Ndocc  Nsocc
   -------------------------------------------------------
     A        782     782       0       0       0       0
   -------------------------------------------------------
    Total     782     782      45      45      45       0
   -------------------------------------------------------

  ==> Integral Setup <==

  ==> DFJK: Density-Fitted J/K Matrices <==

    J tasked:                  Yes
    K tasked:                  Yes
    wK tasked:                  No
    OpenMP threads:              8
    Integrals threads:           8
    Memory (MB):              3576
    Algorithm:                Disk
    Integral Cache:           NONE
    Schwarz Cutoff:          1E-12
    Fitting Condition:       1E-12

   => Auxiliary Basis Set <=

  Basis Set: (AUG-CC-PVTZ AUX)
    Blend: AUG-CC-PVTZ-JKFIT
    Number of shells: 502
    Number of basis function: 1720
    Number of Cartesian functions: 2143
    Spherical Harmonics?: true
    Max angular momentum: 4

  Minimum eigenvalue in the overlap matrix is 3.0994559499E-07.
  Using Symmetric Orthogonalization.

  SCF Guess: Superposition of Atomic Densities via on-the-fly atomic UHF.

  ==> Iterations <==

                           Total Energy        Delta E     RMS |[F,P]|

   @DF-RHF iter   0:  -560.36830094877348   -5.60368e+02   2.04304e-02 
   @DF-RHF iter   1:  -550.28523180904563    1.00831e+01   1.90999e-03 
   @DF-RHF iter   2:  -550.59671251368616   -3.11481e-01   1.16671e-03 DIIS
   @DF-RHF iter   3:  -550.68530771266001   -8.85952e-02   5.59643e-04 DIIS
   @DF-RHF iter   4:  -550.70907659292516   -2.37689e-02   1.52297e-04 DIIS
   @DF-RHF iter   5:  -550.71151491624983   -2.43832e-03   6.18760e-05 DIIS
   @DF-RHF iter   6:  -550.71202120394321   -5.06288e-04   2.43447e-05 DIIS
   @DF-RHF iter   7:  -550.71211192120109   -9.07173e-05   9.89194e-06 DIIS
   @DF-RHF iter   8:  -550.71212353723445   -1.16160e-05   2.84201e-06 DIIS
   @DF-RHF iter   9:  -550.71212612070235   -2.58347e-06   1.44133e-06 DIIS
   @DF-RHF iter  10:  -550.71212705261678   -9.31914e-07   8.27990e-07 DIIS
   @DF-RHF iter  11:  -550.71212727922227   -2.26605e-07   3.59946e-07 DIIS
   @DF-RHF iter  12:  -550.71212731002879   -3.08065e-08   1.21839e-07 DIIS
   @DF-RHF iter  13:  -550.71212731378341   -3.75462e-09   4.96454e-08 DIIS
   @DF-RHF iter  14:  -550.71212731443211   -6.48697e-10   2.39778e-08 DIIS
   @DF-RHF iter  15:  -550.71212731452147   -8.93579e-11   8.18939e-09 DIIS
   @DF-RHF iter  16:  -550.71212731451294    8.52651e-12   3.08812e-09 DIIS
   @DF-RHF iter  17:  -550.71212731453261   -1.96678e-11   1.12627e-09 DIIS
   @DF-RHF iter  18:  -550.71212731453443   -1.81899e-12   5.85257e-10 DIIS
   @DF-RHF iter  19:  -550.71212731454034   -5.91172e-12   2.67412e-10 DIIS
   @DF-RHF iter  20:  -550.71212731453534    5.00222e-12   1.27900e-10 DIIS
   @DF-RHF iter  21:  -550.71212731453500    3.41061e-13   4.89258e-11 DIIS

  ==> Post-Iterations <==

    Orbital Energies (a.u.)
    -----------------------

    Doubly Occupied:                                                      

       1A    -20.303505     2A    -15.442249     3A    -11.164269  
       4A    -11.164082     5A    -11.142512     6A    -11.120629  
       7A    -11.113626     8A    -11.113593     9A    -11.102853  
      10A    -11.102822    11A    -11.076473    12A    -11.064749  
      13A    -11.064702    14A     -1.134461    15A     -1.133331  
      16A     -1.020653    17A     -0.956948    18A     -0.920752  
      19A     -0.871375    20A     -0.838810    21A     -0.747695  
      22A     -0.731999    23A     -0.679749    24A     -0.649480  
      25A     -0.600394    26A     -0.548041    27A     -0.546626  
      28A     -0.498771    29A     -0.493242    30A     -0.480716  
      31A     -0.480694    32A     -0.440927    33A     -0.433297  
      34A     -0.409773    35A     -0.407468    36A     -0.383671  
      37A     -0.354160    38A     -0.353885    39A     -0.318513  
      40A     -0.303193    41A     -0.242099    42A     -0.240974  
      43A     -0.219930    44A     -0.201100    45A     -0.106751  

    Virtual:                                                              

      46A      0.098930    47A      0.099742    48A      0.115707  
      49A      0.115849    50A      0.128037    51A      0.134435  
      52A      0.149164    53A      0.155085    54A      0.158550  
      55A      0.166411    56A      0.177908    57A      0.183299  
      58A      0.184875    59A      0.186829    60A      0.192050  
      61A      0.199708    62A      0.203904    63A      0.207817  
      64A      0.208665    65A      0.212607    66A      0.213931  
      67A      0.219240    68A      0.224140    69A      0.224432  
      70A      0.227025    71A      0.234370    72A      0.236389  
      73A      0.240066    74A      0.245693    75A      0.246079  
      76A      0.254499    77A      0.262197    78A      0.262414  
      79A      0.263717    80A      0.272598    81A      0.272693  
      82A      0.273384    83A      0.281126    84A      0.295407  
      85A      0.298531    86A      0.299732    87A      0.305163  
      88A      0.311210    89A      0.314398    90A      0.321422  
      91A      0.331500    92A      0.333075    93A      0.338073  
      94A      0.338253    95A      0.342446    96A      0.349992  
      97A      0.361374    98A      0.363431    99A      0.370301  
     100A      0.377010   101A      0.378756   102A      0.380683  
     103A      0.386827   104A      0.388409   105A      0.389587  
     106A      0.391104   107A      0.399903   108A      0.401620  
     109A      0.407806   110A      0.411757   111A      0.422615  
     112A      0.424574   113A      0.430825   114A      0.431844  
     115A      0.434049   116A      0.441116   117A      0.450576  
     118A      0.456958   119A      0.459336   120A      0.460679  
     121A      0.474388   122A      0.475126   123A      0.483360  
     124A      0.489010   125A      0.492789   126A      0.494832  
     127A      0.510423   128A      0.515940   129A      0.525380  
     130A      0.526200   131A      0.526513   132A      0.533389  
     133A      0.534756   134A      0.537641   135A      0.541029  
     136A      0.549861   137A      0.552398   138A      0.560869  
     139A      0.562664   140A      0.563776   141A      0.569148  
     142A      0.573264   143A      0.574266   144A      0.576694  
     145A      0.578837   146A      0.585105   147A      0.587253  
     148A      0.595111   149A      0.602344   150A      0.606596  
     151A      0.607294   152A      0.611236   153A      0.613114  
     154A      0.613487   155A      0.615039   156A      0.620931  
     157A      0.622324   158A      0.631927   159A      0.636067  
     160A      0.646511   161A      0.651671   162A      0.653471  
     163A      0.657130   164A      0.660091   165A      0.661015  
     166A      0.664582   167A      0.670827   168A      0.672128  
     169A      0.681849   170A      0.682114   171A      0.693601  
     172A      0.696238   173A      0.706616   174A      0.710765  
     175A      0.711205   176A      0.715118   177A      0.727274  
     178A      0.727943   179A      0.737368   180A      0.753323  
     181A      0.755807   182A      0.767516   183A      0.772860  
     184A      0.774527   185A      0.784576   186A      0.789506  
     187A      0.791662   188A      0.792712   189A      0.801694  
     190A      0.804761   191A      0.809211   192A      0.811675  
     193A      0.819728   194A      0.825593   195A      0.831340  
     196A      0.841430   197A      0.849063   198A      0.854333  
     199A      0.865363   200A      0.866538   201A      0.866896  
     202A      0.880146   203A      0.881640   204A      0.883571  
     205A      0.892359   206A      0.907241   207A      0.909886  
     208A      0.910832   209A      0.916120   210A      0.927441  
     211A      0.940107   212A      0.946868   213A      0.950388  
     214A      0.953886   215A      0.961123   216A      0.963265  
     217A      0.973021   218A      0.978393   219A      0.990847  
     220A      0.992283   221A      0.995036   222A      1.000884  
     223A      1.006154   224A      1.006518   225A      1.012648  
     226A      1.015902   227A      1.019447   228A      1.021441  
     229A      1.029338   230A      1.031794   231A      1.047699  
     232A      1.049962   233A      1.050458   234A      1.054390  
     235A      1.063449   236A      1.064834   237A      1.066915  
     238A      1.067613   239A      1.073812   240A      1.080598  
     241A      1.082715   242A      1.091170   243A      1.092294  
     244A      1.092959   245A      1.096442   246A      1.111494  
     247A      1.111710   248A      1.120601   249A      1.121961  
     250A      1.122170   251A      1.128983   252A      1.129636  
     253A      1.130762   254A      1.134335   255A      1.139824  
     256A      1.141361   257A      1.142592   258A      1.151330  
     259A      1.164426   260A      1.164965   261A      1.167091  
     262A      1.175895   263A      1.177930   264A      1.183205  
     265A      1.185970   266A      1.198257   267A      1.201746  
     268A      1.206972   269A      1.213752   270A      1.220391  
     271A      1.230852   272A      1.235113   273A      1.236205  
     274A      1.237154   275A      1.244559   276A      1.255833  
     277A      1.259766   278A      1.259857   279A      1.279766  
     280A      1.282737   281A      1.288695   282A      1.293340  
     283A      1.296125   284A      1.298611   285A      1.305103  
     286A      1.307900   287A      1.312423   288A      1.315006  
     289A      1.316415   290A      1.317190   291A      1.333304  
     292A      1.348367   293A      1.351622   294A      1.352856  
     295A      1.358493   296A      1.364676   297A      1.365879  
     298A      1.370477   299A      1.371840   300A      1.372207  
     301A      1.389680   302A      1.398570   303A      1.402274  
     304A      1.405338   305A      1.405730   306A      1.423868  
     307A      1.431264   308A      1.431691   309A      1.436739  
     310A      1.440535   311A      1.445161   312A      1.451283  
     313A      1.452537   314A      1.470334   315A      1.474514  
     316A      1.486904   317A      1.493119   318A      1.501780  
     319A      1.503122   320A      1.510769   321A      1.530933  
     322A      1.535001   323A      1.541011   324A      1.550947  
     325A      1.555359   326A      1.559009   327A      1.567568  
     328A      1.581207   329A      1.588343   330A      1.601826  
     331A      1.616404   332A      1.625545   333A      1.626163  
     334A      1.628165   335A      1.633429   336A      1.650855  
     337A      1.664370   338A      1.667319   339A      1.667991  
     340A      1.683759   341A      1.686184   342A      1.709999  
     343A      1.711026   344A      1.721491   345A      1.725234  
     346A      1.738458   347A      1.750805   348A      1.776816  
     349A      1.777962   350A      1.785508   351A      1.790125  
     352A      1.793037   353A      1.796838   354A      1.797187  
     355A      1.802047   356A      1.819189   357A      1.822928  
     358A      1.831910   359A      1.836045   360A      1.839673  
     361A      1.844062   362A      1.854032   363A      1.860395  
     364A      1.862475   365A      1.866013   366A      1.881316  
     367A      1.900595   368A      1.903913   369A      1.915696  
     370A      1.916494   371A      1.930552   372A      1.947137  
     373A      1.953708   374A      1.961578   375A      1.961639  
     376A      1.975590   377A      1.979768   378A      1.996326  
     379A      2.002353   380A      2.008019   381A      2.012544  
     382A      2.033178   383A      2.039102   384A      2.055835  
     385A      2.065879   386A      2.070427   387A      2.076945  
     388A      2.092244   389A      2.105435   390A      2.107492  
     391A      2.108637   392A      2.121897   393A      2.132199  
     394A      2.133279   395A      2.136051   396A      2.137255  
     397A      2.137589   398A      2.144115   399A      2.173291  
     400A      2.173864   401A      2.175277   402A      2.178783  
     403A      2.186094   404A      2.190060   405A      2.192507  
     406A      2.197709   407A      2.214791   408A      2.215627  
     409A      2.218024   410A      2.236387   411A      2.252354  
     412A      2.256060   413A      2.266360   414A      2.282269  
     415A      2.283639   416A      2.288226   417A      2.297263  
     418A      2.298943   419A      2.310230   420A      2.314214  
     421A      2.320548   422A      2.323973   423A      2.357622  
     424A      2.362819   425A      2.363253   426A      2.366438  
     427A      2.378948   428A      2.382109   429A      2.394357  
     430A      2.396353   431A      2.423851   432A      2.425840  
     433A      2.430707   434A      2.431754   435A      2.437798  
     436A      2.445262   437A      2.471642   438A      2.475572  
     439A      2.481131   440A      2.482923   441A      2.510591  
     442A      2.514886   443A      2.536273   444A      2.545998  
     445A      2.570428   446A      2.573168   447A      2.577989  
     448A      2.590981   449A      2.594298   450A      2.603672  
     451A      2.615491   452A      2.625043   453A      2.627765  
     454A      2.635483   455A      2.643724   456A      2.654186  
     457A      2.657613   458A      2.684491   459A      2.703211  
     460A      2.720313   461A      2.736714   462A      2.745153  
     463A      2.746281   464A      2.769785   465A      2.773285  
     466A      2.801348   467A      2.805191   468A      2.824079  
     469A      2.853226   470A      2.856844   471A      2.859233  
     472A      2.916001   473A      2.921222   474A      2.922001  
     475A      2.936105   476A      2.953042   477A      2.955717  
     478A      2.957173   479A      2.959450   480A      2.984919  
     481A      3.024230   482A      3.057572   483A      3.065591  
     484A      3.080647   485A      3.121459   486A      3.143355  
     487A      3.172435   488A      3.172526   489A      3.180953  
     490A      3.201235   491A      3.248560   492A      3.253390  
     493A      3.262729   494A      3.280160   495A      3.290326  
     496A      3.302776   497A      3.310653   498A      3.315912  
     499A      3.347381   500A      3.353555   501A      3.372177  
     502A      3.389588   503A      3.415641   504A      3.425147  
     505A      3.437104   506A      3.462629   507A      3.479024  
     508A      3.480258   509A      3.486555   510A      3.498522  
     511A      3.514711   512A      3.517688   513A      3.521571  
     514A      3.548960   515A      3.553272   516A      3.557264  
     517A      3.566888   518A      3.569464   519A      3.576008  
     520A      3.582257   521A      3.619724   522A      3.624120  
     523A      3.630938   524A      3.639192   525A      3.639765  
     526A      3.649642   527A      3.652469   528A      3.663391  
     529A      3.679651   530A      3.681997   531A      3.696921  
     532A      3.714373   533A      3.715010   534A      3.730920  
     535A      3.738875   536A      3.752267   537A      3.759713  
     538A      3.767393   539A      3.782895   540A      3.791986  
     541A      3.808326   542A      3.809697   543A      3.813505  
     544A      3.818429   545A      3.830867   546A      3.840360  
     547A      3.847788   548A      3.853169   549A      3.864308  
     550A      3.868728   551A      3.882185   552A      3.887582  
     553A      3.909150   554A      3.912693   555A      3.930101  
     556A      3.932198   557A      3.951629   558A      3.955305  
     559A      3.962578   560A      3.966051   561A      4.001458  
     562A      4.005581   563A      4.008691   564A      4.024625  
     565A      4.029942   566A      4.032796   567A      4.057117  
     568A      4.062351   569A      4.063278   570A      4.066326  
     571A      4.070527   572A      4.081089   573A      4.087049  
     574A      4.103604   575A      4.109329   576A      4.116234  
     577A      4.121227   578A      4.126444   579A      4.129594  
     580A      4.143524   581A      4.160018   582A      4.170805  
     583A      4.181355   584A      4.183479   585A      4.195982  
     586A      4.199960   587A      4.205483   588A      4.225708  
     589A      4.242191   590A      4.262572   591A      4.263211  
     592A      4.282058   593A      4.299222   594A      4.305584  
     595A      4.310774   596A      4.311328   597A      4.312471  
     598A      4.329315   599A      4.347165   600A      4.351864  
     601A      4.355745   602A      4.363083   603A      4.376883  
     604A      4.389513   605A      4.399753   606A      4.415412  
     607A      4.416363   608A      4.417757   609A      4.430682  
     610A      4.435732   611A      4.436853   612A      4.451860  
     613A      4.452321   614A      4.453678   615A      4.477840  
     616A      4.495867   617A      4.500147   618A      4.500317  
     619A      4.510591   620A      4.511684   621A      4.546751  
     622A      4.550178   623A      4.553419   624A      4.564439  
     625A      4.576134   626A      4.589364   627A      4.591416  
     628A      4.610765   629A      4.612055   630A      4.617701  
     631A      4.649669   632A      4.658239   633A      4.660134  
     634A      4.692351   635A      4.695328   636A      4.713198  
     637A      4.718922   638A      4.719723   639A      4.746256  
     640A      4.755539   641A      4.771510   642A      4.774319  
     643A      4.785185   644A      4.789508   645A      4.791993  
     646A      4.798541   647A      4.845089   648A      4.847639  
     649A      4.851725   650A      4.882439   651A      4.888623  
     652A      4.889545   653A      4.899476   654A      4.905470  
     655A      4.918778   656A      4.947092   657A      4.977302  
     658A      4.999523   659A      5.002947   660A      5.025865  
     661A      5.037546   662A      5.046014   663A      5.070483  
     664A      5.074945   665A      5.079308   666A      5.101113  
     667A      5.112541   668A      5.117313   669A      5.135622  
     670A      5.142057   671A      5.162775   672A      5.164539  
     673A      5.190499   674A      5.192166   675A      5.217793  
     676A      5.233525   677A      5.250433   678A      5.261907  
     679A      5.266212   680A      5.268013   681A      5.268943  
     682A      5.273853   683A      5.274829   684A      5.283001  
     685A      5.290607   686A      5.314701   687A      5.324698  
     688A      5.344129   689A      5.358394   690A      5.359393  
     691A      5.408684   692A      5.422850   693A      5.423425  
     694A      5.425875   695A      5.468432   696A      5.482833  
     697A      5.502929   698A      5.507382   699A      5.555176  
     700A      5.580343   701A      5.584767   702A      5.586442  
     703A      5.611846   704A      5.655865   705A      5.661226  
     706A      5.665560   707A      5.674450   708A      5.681999  
     709A      5.709997   710A      5.774801   711A      5.803828  
     712A      5.826078   713A      5.867733   714A      5.869248  
     715A      5.876255   716A      5.882299   717A      5.907861  
     718A      5.939084   719A      5.957573   720A      5.964035  
     721A      5.994550   722A      6.005336   723A      6.016547  
     724A      6.024261   725A      6.087756   726A      6.144404  
     727A      6.149571   728A      6.198442   729A      6.252317  
     730A      6.315962   731A      6.317649   732A      6.371562  
     733A      6.382741   734A      6.411702   735A      6.486578  
     736A      6.501434   737A      6.540078   738A      6.559765  
     739A      6.620701   740A      6.625769   741A      6.709925  
     742A      6.776360   743A      6.803110   744A      6.831649  
     745A      6.854947   746A      6.868061   747A      6.872486  
     748A      6.893322   749A      6.917038   750A      6.990164  
     751A      7.030968   752A      7.051947   753A      7.100171  
     754A      7.108345   755A      7.138042   756A      7.180251  
     757A      7.221574   758A      7.287704   759A      7.339785  
     760A      7.347748   761A      7.368453   762A      7.580236  
     763A      7.615547   764A      7.635011   765A      7.918911  
     766A      7.954101   767A      8.028261   768A      8.155118  
     769A      8.226643   770A     15.726589   771A     16.252826  
     772A     16.520671   773A     17.338812   774A     17.813191  
     775A     18.825916   776A     19.153429   777A     20.185857  
     778A     20.324690   779A     20.821524   780A     20.993609  
     781A     21.281266   782A     21.339236  

    Final Occupation by Irrep:
              A 
    DOCC [    45 ]

  Energy converged.

  @DF-RHF Final Energy:  -550.71212731453500

   => Energetics <=

    Nuclear Repulsion Energy =            687.5837287953911527
    One-Electron Energy =               -2125.1406210806399031
    Two-Electron Energy =                 886.8447649707137543
    DFT Exchange-Correlation Energy =       0.0000000000000000
    Empirical Dispersion Energy =           0.0000000000000000
    PCM Polarization Energy =               0.0000000000000000
    EFP Energy =                            0.0000000000000000
    Total Energy =                       -550.7121273145349960



Properties will be evaluated at   0.000000,   0.000000,   0.000000 Bohr

Properties computed using the SCF density matrix

  Nuclear Dipole Moment: (a.u.)
     X:     2.4662      Y:    -1.3086      Z:    -1.5413

  Electronic Dipole Moment: (a.u.)
     X:     0.0843      Y:    -0.0462      Z:    -0.0506

  Dipole Moment: (a.u.)
     X:     2.5505      Y:    -1.3547      Z:    -1.5919     Total:     3.2976

  Dipole Moment: (Debye)
     X:     6.4826      Y:    -3.4434      Z:    -4.0462     Total:     8.3817


*** tstop() called on gpu-1-16.local at Sun Nov 12 02:32:15 2017
Module time:
	user time   =     994.67 seconds =      16.58 minutes
	system time =      46.50 seconds =       0.78 minutes
	total time  =        400 seconds =       6.67 minutes
Total time:
	user time   =     994.68 seconds =      16.58 minutes
	system time =      46.50 seconds =       0.78 minutes
	total time  =        400 seconds =       6.67 minutes

  //>>>>>>>>>>>>>>>>>>>>>>>>>>>>>>>>>>>//
  //               DFMP2               //
  //<<<<<<<<<<<<<<<<<<<<<<<<<<<<<<<<<<<//

   => Loading Basis Set <=

    Name: (AUG-CC-PVTZ AUX)
    Role: RIFIT
    Keyword: DF_BASIS_MP2
    atoms 1-11  entry C          line   147 file /cbio/jclab/home/chayas/anaconda/envs/py35/share/psi4/basis/aug-cc-pvtz-ri.gbs 
    atoms 12    entry N          line   205 file /cbio/jclab/home/chayas/anaconda/envs/py35/share/psi4/basis/aug-cc-pvtz-ri.gbs 
    atoms 13    entry O          line   263 file /cbio/jclab/home/chayas/anaconda/envs/py35/share/psi4/basis/aug-cc-pvtz-ri.gbs 
    atoms 14-21 entry H          line    29 file /cbio/jclab/home/chayas/anaconda/envs/py35/share/psi4/basis/aug-cc-pvtz-ri.gbs 

	 --------------------------------------------------------
	                          DF-MP2                         
	      2nd-Order Density-Fitted Moller-Plesset Theory     
	              RMP2 Wavefunction,   8 Threads             
	                                                         
	        Rob Parrish, Justin Turney, Andy Simmonett,      
	           Ed Hohenstein, and C. David Sherrill          
	 --------------------------------------------------------

   => Auxiliary Basis Set <=

  Basis Set: (AUG-CC-PVTZ AUX)
    Blend: AUG-CC-PVTZ-RI
    Number of shells: 476
    Number of basis function: 1746
    Number of Cartesian functions: 2208
    Spherical Harmonics?: true
    Max angular momentum: 4

	 --------------------------------------------------------
	                 NBF =   782, NAUX =  1746
	 --------------------------------------------------------
	   CLASS    FOCC     OCC    AOCC    AVIR     VIR    FVIR
	   PAIRS       0      45      45     737     737       0
	 --------------------------------------------------------


         ------------------------------------------------------------
                                     CPHF                           
                                  Rob Parrish                       
         ------------------------------------------------------------

  ==> Geometry <==

    Molecular point group: c1
    Full point group: C1

    Geometry (in Angstrom), charge = -1, multiplicity = 1:

       Center              X                  Y                   Z               Mass       
    ------------   -----------------  -----------------  -----------------  -----------------
           C         -1.279190480264     0.723612679486    -0.568984761656    12.000000000000
           C         -0.286190480264     0.107612679486     1.545015238344    12.000000000000
           C         -2.357190480264     1.296612679486     0.104015238344    12.000000000000
           C         -1.364190480264     0.680612679486     2.219015238344    12.000000000000
           C          0.921809519736    -0.447387320514    -1.936984761656    12.000000000000
           C          1.909809519736    -1.058387320514     0.169015238344    12.000000000000
           C          2.014809519736    -1.028387320514    -2.556984761656    12.000000000000
           C          2.958809519736    -1.612387320514    -0.545984761656    12.000000000000
           C         -0.243190480264     0.128612679486     0.151015238344    12.000000000000
           C          0.875809519736    -0.466387320514    -0.546984761656    12.000000000000
           C         -2.400190480264     1.275612679486     1.498015238344    12.000000000000
           N          3.038809519736    -1.613387320514    -1.895984761656    14.003074004780
           O         -3.391190480264     1.801612679486     2.117015238344    15.994914619560
           H         -1.260190480264     0.748612679486    -1.655984761656     1.007825032070
           H          0.513809519736    -0.352387320514     2.120015238344     1.007825032070
           H         -3.153190480264     1.753612679486    -0.481984761656     1.007825032070
           H         -1.373190480264     0.651612679486     3.307015238344     1.007825032070
           H          0.133809519736     0.006612679486    -2.529984761656     1.007825032070
           H          1.907809519736    -1.092387320514     1.254015238344     1.007825032070
           H          2.098809519736    -1.038387320514    -3.638984761656     1.007825032070
           H          3.789809519736    -2.087387320514    -0.034984761656     1.007825032070

  Nuclear repulsion =  687.583728795391153
  Reference energy  = -550.712127314534996

  ==> Basis Set <==

  Basis Set: AUG-CC-PVTZ
    Blend: AUG-CC-PVTZ
    Number of shells: 254
    Number of basis function: 782
    Number of Cartesian functions: 915
    Spherical Harmonics?: true
    Max angular momentum: 3

  ==> CGRSolver (by Rob Parrish) <==

   Number of roots    =         1
   Preconditioning    =    JACOBI
   Convergence cutoff =     1E-06
   Maximum iterations =       100

  ==> CPHFRHamiltonian (by Rob Parrish) <== 

  ==> DFJK: Density-Fitted J/K Matrices <==

    J tasked:                  Yes
    K tasked:                  Yes
    wK tasked:                  No
    OpenMP threads:              8
    Integrals threads:           8
    Memory (MB):              3576
    Algorithm:                Disk
    Integral Cache:           NONE
    Schwarz Cutoff:          1E-12
    Fitting Condition:       1E-12

   => Auxiliary Basis Set <=

  Basis Set: (AUG-CC-PVTZ AUX)
    Blend: AUG-CC-PVTZ-JKFIT
    Number of shells: 502
    Number of basis function: 1720
    Number of Cartesian functions: 2143
    Spherical Harmonics?: true
    Max angular momentum: 4

  ==> CPHF Iterations <==

  => Iterations <=

             Iter  Converged  Remaining    Residual
  CGR           1          0          1   1.436E-01
  CGR           2          0          1   5.709E-02
  CGR           3          0          1   3.384E-02
  CGR           4          0          1   1.199E-02
  CGR           5          0          1   5.926E-03
  CGR           6          0          1   3.254E-03
  CGR           7          0          1   9.563E-04
  CGR           8          0          1   3.219E-04
  CGR           9          0          1   1.275E-04
  CGR          10          0          1   3.871E-05
  CGR          11          0          1   1.490E-05
  CGR          12          0          1   6.559E-06
  CGR          13          0          1   2.836E-06
  CGR          14          0          1   1.101E-06
  CGR          15          1          0   3.284E-07

    CGRSolver converged.

  ==> DFCorrGrad: Density-Fitted Correlated Gradients <==

    OpenMP threads:              8
    Integrals threads:           8
    Memory (MB):              3576
    Schwarz Cutoff:          0E+00
    Fitting Condition:       1E-12

   => Auxiliary Basis Set <=

  Basis Set: (AUG-CC-PVTZ AUX)
    Blend: AUG-CC-PVTZ-JKFIT
    Number of shells: 502
    Number of basis function: 1720
    Number of Cartesian functions: 2143
    Spherical Harmonics?: true
    Max angular momentum: 4

	-----------------------------------------------------------
	 ==================> DF-MP2 Energies <==================== 
	-----------------------------------------------------------
	 Reference Energy          =    -550.7121273145349960 [Eh]
	 Singles Energy            =      -0.0000000000000001 [Eh]
	 Same-Spin Energy          =      -0.6144804591311906 [Eh]
	 Opposite-Spin Energy      =      -1.8407168050872640 [Eh]
	 Correlation Energy        =      -2.4551972642184547 [Eh]
	 Total Energy              =    -553.1673245787534370 [Eh]
	-----------------------------------------------------------
	 ================> DF-SCS-MP2 Energies <================== 
	-----------------------------------------------------------
	 SCS Same-Spin Scale       =       0.3333333333333333 [-]
	 SCS Opposite-Spin Scale   =       1.2000000000000000 [-]
	 SCS Same-Spin Energy      =      -0.2048268197103969 [Eh]
	 SCS Opposite-Spin Energy  =      -2.2088601661047167 [Eh]
	 SCS Correlation Energy    =      -2.4136869858151138 [Eh]
	 SCS Total Energy          =    -553.1258143003501573 [Eh]
	-----------------------------------------------------------


  -Total Gradient:
     Atom            X                  Y                   Z
    ------   -----------------  -----------------  -----------------
       1        0.019230618859    -0.010312011177    -0.008936713208
       2        0.017406298380    -0.009130946877    -0.013961762922
       3       -0.024326720872     0.012128628371     0.040519486735
       4       -0.042795143911     0.023390990943     0.002277121401
       5       -0.015781814892     0.008214127695     0.009609165670
       6       -0.016413560604     0.008737775386     0.010041962777
       7       -0.006957084695     0.003976367224    -0.004701030227
       8        0.000172136865    -0.000157116473     0.009485277864
       9       -0.015946486203     0.008509415162     0.009964821747
      10        0.025118210742    -0.013437573585    -0.015001391218
      11        0.051001352382    -0.026920148684    -0.032366517356
      12        0.005494026226    -0.002998213937    -0.003857667623
      13       -0.001368852414     0.000659643143     0.000930855727
      14        0.001496582350    -0.000555051984    -0.007060484127
      15        0.005966961486    -0.003362115911     0.002293275735
      16       -0.001723575991     0.001175668090    -0.008836304301
      17        0.005489021276    -0.003168114807     0.006136891615
      18       -0.006660393917     0.003838916760    -0.003425561409
      19       -0.001355894924     0.000445496682     0.008280977859
      20        0.000709613487    -0.000279889297    -0.001365594551
      21        0.001244706362    -0.000755846724    -0.000026810175


*** tstop() called on gpu-1-16.local at Sun Nov 12 03:02:02 2017
Module time:
	user time   =    4796.18 seconds =      79.94 minutes
	system time =     102.31 seconds =       1.71 minutes
	total time  =       2187 seconds =      36.45 minutes
Total time:
	user time   =    4796.19 seconds =      79.94 minutes
	system time =     102.31 seconds =       1.71 minutes
	total time  =       2187 seconds =      36.45 minutes

			-----------------------------------------
			 OPTKING 2.0: for geometry optimizations 
			  - R.A. King,  Bethel University        
			-----------------------------------------

	Internal coordinates to be generated automatically.
	Detected frag 1 with atoms:  1 2 3 4 5 6 7 8 9 10 11 12 13 14 15 16 17 18 19 20
	 21
	---Fragment 1 Bond Connectivity---
	 1 : 3 9 14
	 2 : 4 9 15
	 3 : 1 11 16
	 4 : 2 11 17
	 5 : 7 10 18
	 6 : 8 10 19
	 7 : 5 12 20
	 8 : 6 12 21
	 9 : 1 2 10
	 10 : 5 6 9
	 11 : 3 4 13
	 12 : 7 8
	 13 : 11
	 14 : 1
	 15 : 2
	 16 : 3
	 17 : 4
	 18 : 5
	 19 : 6
	 20 : 7
	 21 : 8

	Assuming in current code that numbering for constraints corresponds to unified fragment.
	Fixed dihedral atom list: 
	     1     9    10     5
	---Fragment 1 Geometry and Gradient---
	 C          -2.4173196795        1.3674297905       -1.0752253733
	 C          -0.5408216295        0.2033584927        2.9196556716
	 C          -4.4544444507        2.4502428647        0.1965603141
	 C          -2.5779464008        1.2861715668        4.1933310852
	 C           1.7419675390       -0.8454395111       -3.6603707231
	 C           3.6090169583       -2.0000621783        0.3193925128
	 C           3.8074382022       -1.9433703943       -4.8320009255
	 C           5.5913396717       -3.0469704559       -1.0317616723
	 C          -0.4595634058        0.2430427414        0.2853774424
	 C           1.6550401369       -0.8813443076       -1.0336513984
	 C          -4.5357026745        2.4105586159        2.8308385434
	 N           5.7425177623       -3.0488601820       -3.5828919517
	 O          -6.4084212721        3.4045545618        4.0005790196
	 H          -2.3814148830        1.4146729438       -3.1293576798
	 H           0.9709592768       -0.6659155285        4.0062481980
	 H          -5.9586664525        3.3138477074       -0.9108191998
	 H          -2.5949539360        1.2313695089        6.2493531177
	 H           0.2528633463        0.0124961532       -4.7809783199
	 H           3.6052375060       -2.0643128668        2.3697453669
	 H           3.9661751974       -1.9622676556       -6.8766846013
	 H           7.1617020881       -3.9445903690       -0.0661116184
	             0.0192306189       -0.0103120112       -0.0089367132
	             0.0174062984       -0.0091309469       -0.0139617629
	            -0.0243267209        0.0121286284        0.0405194867
	            -0.0427951439        0.0233909909        0.0022771214
	            -0.0157818149        0.0082141277        0.0096091657
	            -0.0164135606        0.0087377754        0.0100419628
	            -0.0069570847        0.0039763672       -0.0047010302
	             0.0001721369       -0.0001571165        0.0094852779
	            -0.0159464862        0.0085094152        0.0099648217
	             0.0251182107       -0.0134375736       -0.0150013912
	             0.0510013524       -0.0269201487       -0.0323665174
	             0.0054940262       -0.0029982139       -0.0038576676
	            -0.0013688524        0.0006596431        0.0009308557
	             0.0014965824       -0.0005550520       -0.0070604841
	             0.0059669615       -0.0033621159        0.0022932757
	            -0.0017235760        0.0011756681       -0.0088363043
	             0.0054890213       -0.0031681148        0.0061368916
	            -0.0066603939        0.0038389168       -0.0034255614
	            -0.0013558949        0.0004454967        0.0082809779
	             0.0007096135       -0.0002798893       -0.0013655946
	             0.0012447064       -0.0007558467       -0.0000268102

	Previous optimization step data not found.  Starting new optimization.

	---Fragment 1 Intrafragment Coordinates---
	 - Coordinate -           - BOHR/RAD -       - ANG/DEG -
	 R(1,3)           =         2.634350	       1.394038
	 R(1,9)           =         2.635962	       1.394891
	 R(1,14)          =         2.054989	       1.087453
	 R(2,4)           =         2.635263	       1.394521
	 R(2,9)           =         2.635830	       1.394821
	 R(2,15)          =         2.054702	       1.087302
	 R(3,11)          =         2.635830	       1.394821
	 R(3,16)          =         2.057860	       1.088972
	 R(4,11)          =         2.636938	       1.395407
	 R(4,17)          =         2.056823	       1.088424
	 R(5,7)           =         2.616169	       1.384417
	 R(5,10)          =         2.628403	       1.390891
	 R(5,18)          =         2.051645	       1.085684
	 R(6,8)           =         2.617487	       1.385114
	 R(6,10)          =         2.626839	       1.390063
	 R(6,19)          =         2.051363	       1.085534
	 R(7,12)          =         2.554783	       1.351933
	 R(7,20)          =         2.050923	       1.085302
	 R(8,12)          =         2.555606	       1.352369
	 R(8,21)          =         2.050424	       1.085038
	 R(9,10)          =         2.734160	       1.446855
	 R(11,13)         =         2.421445	       1.281373
	 B(1,3,11)        =         2.094553	     120.009056
	 B(1,3,16)        =         2.069123	     118.552025
	 B(1,9,2)         =         2.093692	     119.959722
	 B(1,9,10)        =         2.095337	     120.053983
	 B(2,4,11)        =         2.093699	     119.960108
	 B(2,4,17)        =         2.069829	     118.592446
	 B(2,9,10)        =         2.094156	     119.986294
	 B(3,1,9)         =         2.094940	     120.031219
	 B(3,1,14)        =         2.079025	     119.119344
	 B(3,11,4)        =         2.094306	     119.994870
	 B(3,11,13)       =         2.094918	     120.029973
	 B(4,2,9)         =         2.095181	     120.045019
	 B(4,2,15)        =         2.079455	     119.143974
	 B(4,11,13)       =         2.093961	     119.975136
	 B(5,7,12)        =         2.165943	     124.099391
	 B(5,7,20)        =         2.107670	     120.760604
	 B(5,10,6)        =         2.089749	     119.733823
	 B(5,10,9)        =         2.096795	     120.137524
	 B(6,8,12)        =         2.165659	     124.083130
	 B(6,8,21)        =         2.108322	     120.797959
	 B(6,10,9)        =         2.096640	     120.128632
	 B(7,5,10)        =         2.057747	     117.900209
	 B(7,5,18)        =         2.098917	     120.259100
	 B(7,12,8)        =         2.029679	     116.292061
	 B(8,6,10)        =         2.057592	     117.891362
	 B(8,6,19)        =         2.099966	     120.319183
	 B(9,1,14)        =         2.109221	     120.849435
	 B(9,2,15)        =         2.108550	     120.811005
	 B(10,5,18)       =         2.126520	     121.840602
	 B(10,6,19)       =         2.125627	     121.789455
	 B(11,3,16)       =         2.119509	     121.438903
	 B(11,4,17)       =         2.119657	     121.447411
	 B(12,7,20)       =         2.009572	     115.139993
	 B(12,8,21)       =         2.009203	     115.118845
	 D(1,3,11,4)      =        -0.000325	      -0.018609
	 D(1,3,11,13)     =        -3.141004	    -179.966279
	 D(1,9,2,4)       =         0.000325	       0.018608
	 D(1,9,2,15)      =        -3.141527	    -179.996257
	 D(1,9,10,5)      =        -0.000375	      -0.021463
	 D(1,9,10,6)      =         3.140306	     179.926301
	 D(2,4,11,3)      =         0.000301	       0.017261
	 D(2,4,11,13)     =         3.140981	     179.964960
	 D(2,9,1,3)       =        -0.000348	      -0.019945
	 D(2,9,1,14)      =         3.141027	     179.967567
	 D(2,9,10,5)      =         3.141435	     179.990976
	 D(2,9,10,6)      =        -0.001069	      -0.061260
	 D(3,1,9,10)      =         3.141462	     179.992491
	 D(3,11,4,17)     =         3.140700	     179.948827
	 D(4,2,9,10)      =        -3.141485	    -179.993820
	 D(4,11,3,16)     =         3.140472	     179.935781
	 D(5,7,12,8)      =        -0.000873	      -0.050018
	 D(5,10,6,8)      =         0.000450	       0.025763
	 D(5,10,6,19)     =        -3.141113	    -179.972534
	 D(6,8,12,7)      =         0.000673	       0.038580
	 D(6,10,5,7)      =        -0.000628	      -0.035995
	 D(6,10,5,18)     =        -3.140326	    -179.927444
	 D(7,5,10,9)      =         3.140056	     179.911976
	 D(7,12,8,21)     =         3.140639	     179.945388
	 D(8,6,10,9)      =        -3.140235	    -179.922212
	 D(8,12,7,20)     =         3.140033	     179.910627
	 D(9,1,3,11)      =         0.000348	       0.019955
	 D(9,1,3,16)      =        -3.140471	    -179.935743
	 D(9,2,4,11)      =        -0.000301	      -0.017270
	 D(9,2,4,17)      =        -3.140734	    -179.950778
	 D(9,10,5,18)     =         0.000358	       0.020527
	 D(9,10,6,19)     =         0.001387	       0.079490
	 D(10,5,7,12)     =         0.000872	       0.049955
	 D(10,5,7,20)     =        -3.139997	    -179.908585
	 D(10,6,8,12)     =        -0.000486	      -0.027868
	 D(10,6,8,21)     =        -3.140365	    -179.929637
	 D(10,9,1,14)     =        -0.000349	      -0.019997
	 D(10,9,2,15)     =        -0.000152	      -0.008685
	 D(11,3,1,14)     =        -3.141030	    -179.967773
	 D(11,4,2,15)     =         3.141546	     179.997347
	 D(12,7,5,18)     =         3.140601	     179.943193
	 D(12,8,6,19)     =         3.141077	     179.970456
	 D(13,11,3,16)    =        -0.000207	      -0.011889
	 D(13,11,4,17)    =        -0.001806	      -0.103475
	 D(14,1,3,16)     =         0.001336	       0.076530
	 D(15,2,4,17)     =         0.001114	       0.063839
	 D(18,5,7,20)     =        -0.000268	      -0.015347
	 D(19,6,8,21)     =         0.001199	       0.068687

	Current energy   :      -553.1673245788

	Generating empirical Hessian (Schlegel '84) for each fragment.
	Adding user-defined constraint: Fragment 1; Coordinate 61:
		Value =    -0.000375; Fixed value    =     0.000017
		Force =     0.000196; Force constant =     0.500000
	Removing off-diagonal coupling between coordinate 61 and others.
	Taking RFO optimization step.
	Going to follow RFO solution 1.
	Using RFO vector 1.

	Determining step-restricting scale parameter for RS-RFO.
	Maximum step size allowed    0.10000

	 Iter      |step|        alpha        rfo_root  
	------------------------------------------------
	    0     0.27646       1.00000           1
	    1     0.19103       9.42160           1
	    2     0.13926      26.32069           1
	    3     0.11208      47.77659           1
	    4     0.10177      61.28677           1
	    5     0.10005      63.99506           1
	    6     0.10000      64.07303           1
	------------------------------------------------
	Norm of target step-size    0.10000
	Projected energy change by RFO approximation:        -0.0082662221

	Back-transformation to cartesian coordinates...
	Successfully converged to displaced geometry.

	--- Internal Coordinate Step in ANG or DEG, aJ/ANG or AJ/DEG ---
	 ---------------------------------------------------------------------------
	   Coordinate                Previous        Force       Change         New 
	   ----------                --------       ------       ------       ------
	    1 R(1,3)          =      1.394038    -0.071740    -0.004597     1.389441
	    2 R(1,9)          =      1.394891     0.088706     0.005543     1.400434
	    3 R(1,14)         =      1.087453    -0.058255    -0.004222     1.083232
	    4 R(2,4)          =      1.394521    -0.074733    -0.004801     1.389720
	    5 R(2,9)          =      1.394821     0.090066     0.005625     1.400446
	    6 R(2,15)         =      1.087302    -0.057881    -0.004194     1.083108
	    7 R(3,11)         =      1.394821     0.202336     0.013153     1.407974
	    8 R(3,16)         =      1.088972    -0.053620    -0.003893     1.085079
	    9 R(4,11)         =      1.395407     0.199051     0.012951     1.408358
	   10 R(4,17)         =      1.088424    -0.050862    -0.003691     1.084733
	   11 R(5,7)          =      1.384417    -0.002782    -0.000183     1.384233
	   12 R(5,10)         =      1.390891     0.089122     0.005945     1.396835
	   13 R(5,18)         =      1.085684    -0.068468    -0.004950     1.080734
	   14 R(6,8)          =      1.385114    -0.007123    -0.000465     1.384650
	   15 R(6,10)         =      1.390063     0.095225     0.006321     1.396385
	   16 R(6,19)         =      1.085534    -0.068097    -0.004922     1.080612
	   17 R(7,12)         =      1.351933    -0.110723    -0.006812     1.345121
	   18 R(7,20)         =      1.085302    -0.011690    -0.000845     1.084457
	   19 R(8,12)         =      1.352369    -0.114063    -0.007020     1.345349
	   20 R(8,21)         =      1.085038    -0.010476    -0.000757     1.084281
	   21 R(9,10)         =      1.446855     0.153569     0.010700     1.457555
	   22 R(11,13)        =      1.281373    -0.014658    -0.000746     1.280627
	   23 B(1,3,11)       =    120.009056     0.000782     0.781653   120.790709
	   24 B(1,3,16)       =    118.552025     0.000104     0.145950   118.697975
	   25 B(1,9,2)        =    119.959722    -0.001390    -1.396916   118.562806
	   26 B(1,9,10)       =    120.053983     0.000670     0.674028   120.728011
	   27 B(2,4,11)       =    119.960108     0.000798     0.795753   120.755861
	   28 B(2,4,17)       =    118.592446     0.000094     0.136214   118.728660
	   29 B(2,9,10)       =    119.986294     0.000721     0.722888   120.709182
	   30 B(3,1,9)        =    120.031219     0.000889     0.842969   120.874188
	   31 B(3,1,14)       =    119.119344    -0.000565    -0.552636   118.566709
	   32 B(3,11,4)       =    119.994870    -0.001968    -1.864585   118.130286
	   33 B(3,11,13)      =    120.029973     0.000976     0.924920   120.954893
	   34 B(4,2,9)        =    120.045019     0.000889     0.841126   120.886145
	   35 B(4,2,15)       =    119.143974    -0.000575    -0.562504   118.581470
	   36 B(4,11,13)      =    119.975136     0.000992     0.939668   120.914804
	   37 B(5,7,12)       =    124.099391     0.000334     0.287453   124.386844
	   38 B(5,7,20)       =    120.760604    -0.000218    -0.199147   120.561457
	   39 B(5,10,6)       =    119.733823    -0.002189    -2.037376   117.696448
	   40 B(5,10,9)       =    120.137524     0.001075     0.999838   121.137362
	   41 B(6,8,12)       =    124.083130     0.000340     0.291797   124.374927
	   42 B(6,8,21)       =    120.797959    -0.000225    -0.205677   120.592282
	   43 B(6,10,9)       =    120.128632     0.001114     1.037538   121.166170
	   44 B(7,5,10)       =    117.900209     0.000932     0.957460   118.857669
	   45 B(7,5,18)       =    120.259100    -0.000570    -0.591048   119.668051
	   46 B(7,12,8)       =    116.292061    -0.000356    -0.462443   115.829618
	   47 B(8,6,10)       =    117.891362     0.000939     0.963111   118.854473
	   48 B(8,6,19)       =    120.319183    -0.000588    -0.609553   119.709630
	   49 B(9,1,14)       =    120.849435    -0.000323    -0.290333   120.559102
	   50 B(9,2,15)       =    120.811005    -0.000313    -0.278622   120.532383
	   51 B(10,5,18)      =    121.840602    -0.000362    -0.366402   121.474200
	   52 B(10,6,19)      =    121.789455    -0.000352    -0.353558   121.435897
	   53 B(11,3,16)      =    121.438903    -0.000887    -0.927602   120.511302
	   54 B(11,4,17)      =    121.447411    -0.000892    -0.931964   120.515447
	   55 B(12,7,20)      =    115.139993    -0.000116    -0.088303   115.051689
	   56 B(12,8,21)      =    115.118845    -0.000115    -0.086111   115.032734
	   57 D(1,3,11,4)     =     -0.018609     0.000000     0.002139    -0.016469
	   58 D(1,3,11,13)    =   -179.966279    -0.000000    -0.002262  -179.968540
	   59 D(1,9,2,4)      =      0.018608    -0.000000    -0.002178     0.016430
	   60 D(1,9,2,15)     =   -179.996257    -0.000000    -0.001851  -179.998108
	   61 D(1,9,10,5)     =     -0.021463     0.000001     0.006086    -0.015377
	   62 D(1,9,10,6)     =    179.926301     0.000001     0.005885   179.932186
	   63 D(2,4,11,3)     =      0.017261    -0.000000    -0.001824     0.015438
	   64 D(2,4,11,13)    =    179.964960     0.000000     0.002569   179.967529
	   65 D(2,9,1,3)      =     -0.019945     0.000000     0.002487    -0.017458
	   66 D(2,9,1,14)     =    179.967567     0.000000     0.002346   179.969913
	   67 D(2,9,10,5)     =    179.990976     0.000001     0.003282   179.994259
	   68 D(2,9,10,6)     =     -0.061260     0.000001     0.003081    -0.058178
	   69 D(3,1,9,10)     =    179.992491    -0.000000    -0.000517   179.991974
	   70 D(3,11,4,17)    =    179.948827     0.000000     0.001245   179.950072
	   71 D(4,2,9,10)     =   -179.993820     0.000000     0.000820  -179.993000
	   72 D(4,11,3,16)    =    179.935781     0.000001     0.003681   179.939462
	   73 D(5,7,12,8)     =     -0.050018     0.000001     0.003017    -0.047000
	   74 D(5,10,6,8)     =      0.025763    -0.000000    -0.002451     0.023312
	   75 D(5,10,6,19)    =   -179.972534    -0.000001    -0.002630  -179.975164
	   76 D(6,8,12,7)     =      0.038580    -0.000001    -0.003141     0.035439
	   77 D(6,10,5,7)     =     -0.035995     0.000000     0.002298    -0.033697
	   78 D(6,10,5,18)    =   -179.927444    -0.000000    -0.003318  -179.930763
	   79 D(7,5,10,9)     =    179.911976     0.000001     0.003652   179.915629
	   80 D(7,12,8,21)    =    179.945388     0.000001     0.003177   179.948566
	   81 D(8,6,10,9)     =   -179.922212    -0.000001    -0.003785  -179.925998
	   82 D(8,12,7,20)    =    179.910627     0.000001     0.006031   179.916658
	   83 D(9,1,3,11)     =      0.019955    -0.000000    -0.002060     0.017894
	   84 D(9,1,3,16)     =   -179.935743    -0.000001    -0.003079  -179.938822
	   85 D(9,2,4,11)     =     -0.017270     0.000000     0.001451    -0.015819
	   86 D(9,2,4,17)     =   -179.950778    -0.000000    -0.000824  -179.951602
	   87 D(9,10,5,18)    =      0.020527    -0.000000    -0.001964     0.018563
	   88 D(9,10,6,19)    =      0.079490    -0.000001    -0.003964     0.075527
	   89 D(10,5,7,12)    =      0.049955    -0.000000    -0.001996     0.047959
	   90 D(10,5,7,20)    =   -179.908585    -0.000001    -0.005222  -179.913807
	   91 D(10,6,8,12)    =     -0.027868     0.000000     0.002485    -0.025382
	   92 D(10,6,8,21)    =   -179.929637    -0.000001    -0.004305  -179.933942
	   93 D(10,9,1,14)    =     -0.019997    -0.000000    -0.000657    -0.020654
	   94 D(10,9,2,15)    =     -0.008685     0.000000     0.001146    -0.007538
	   95 D(11,3,1,14)    =   -179.967773    -0.000000    -0.001951  -179.969724
	   96 D(11,4,2,15)    =    179.997347     0.000000     0.001093   179.998440
	   97 D(12,7,5,18)    =    179.943193     0.000001     0.003731   179.946924
	   98 D(12,8,6,19)    =    179.970456     0.000000     0.002665   179.973120
	   99 D(13,11,3,16)   =     -0.011889    -0.000000    -0.000721    -0.012609
	  100 D(13,11,4,17)   =     -0.103475     0.000001     0.005637    -0.097837
	  101 D(14,1,3,16)    =      0.076530    -0.000000    -0.002970     0.073559
	  102 D(15,2,4,17)    =      0.063839    -0.000000    -0.001181     0.062658
	  103 D(18,5,7,20)    =     -0.015347     0.000000     0.000505    -0.014842
	  104 D(19,6,8,21)    =      0.068687    -0.000001    -0.004126     0.064561
	 ---------------------------------------------------------------------------
	Successfully symmetrized geometry.
	 Forces used to impose fixed constraints are not included.
	  Forces zeroed: 61 

  ==> Convergence Check <==

  Measures of convergence in internal coordinates in au.
  Criteria marked as inactive (o), active & met (*), and active & unmet ( ).
  --------------------------------------------------------------------------------------------- ~
   Step     Total Energy     Delta E     MAX Force     RMS Force      MAX Disp      RMS Disp    ~
  --------------------------------------------------------------------------------------------- ~
    Convergence Criteria    1.00e-06 *    3.00e-04 *             o    1.20e-03 *             o  ~
  --------------------------------------------------------------------------------------------- ~
      1    -553.16732458   -5.53e+02      2.88e-02      8.25e-03 o    3.56e-02      9.81e-03 o  ~
  ---------------------------------------------------------------------------------------------

	Writing optimization data to binary file.
	Structure for next step:
	Cartesian Geometry (in Angstrom)
	    C    -1.2956993802   0.7322014094  -0.5540880158
	    C    -0.3064496071   0.1185593035   1.5536852877
	    C    -2.3717861107   1.3043025877   0.1132075363
	    C    -1.3795214892   0.6887964185   2.2279761297
	    C     0.9467553097  -0.4607867243  -1.9439382128
	    C     1.9295659460  -1.0686336796   0.1486193112
	    C     2.0399148310  -1.0419973027  -2.5630493108
	    C     2.9773296844  -1.6219983589  -0.5677834781
	    C    -0.2479229721   0.1311567074   0.1545190620
	    C     0.8793085165  -0.4681981220  -0.5487519051
	    C    -2.4355207398   1.2943446072   1.5197031485
	    N     3.0612975057  -1.6253604576  -1.9105049597
	    O    -3.4261208189   1.8201812273   2.1379373923
	    H    -1.2832231689   0.7606225076  -1.6368750796
	    H     0.4865136295  -0.3376766119   2.1334966702
	    H    -3.1647770362   1.7595827057  -0.4709858125
	    H    -1.3887128300   0.6600045285   3.3122880916
	    H     0.1682073308  -0.0117592880  -2.5441235304
	    H     1.9389598162  -1.1087348378   1.2284462969
	    H     2.1211477625  -1.0505677453  -3.6444256740
	    H     3.8067337352  -2.0961726052  -0.0550329425
			--------------------------
			 OPTKING Finished Execution 
			--------------------------

    Structure for next step:
    Molecular point group: c1
    Full point group: C1

    Geometry (in Angstrom), charge = -1, multiplicity = 1:

    C           -1.293374395231     0.730962362624    -0.555464243730
    C           -0.304124622057     0.117320256729     1.552309059808
    C           -2.369461125690     1.303063540906     0.111831308400
    C           -1.377196504159     0.687557371778     2.226599901814
    C            0.949080294723    -0.462025771101    -1.945314440775
    C            1.931890930958    -1.069872726400     0.147243083279
    C            2.042239816007    -1.043236349512    -2.564425538775
    C            2.979654669373    -1.623237405688    -0.569159706063
    C           -0.245597987071     0.129917660590     0.153142834080
    C            0.881633501470    -0.469437168812    -0.550128132993
    C           -2.433195754768     1.293105560435     1.518326920540
    N            3.063622490716    -1.626599504343    -1.911881187576
    O           -3.423795833901     1.818942180551     2.136561164420
    H           -1.280898183869     0.759383460833    -1.638251307489
    H            0.488838614515    -0.338915658708     2.132120442241
    H           -3.162452051205     1.758343658894    -0.472362040423
    H           -1.386387844995     0.658765481718     3.310911863673
    H            0.170532315761    -0.012998334758    -2.545499758328
    H            1.941284801162    -1.109973884520     1.227070068966
    H            2.123472747528    -1.051806792109    -3.645801901915
    H            3.809058720248    -2.097411651955    -0.056409170383

gradient() will perform analytic gradient computation.

*** tstart() called on gpu-1-16.local
*** at Sun Nov 12 03:02:03 2017

    SCF Algorithm Type (re)set to DF.

*** tstart() called on gpu-1-16.local
*** at Sun Nov 12 03:02:03 2017

   => Loading Basis Set <=

    Name: AUG-CC-PVTZ
    Role: ORBITAL
    Keyword: BASIS
    atoms 1-11  entry C          line   221 file /cbio/jclab/home/chayas/anaconda/envs/py35/share/psi4/basis/aug-cc-pvtz.gbs 
    atoms 12    entry N          line   267 file /cbio/jclab/home/chayas/anaconda/envs/py35/share/psi4/basis/aug-cc-pvtz.gbs 
    atoms 13    entry O          line   313 file /cbio/jclab/home/chayas/anaconda/envs/py35/share/psi4/basis/aug-cc-pvtz.gbs 
    atoms 14-21 entry H          line    34 file /cbio/jclab/home/chayas/anaconda/envs/py35/share/psi4/basis/aug-cc-pvtz.gbs 


         ---------------------------------------------------------
                                   SCF
            by Justin Turney, Rob Parrish, and Andy Simmonett
                              RHF Reference
                        8 Threads,   4768 MiB Core
         ---------------------------------------------------------

  ==> Geometry <==

    Molecular point group: c1
    Full point group: C1

    Geometry (in Angstrom), charge = -1, multiplicity = 1:

       Center              X                  Y                   Z               Mass       
    ------------   -----------------  -----------------  -----------------  -----------------
           C         -1.293374395231     0.730962362624    -0.555464243730    12.000000000000
           C         -0.304124622057     0.117320256729     1.552309059808    12.000000000000
           C         -2.369461125690     1.303063540906     0.111831308400    12.000000000000
           C         -1.377196504159     0.687557371778     2.226599901814    12.000000000000
           C          0.949080294723    -0.462025771101    -1.945314440775    12.000000000000
           C          1.931890930958    -1.069872726400     0.147243083279    12.000000000000
           C          2.042239816007    -1.043236349512    -2.564425538775    12.000000000000
           C          2.979654669373    -1.623237405688    -0.569159706063    12.000000000000
           C         -0.245597987071     0.129917660590     0.153142834080    12.000000000000
           C          0.881633501470    -0.469437168812    -0.550128132993    12.000000000000
           C         -2.433195754768     1.293105560435     1.518326920540    12.000000000000
           N          3.063622490716    -1.626599504343    -1.911881187576    14.003074004780
           O         -3.423795833901     1.818942180551     2.136561164420    15.994914619560
           H         -1.280898183869     0.759383460833    -1.638251307489     1.007825032070
           H          0.488838614515    -0.338915658708     2.132120442241     1.007825032070
           H         -3.162452051205     1.758343658894    -0.472362040423     1.007825032070
           H         -1.386387844995     0.658765481718     3.310911863673     1.007825032070
           H          0.170532315761    -0.012998334758    -2.545499758328     1.007825032070
           H          1.941284801162    -1.109973884520     1.227070068966     1.007825032070
           H          2.123472747528    -1.051806792109    -3.645801901915     1.007825032070
           H          3.809058720248    -2.097411651955    -0.056409170383     1.007825032070

  Running in c1 symmetry.

  Rotational constants: A =      0.09809  B =      0.01379  C =      0.01209 [cm^-1]
  Rotational constants: A =   2940.67599  B =    413.35909  C =    362.41579 [MHz]
  Nuclear repulsion =  684.622018841490785

  Charge       = -1
  Multiplicity = 1
  Electrons    = 90
  Nalpha       = 45
  Nbeta        = 45

  ==> Algorithm <==

  SCF Algorithm Type is DF.
  DIIS enabled.
  MOM disabled.
  Fractional occupation disabled.
  Guess Type is READ.
  Energy threshold   = 1.00e-10
  Density threshold  = 1.00e-10
  Integral threshold = 0.00e+00

  ==> Primary Basis <==

  Basis Set: AUG-CC-PVTZ
    Blend: AUG-CC-PVTZ
    Number of shells: 254
    Number of basis function: 782
    Number of Cartesian functions: 915
    Spherical Harmonics?: true
    Max angular momentum: 3

   => Loading Basis Set <=

    Name: (AUG-CC-PVTZ AUX)
    Role: JKFIT
    Keyword: DF_BASIS_SCF
    atoms 1-11  entry C          line   161 file /cbio/jclab/home/chayas/anaconda/envs/py35/share/psi4/basis/aug-cc-pvtz-jkfit.gbs 
    atoms 12    entry N          line   223 file /cbio/jclab/home/chayas/anaconda/envs/py35/share/psi4/basis/aug-cc-pvtz-jkfit.gbs 
    atoms 13    entry O          line   285 file /cbio/jclab/home/chayas/anaconda/envs/py35/share/psi4/basis/aug-cc-pvtz-jkfit.gbs 
    atoms 14-21 entry H          line    69 file /cbio/jclab/home/chayas/anaconda/envs/py35/share/psi4/basis/aug-cc-pvtz-jkfit.gbs 

  Reading orbitals from file 180, no projection.

  ==> Pre-Iterations <==

   -------------------------------------------------------
    Irrep   Nso     Nmo     Nalpha   Nbeta   Ndocc  Nsocc
   -------------------------------------------------------
     A        782     782       0       0       0       0
   -------------------------------------------------------
    Total     782     782      45      45      45       0
   -------------------------------------------------------

  ==> Integral Setup <==

  ==> DFJK: Density-Fitted J/K Matrices <==

    J tasked:                  Yes
    K tasked:                  Yes
    wK tasked:                  No
    OpenMP threads:              8
    Integrals threads:           8
    Memory (MB):              3576
    Algorithm:                Disk
    Integral Cache:           NONE
    Schwarz Cutoff:          1E-12
    Fitting Condition:       1E-12

   => Auxiliary Basis Set <=

  Basis Set: (AUG-CC-PVTZ AUX)
    Blend: AUG-CC-PVTZ-JKFIT
    Number of shells: 502
    Number of basis function: 1720
    Number of Cartesian functions: 2143
    Spherical Harmonics?: true
    Max angular momentum: 4

  Minimum eigenvalue in the overlap matrix is 3.2106822712E-07.
  Using Symmetric Orthogonalization.

  SCF Guess: Orbitals guess was supplied from a previous computation.

  ==> Iterations <==

                           Total Energy        Delta E     RMS |[F,P]|

   @DF-RHF iter   0:  -550.85476789046982   -5.50855e+02   7.72117e-04 
   @DF-RHF iter   1:  -550.71939204790476    1.35376e-01   1.67108e-04 
   @DF-RHF iter   2:  -550.72044500154152   -1.05295e-03   1.16466e-04 DIIS
   @DF-RHF iter   3:  -550.72125438989826   -8.09388e-04   1.95289e-05 DIIS
   @DF-RHF iter   4:  -550.72127082816382   -1.64383e-05   6.01627e-06 DIIS
   @DF-RHF iter   5:  -550.72127346459058   -2.63643e-06   1.56935e-06 DIIS
   @DF-RHF iter   6:  -550.72127390292167   -4.38331e-07   1.03973e-06 DIIS
   @DF-RHF iter   7:  -550.72127405020217   -1.47281e-07   4.85605e-07 DIIS
   @DF-RHF iter   8:  -550.72127410398252   -5.37804e-08   1.82510e-07 DIIS
   @DF-RHF iter   9:  -550.72127411330439   -9.32187e-09   7.64632e-08 DIIS
   @DF-RHF iter  10:  -550.72127411459928   -1.29489e-09   3.27450e-08 DIIS
   @DF-RHF iter  11:  -550.72127411488680   -2.87514e-10   1.16377e-08 DIIS
   @DF-RHF iter  12:  -550.72127411494307   -5.62750e-11   8.62424e-09 DIIS
   @DF-RHF iter  13:  -550.72127411494557   -2.50111e-12   2.56873e-09 DIIS
   @DF-RHF iter  14:  -550.72127411496217   -1.65983e-11   1.26293e-09 DIIS
   @DF-RHF iter  15:  -550.72127411494421    1.79625e-11   3.31159e-10 DIIS
   @DF-RHF iter  16:  -550.72127411494398    2.27374e-13   1.28834e-10 DIIS
   @DF-RHF iter  17:  -550.72127411494853   -4.54747e-12   5.50561e-11 DIIS

  ==> Post-Iterations <==

    Orbital Energies (a.u.)
    -----------------------

    Doubly Occupied:                                                      

       1A    -20.309435     2A    -15.442038     3A    -11.163213  
       4A    -11.163092     5A    -11.146471     6A    -11.126471  
       7A    -11.114149     8A    -11.114119     9A    -11.103559  
      10A    -11.103542    11A    -11.079788    12A    -11.065434  
      13A    -11.065397    14A     -1.137774    15A     -1.136644  
      16A     -1.017677    17A     -0.957465    18A     -0.919911  
      19A     -0.871449    20A     -0.838630    21A     -0.746502  
      22A     -0.732991    23A     -0.678735    24A     -0.651031  
      25A     -0.599877    26A     -0.548142    27A     -0.545044  
      28A     -0.503192    29A     -0.490106    30A     -0.482527  
      31A     -0.479228    32A     -0.441852    33A     -0.433747  
      34A     -0.413821    35A     -0.405315    36A     -0.383160  
      37A     -0.360095    38A     -0.352574    39A     -0.319106  
      40A     -0.304725    41A     -0.244303    42A     -0.240295  
      43A     -0.223087    44A     -0.202243    45A     -0.107971  

    Virtual:                                                              

      46A      0.098884    47A      0.099811    48A      0.115735  
      49A      0.115828    50A      0.127988    51A      0.134391  
      52A      0.148873    53A      0.155155    54A      0.158414  
      55A      0.166508    56A      0.177802    57A      0.183429  
      58A      0.184952    59A      0.186986    60A      0.191678  
      61A      0.200019    62A      0.203886    63A      0.207098  
      64A      0.208759    65A      0.212887    66A      0.213658  
      67A      0.219511    68A      0.223975    69A      0.224158  
      70A      0.226099    71A      0.234411    72A      0.236009  
      73A      0.239804    74A      0.245715    75A      0.246189  
      76A      0.254727    77A      0.261373    78A      0.261708  
      79A      0.263535    80A      0.271939    81A      0.272269  
      82A      0.273400    83A      0.279020    84A      0.294511  
      85A      0.299188    86A      0.299860    87A      0.306535  
      88A      0.311556    89A      0.313519    90A      0.321099  
      91A      0.326390    92A      0.332468    93A      0.337693  
      94A      0.337855    95A      0.342616    96A      0.349721  
      97A      0.361388    98A      0.363245    99A      0.370488  
     100A      0.375641   101A      0.379703   102A      0.381014  
     103A      0.387423   104A      0.387903   105A      0.389096  
     106A      0.391239   107A      0.399999   108A      0.400397  
     109A      0.407682   110A      0.410741   111A      0.422400  
     112A      0.424443   113A      0.430554   114A      0.431020  
     115A      0.434895   116A      0.439965   117A      0.451016  
     118A      0.456479   119A      0.459090   120A      0.459109  
     121A      0.474362   122A      0.474945   123A      0.483893  
     124A      0.486792   125A      0.491386   126A      0.491763  
     127A      0.510739   128A      0.515611   129A      0.523492  
     130A      0.525691   131A      0.525990   132A      0.533688  
     133A      0.534839   134A      0.536460   135A      0.541982  
     136A      0.550774   137A      0.553928   138A      0.558628  
     139A      0.561898   140A      0.564280   141A      0.567525  
     142A      0.572198   143A      0.572451   144A      0.574837  
     145A      0.577429   146A      0.584019   147A      0.586927  
     148A      0.595150   149A      0.600116   150A      0.605745  
     151A      0.607358   152A      0.610641   153A      0.612066  
     154A      0.613296   155A      0.613376   156A      0.620198  
     157A      0.623340   158A      0.632684   159A      0.636230  
     160A      0.645826   161A      0.650404   162A      0.651900  
     163A      0.655297   164A      0.658547   165A      0.658874  
     166A      0.664348   167A      0.668093   168A      0.671111  
     169A      0.681424   170A      0.682619   171A      0.691916  
     172A      0.694871   173A      0.703768   174A      0.706853  
     175A      0.708617   176A      0.711425   177A      0.724813  
     178A      0.729607   179A      0.732944   180A      0.750284  
     181A      0.754015   182A      0.766131   183A      0.771178  
     184A      0.771912   185A      0.786690   186A      0.788918  
     187A      0.789751   188A      0.791461   189A      0.801873  
     190A      0.804331   191A      0.810726   192A      0.811034  
     193A      0.817839   194A      0.823481   195A      0.827420  
     196A      0.841495   197A      0.848007   198A      0.853483  
     199A      0.857418   200A      0.865038   201A      0.865167  
     202A      0.874222   203A      0.880848   204A      0.883615  
     205A      0.889995   206A      0.907375   207A      0.907601  
     208A      0.911503   209A      0.911810   210A      0.926319  
     211A      0.939994   212A      0.943845   213A      0.945609  
     214A      0.950898   215A      0.959194   216A      0.967098  
     217A      0.969652   218A      0.975797   219A      0.991181  
     220A      0.995712   221A      0.997139   222A      1.002472  
     223A      1.005306   224A      1.006590   225A      1.012063  
     226A      1.014649   227A      1.019480   228A      1.020693  
     229A      1.028966   230A      1.030061   231A      1.042302  
     232A      1.047065   233A      1.048347   234A      1.053915  
     235A      1.064329   236A      1.064865   237A      1.065451  
     238A      1.068239   239A      1.072280   240A      1.075870  
     241A      1.084447   242A      1.088465   243A      1.089010  
     244A      1.092008   245A      1.093026   246A      1.109122  
     247A      1.110721   248A      1.114581   249A      1.119646  
     250A      1.119846   251A      1.124482   252A      1.127804  
     253A      1.127983   254A      1.129071   255A      1.137206  
     256A      1.139275   257A      1.139315   258A      1.150506  
     259A      1.163232   260A      1.164481   261A      1.164959  
     262A      1.174614   263A      1.178261   264A      1.183105  
     265A      1.185355   266A      1.198096   267A      1.201649  
     268A      1.206444   269A      1.210714   270A      1.218703  
     271A      1.226665   272A      1.230846   273A      1.234513  
     274A      1.237160   275A      1.241807   276A      1.255164  
     277A      1.255663   278A      1.259719   279A      1.276731  
     280A      1.285042   281A      1.289232   282A      1.290301  
     283A      1.292250   284A      1.299319   285A      1.302075  
     286A      1.305604   287A      1.309916   288A      1.312266  
     289A      1.313840   290A      1.315167   291A      1.331922  
     292A      1.344957   293A      1.347682   294A      1.349397  
     295A      1.354547   296A      1.359915   297A      1.361148  
     298A      1.369278   299A      1.370102   300A      1.374367  
     301A      1.387317   302A      1.399416   303A      1.400076  
     304A      1.401337   305A      1.403301   306A      1.419904  
     307A      1.425707   308A      1.426755   309A      1.429122  
     310A      1.438142   311A      1.439927   312A      1.450336  
     313A      1.451865   314A      1.465304   315A      1.472167  
     316A      1.480352   317A      1.490312   318A      1.497108  
     319A      1.501580   320A      1.508101   321A      1.529322  
     322A      1.530974   323A      1.539194   324A      1.549087  
     325A      1.550662   326A      1.551423   327A      1.567617  
     328A      1.581335   329A      1.587160   330A      1.595269  
     331A      1.610121   332A      1.617143   333A      1.617785  
     334A      1.623602   335A      1.624140   336A      1.645466  
     337A      1.661232   338A      1.663030   339A      1.664238  
     340A      1.680907   341A      1.682614   342A      1.709256  
     343A      1.712023   344A      1.716048   345A      1.724417  
     346A      1.741553   347A      1.743334   348A      1.773022  
     349A      1.773472   350A      1.782548   351A      1.788361  
     352A      1.789886   353A      1.789890   354A      1.794788  
     355A      1.797148   356A      1.814271   357A      1.817485  
     358A      1.827566   359A      1.833242   360A      1.840703  
     361A      1.843232   362A      1.855521   363A      1.855916  
     364A      1.856707   365A      1.860615   366A      1.877723  
     367A      1.895336   368A      1.900836   369A      1.910715  
     370A      1.919879   371A      1.929249   372A      1.946020  
     373A      1.951837   374A      1.956166   375A      1.959209  
     376A      1.971508   377A      1.975218   378A      1.991037  
     379A      1.998589   380A      2.005922   381A      2.010328  
     382A      2.033857   383A      2.038983   384A      2.049117  
     385A      2.061992   386A      2.065537   387A      2.076339  
     388A      2.089739   389A      2.103013   390A      2.106912  
     391A      2.111773   392A      2.122068   393A      2.125267  
     394A      2.128872   395A      2.134063   396A      2.136698  
     397A      2.143831   398A      2.149612   399A      2.168587  
     400A      2.168973   401A      2.173953   402A      2.175767  
     403A      2.183133   404A      2.185007   405A      2.187930  
     406A      2.191406   407A      2.207085   408A      2.214750  
     409A      2.218458   410A      2.226211   411A      2.251604  
[...]
	 R(3,11)          =         2.713441	       1.435891
	 R(3,16)          =         2.045078	       1.082208
	 R(4,11)          =         2.713450	       1.435896
	 R(4,17)          =         2.045082	       1.082211
	 R(5,7)           =         2.611628	       1.382014
	 R(5,10)          =         2.655420	       1.405188
	 R(5,18)          =         2.037646	       1.078276
	 R(6,8)           =         2.611619	       1.382009
	 R(6,10)          =         2.655459	       1.405208
	 R(6,19)          =         2.037616	       1.078260
	 R(7,12)          =         2.531009	       1.339352
	 R(7,20)          =         2.047316	       1.083393
	 R(8,12)          =         2.531018	       1.339357
	 R(8,21)          =         2.047318	       1.083394
	 R(9,10)          =         2.723903	       1.441427
	 R(11,13)         =         2.384005	       1.261561
	 B(1,3,11)        =         2.147114	     123.020554
	 B(1,3,16)        =         2.093838	     119.968087
	 B(1,9,2)         =         2.019438	     115.705299
	 B(1,9,10)        =         2.131773	     122.141611
	 B(2,4,11)        =         2.147114	     123.020550
	 B(2,4,17)        =         2.093855	     119.969073
	 B(2,9,10)        =         2.131974	     122.153091
	 B(3,1,9)         =         2.137952	     122.495629
	 B(3,1,14)        =         2.055215	     117.755173
	 B(3,11,4)        =         1.976807	     113.262714
	 B(3,11,13)       =         2.153192	     123.368816
	 B(4,2,9)         =         2.137945	     122.495253
	 B(4,2,15)        =         2.055182	     117.753241
	 B(4,11,13)       =         2.153186	     123.368464
	 B(5,7,12)        =         2.176364	     124.696490
	 B(5,7,20)        =         2.081835	     119.280365
	 B(5,10,6)        =         1.982183	     113.570694
	 B(5,10,9)        =         2.150404	     123.209054
	 B(6,8,12)        =         2.176367	     124.696642
	 B(6,8,21)        =         2.081837	     119.280474
	 B(6,10,9)        =         2.150599	     123.220251
	 B(7,5,10)        =         2.115473	     121.207687
	 B(7,5,18)        =         2.063403	     118.224282
	 B(7,12,8)        =         2.000520	     114.621375
	 B(8,6,10)        =         2.115463	     121.207108
	 B(8,6,19)        =         2.063381	     118.223009
	 B(9,1,14)        =         2.090018	     119.749198
	 B(9,2,15)        =         2.090058	     119.751506
	 B(10,5,18)       =         2.104309	     120.568031
	 B(10,6,19)       =         2.104341	     120.569883
	 B(11,3,16)       =         2.042233	     117.011359
	 B(11,4,17)       =         2.042216	     117.010377
	 B(12,7,20)       =         2.024986	     116.023144
	 B(12,8,21)       =         2.024981	     116.022876
	 D(1,3,11,4)      =        -0.000244	      -0.013984
	 D(1,3,11,13)     =        -3.141353	    -179.986254
	 D(1,9,2,4)       =         0.000045	       0.002598
	 D(1,9,2,15)      =        -3.141528	    -179.996279
	 D(1,9,10,5)      =         0.000000	       0.000000
	 D(1,9,10,6)      =         3.141346	     179.985846
	 D(2,4,11,3)      =         0.000191	       0.010940
	 D(2,4,11,13)     =         3.141300	     179.983210
	 D(2,9,1,3)       =        -0.000099	      -0.005645
	 D(2,9,1,14)      =         3.141593	     180.000000
	 D(2,9,10,5)      =         3.141593	     180.000000
	 D(2,9,10,6)      =        -0.000266	      -0.015243
	 D(3,1,9,10)      =         3.141476	     179.993332
	 D(3,11,4,17)     =        -3.141420	    -179.990135
	 D(4,2,9,10)      =        -3.141529	    -179.996379
	 D(4,11,3,16)     =         3.141401	     179.989034
	 D(5,7,12,8)      =        -0.000232	      -0.013276
	 D(5,10,6,8)      =         0.000019	       0.001094
	 D(5,10,6,19)     =        -3.141557	    -179.997946
	 D(6,8,12,7)      =         0.000395	       0.022637
	 D(6,10,5,7)      =         0.000131	       0.007534
	 D(6,10,5,18)     =        -3.141329	    -179.984887
	 D(7,5,10,9)      =         3.141486	     179.993898
	 D(7,12,8,21)     =         3.141422	     179.990209
	 D(8,6,10,9)      =        -3.141336	    -179.985268
	 D(8,12,7,20)     =         3.141123	     179.973112
	 D(9,1,3,11)      =         0.000212	       0.012169
	 D(9,1,3,16)      =        -3.141434	    -179.990935
	 D(9,2,4,11)      =        -0.000103	      -0.005926
	 D(9,2,4,17)      =         3.141509	     179.995179
	 D(9,10,5,18)     =         0.000026	       0.001478
	 D(9,10,6,19)     =         0.000274	       0.015691
	 D(10,5,7,12)     =        -0.000026	      -0.001481
	 D(10,5,7,20)     =        -3.141374	    -179.987457
	 D(10,6,8,12)     =        -0.000303	      -0.017360
	 D(10,6,8,21)     =        -3.141313	    -179.983951
	 D(10,9,1,14)     =        -0.000020	      -0.001168
	 D(10,9,2,15)     =         0.000083	       0.004744
	 D(11,3,1,14)     =        -3.141474	    -179.993227
	 D(11,4,2,15)     =         3.141470	     179.992972
	 D(12,7,5,18)     =         3.141438	     179.991112
	 D(12,8,6,19)     =         3.141273	     179.981703
	 D(13,11,3,16)    =         0.000293	       0.016764
	 D(13,11,4,17)    =        -0.000312	      -0.017865
	 D(14,1,3,16)     =         0.000064	       0.003669
	 D(15,2,4,17)     =        -0.000103	      -0.005922
	 D(18,5,7,20)     =         0.000090	       0.005136
	 D(19,6,8,21)     =         0.000264	       0.015111

	Current energy   :      -553.1796026186

	Energy change for the previous step:
		Projected    :        -0.0000028937
		Actual       :        -0.0000017355

	Performing BFGS update.
	Previous computed or guess Hessian on step 1.
	Steps to be used in Hessian update: 5 4
	Adding user-defined constraint: Fragment 1; Coordinate 61:
		Value =     0.000000; Fixed value    =     0.000020
		Force =     0.000013; Force constant =     0.625000
	Removing off-diagonal coupling between coordinate 61 and others.
	Taking RFO optimization step.
	Going to follow RFO solution 1.
	Using RFO vector 1.
	Norm of target step-size    0.00355
	Projected energy change by RFO approximation:        -0.0000014378

	Back-transformation to cartesian coordinates...
	Could not converge backtransformation.
	Using first guess instead.

	--- Internal Coordinate Step in ANG or DEG, aJ/ANG or AJ/DEG ---
	 ---------------------------------------------------------------------------
	   Coordinate                Previous        Force       Change         New 
	   ----------                --------       ------       ------       ------
	    1 R(1,3)          =      1.374996    -0.000213    -0.000043     1.374953
	    2 R(1,9)          =      1.406458    -0.000046     0.000007     1.406465
	    3 R(1,14)         =      1.081312    -0.000046    -0.000001     1.081311
	    4 R(2,4)          =      1.374990    -0.000174    -0.000036     1.374954
	    5 R(2,9)          =      1.406478    -0.000271    -0.000025     1.406453
	    6 R(2,15)         =      1.081295     0.000124     0.000028     1.081323
	    7 R(3,11)         =      1.435891    -0.000111    -0.000002     1.435889
	    8 R(3,16)         =      1.082208    -0.000063    -0.000013     1.082195
	    9 R(4,11)         =      1.435896    -0.000122    -0.000005     1.435891
	   10 R(4,17)         =      1.082211    -0.000079    -0.000016     1.082194
	   11 R(5,7)          =      1.382014    -0.000163    -0.000024     1.381990
	   12 R(5,10)         =      1.405188     0.000200     0.000029     1.405217
	   13 R(5,18)         =      1.078276     0.000055     0.000022     1.078298
	   14 R(6,8)          =      1.382009    -0.000125    -0.000017     1.381992
	   15 R(6,10)         =      1.405208    -0.000011    -0.000001     1.405207
	   16 R(6,19)         =      1.078260     0.000210     0.000050     1.078309
	   17 R(7,12)         =      1.339352     0.000615     0.000123     1.339475
	   18 R(7,20)         =      1.083393     0.000085     0.000012     1.083405
	   19 R(8,12)         =      1.339357     0.000576     0.000118     1.339475
	   20 R(8,21)         =      1.083394     0.000079     0.000010     1.083403
	   21 R(9,10)         =      1.441427    -0.000600    -0.000176     1.441251
	   22 R(11,13)        =      1.261561     0.000088     0.000017     1.261578
	   23 B(1,3,11)       =    123.020554    -0.000003    -0.016326   123.004227
	   24 B(1,3,16)       =    119.968087     0.000005     0.034887   120.002974
	   25 B(1,9,2)        =    115.705299     0.000004     0.020104   115.725403
	   26 B(1,9,10)       =    122.141611     0.000001    -0.000782   122.140829
	   27 B(2,4,11)       =    123.020550    -0.000003    -0.016051   123.004499
	   28 B(2,4,17)       =    119.969073     0.000005     0.033737   120.002810
	   29 B(2,9,10)       =    122.153091    -0.000005    -0.019322   122.133768
	   30 B(3,1,9)        =    122.495629    -0.000002    -0.007641   122.487988
	   31 B(3,1,14)       =    117.755173     0.000003     0.015618   117.770790
	   32 B(3,11,4)       =    113.262714     0.000005     0.027273   113.289988
	   33 B(3,11,13)      =    123.368816    -0.000002    -0.013646   123.355170
	   34 B(4,2,9)        =    122.495253    -0.000002    -0.007361   122.487892
	   35 B(4,2,15)       =    117.753241     0.000004     0.019382   117.772624
	   36 B(4,11,13)      =    123.368464    -0.000002    -0.013639   123.354824
	   37 B(5,7,12)       =    124.696490     0.000001     0.008955   124.705445
	   38 B(5,7,20)       =    119.280365    -0.000001    -0.009005   119.271359
	   39 B(5,10,6)       =    113.570694    -0.000001    -0.009316   113.561378
	   40 B(5,10,9)       =    123.209054     0.000004     0.013858   123.222912
	   41 B(6,8,12)       =    124.696642     0.000001     0.008614   124.705256
	   42 B(6,8,21)       =    119.280474    -0.000001    -0.008905   119.271568
	   43 B(6,10,9)       =    123.220251    -0.000003    -0.004542   123.215709
	   44 B(7,5,10)       =    121.207687     0.000001     0.005313   121.213000
	   45 B(7,5,18)       =    118.224282    -0.000004    -0.030783   118.193499
	   46 B(7,12,8)       =    114.621375    -0.000003    -0.019791   114.601584
	   47 B(8,6,10)       =    121.207108     0.000001     0.006224   121.213332
	   48 B(8,6,19)       =    118.223009    -0.000004    -0.028280   118.194729
	   49 B(9,1,14)       =    119.749198    -0.000001    -0.007977   119.741221
	   50 B(9,2,15)       =    119.751506    -0.000002    -0.012021   119.739485
	   51 B(10,5,18)      =    120.568031     0.000003     0.025470   120.593501
	   52 B(10,6,19)      =    120.569883     0.000002     0.022056   120.591939
	   53 B(11,3,16)      =    117.011359    -0.000002    -0.018560   116.992799
	   54 B(11,4,17)      =    117.010377    -0.000002    -0.017686   116.992691
	   55 B(12,7,20)      =    116.023144     0.000000     0.000051   116.023195
	   56 B(12,8,21)      =    116.022876     0.000000     0.000290   116.023166
	   57 D(1,3,11,4)     =     -0.013984     0.000000     0.037590     0.023606
	   58 D(1,3,11,13)    =   -179.986254    -0.000000    -0.037565  -180.023819
	   59 D(1,9,2,4)      =      0.002598    -0.000000    -0.004088    -0.001490
	   60 D(1,9,2,15)     =   -179.996279    -0.000000    -0.003721  -180.000000
	   61 D(1,9,10,5)     =      0.000000     0.000000     0.001316     0.001316
	   62 D(1,9,10,6)     =    179.985846     0.000000     0.024739   180.010584
	   63 D(2,4,11,3)     =      0.010940    -0.000000    -0.031725    -0.020784
	   64 D(2,4,11,13)    =    179.983210     0.000000     0.043430   180.026640
	   65 D(2,9,1,3)      =     -0.005645     0.000000     0.009960     0.004315
	   66 D(2,9,1,14)     =    180.000000     0.000000    -0.001495   179.998505
	   67 D(2,9,10,5)     =    180.000000     0.000000     0.003021   180.003021
	   68 D(2,9,10,6)     =     -0.015243     0.000000     0.027533     0.012290
	   69 D(3,1,9,10)     =    179.993332     0.000000     0.012586   180.005918
	   70 D(3,11,4,17)    =   -179.990135    -0.000000    -0.028445  -180.018580
	   71 D(4,2,9,10)     =   -179.996379    -0.000000    -0.006714  -180.003093
	   72 D(4,11,3,16)    =    179.989034     0.000000     0.029166   180.018200
	   73 D(5,7,12,8)     =     -0.013276     0.000000     0.023868     0.010592
	   74 D(5,10,6,8)     =      0.001094    -0.000000    -0.004624    -0.003529
	   75 D(5,10,6,19)    =   -179.997946    -0.000000    -0.005545  -180.003491
	   76 D(6,8,12,7)     =      0.022637    -0.000000    -0.046752    -0.024115
	   77 D(6,10,5,7)     =      0.007534    -0.000000    -0.016469    -0.008935
	   78 D(6,10,5,18)    =   -179.984887    -0.000000    -0.023071  -180.007957
	   79 D(7,5,10,9)     =    179.993898     0.000000     0.006102   180.000000
	   80 D(7,12,8,21)    =    179.990209     0.000000     0.022458   180.012667
	   81 D(8,6,10,9)     =   -179.985268    -0.000000    -0.026720  -180.011988
	   82 D(8,12,7,20)    =    179.973112     0.000000     0.050662   180.023773
	   83 D(9,1,3,11)     =      0.012169    -0.000000    -0.028809    -0.016640
	   84 D(9,1,3,16)     =   -179.990935    -0.000000    -0.020143  -180.011078
	   85 D(9,2,4,11)     =     -0.005926     0.000000     0.016781     0.010855
	   86 D(9,2,4,17)     =    179.995179     0.000000     0.013407   180.008586
	   87 D(9,10,5,18)    =      0.001478    -0.000000    -0.001478     0.000000
	   88 D(9,10,6,19)    =      0.015691    -0.000000    -0.027641    -0.011950
	   89 D(10,5,7,12)    =     -0.001481     0.000000     0.007193     0.005711
	   90 D(10,5,7,20)    =   -179.987457    -0.000000    -0.020411  -180.007868
	   91 D(10,6,8,12)    =     -0.017360     0.000000     0.038869     0.021509
	   92 D(10,6,8,21)    =   -179.983951    -0.000000    -0.032431  -180.016382
	   93 D(10,9,1,14)    =     -0.001168    -0.000000     0.001168     0.000000
	   94 D(10,9,2,15)    =      0.004744    -0.000000    -0.006915    -0.002171
	   95 D(11,3,1,14)    =   -179.993227    -0.000000    -0.017712  -180.010939
	   96 D(11,4,2,15)    =    179.992972     0.000000     0.016978   180.009950
	   97 D(12,7,5,18)    =    179.991112     0.000000     0.013645   180.004756
	   98 D(12,8,6,19)    =    179.981703     0.000000     0.039769   180.021472
	   99 D(13,11,3,16)   =      0.016764    -0.000000    -0.045989    -0.029225
	  100 D(13,11,4,17)   =     -0.017865     0.000000     0.046710     0.028845
	  101 D(14,1,3,16)    =      0.003669    -0.000000    -0.009046    -0.005376
	  102 D(15,2,4,17)    =     -0.005922     0.000000     0.013604     0.007681
	  103 D(18,5,7,20)    =      0.005136    -0.000000    -0.013958    -0.008822
	  104 D(19,6,8,21)    =      0.015111    -0.000000    -0.031530    -0.016419
	 ---------------------------------------------------------------------------
	Successfully symmetrized geometry.
	 Forces used to impose fixed constraints are not included.
	  Forces zeroed: 61 

  ==> Convergence Check <==

  Measures of convergence in internal coordinates in au.
  Criteria marked as inactive (o), active & met (*), and active & unmet ( ).
  ---------------------------------------------------------------------------------------------
   Step     Total Energy     Delta E     MAX Force     RMS Force      MAX Disp      RMS Disp   
  ---------------------------------------------------------------------------------------------
    Convergence Criteria    1.00e-06 *    3.00e-04 *             o    1.20e-03 *             o
  ---------------------------------------------------------------------------------------------
      6    -553.17960262   -1.74e-06      7.46e-05 *    2.61e-05 o    8.84e-04 *    3.48e-04 o  ~
  ---------------------------------------------------------------------------------------------


  **** Optimization is complete! (in 6 steps) ****

  ==> Optimization Summary <==

  Measures of convergence in internal coordinates in au.
  --------------------------------------------------------------------------------------------------------------- ~
   Step         Total Energy             Delta E       MAX Force       RMS Force        MAX Disp        RMS Disp  ~
  --------------------------------------------------------------------------------------------------------------- ~
      1    -553.167324578753   -553.167324578753      0.02877418      0.00825056      0.03555891      0.00980572  ~
      2    -553.173972646217     -0.006648067464      0.01828711      0.00504125      0.03863940      0.00980573  ~
      3    -553.177838013801     -0.003865367584      0.00978273      0.00266112      0.03745107      0.00980669  ~
      4    -553.179478808025     -0.001640794224      0.00286593      0.00069011      0.01079795      0.00347715  ~
      5    -553.179600883165     -0.000122075140      0.00047517      0.00008701      0.00116471      0.00043966  ~
      6    -553.179602618641     -0.000001735476      0.00007464      0.00002605      0.00088421      0.00034799  ~
  --------------------------------------------------------------------------------------------------------------- ~

	Writing optimization data to binary file.
	Final energy is   -553.1796026186414
	Final (previous) structure:
	Cartesian Geometry (in Angstrom)
	    C    -1.3063405968   0.7373497719  -0.5324298091
	    C    -0.3278079355   0.1307211888   1.5524673848
	    C    -2.3733251572   1.3043803777   0.1237967283
	    C    -1.3878944077   0.6935482182   2.2233183109
	    C     0.9886952522  -0.4825062810  -1.9475029957
	    C     1.9552502819  -1.0813276750   0.1105396862
	    C     2.0768143599  -1.0622244659  -2.5719117418
	    C     3.0036533981  -1.6362314437  -0.5986017951
	    C    -0.2382302428   0.1265141136   0.1488512663
	    C     0.8765977762  -0.4657784435  -0.5468935787
	    C    -2.4914314046   1.3235836186   1.5546937343
	    N     3.0996288022  -1.6465113696  -1.9344760871
	    O    -3.4673807336   1.8416715587   2.1634997418
	    H    -1.3042516946   0.7709908517  -1.6132168074
	    H     0.4580597958  -0.3214650252   2.1416510751
	    H    -3.1736390122   1.7636727935  -0.4416441402
	    H    -1.4151242531   0.6736548326   3.3050033194
	    H     0.2227066319  -0.0402832809  -2.5642519775
	    H     1.9844694388  -1.1320939515   1.1872073481
	    H     2.1315111868  -1.0573259353  -3.6539119862
	    H     3.8193114010  -2.1033403392  -0.0598501250
	Saving final (previous) structure.
			--------------------------
			 OPTKING Finished Execution 
			--------------------------

    Final optimized geometry and variables:
    Molecular point group: c1
    Full point group: C1

    Geometry (in Angstrom), charge = -1, multiplicity = 1:

    C           -1.306340596819     0.737349771915    -0.532429809141
    C           -0.327807935455     0.130721188808     1.552467384827
    C           -2.373325157176     1.304380377737     0.123796728305
    C           -1.387894407666     0.693548218168     2.223318310854
    C            0.988695252227    -0.482506280973    -1.947502995708
    C            1.955250281878    -1.081327675013     0.110539686221
    C            2.076814359855    -1.062224465910    -2.571911741765
    C            3.003653398060    -1.636231443662    -0.598601795121
    C           -0.238230242801     0.126514113611     0.148851266334
    C            0.876597776250    -0.465778443469    -0.546893578659
    C           -2.491431404564     1.323583618566     1.554693734307
    N            3.099628802225    -1.646511369626    -1.934476087053
    O           -3.467380733590     1.841671558726     2.163499741791
    H           -1.304251694631     0.770990851675    -1.613216807408
    H            0.458059795763    -0.321465025153     2.141651075061
    H           -3.173639012238     1.763672793546    -0.441644140195
    H           -1.415124253061     0.673654832594     3.305003319386
    H            0.222706631862    -0.040283280934    -2.564251977525
    H            1.984469438772    -1.132093951486     1.187207348082
    H            2.131511186781    -1.057325935347    -3.653911986245
    H            3.819311400991    -2.103340339180    -0.059850125000

	Cleaning optimization helper files.

*** Psi4 exiting successfully. Buy a developer a beer!
