
    -----------------------------------------------------------------------
          Psi4: An Open-Source Ab Initio Electronic Structure Package
                               Psi4 1.1 release

                         Git: Rev {HEAD} add49b9 


    R. M. Parrish, L. A. Burns, D. G. A. Smith, A. C. Simmonett,
    A. E. DePrince III, E. G. Hohenstein, U. Bozkaya, A. Yu. Sokolov,
    R. Di Remigio, R. M. Richard, J. F. Gonthier, A. M. James,
    H. R. McAlexander, A. Kumar, M. Saitow, X. Wang, B. P. Pritchard,
    P. Verma, H. F. Schaefer III, K. Patkowski, R. A. King, E. F. Valeev,
    F. A. Evangelista, J. M. Turney, T. D. Crawford, and C. D. Sherrill,
    J. Chem. Theory Comput. in press (2017).
    (doi: 10.1021/acs.jctc.7b00174)

    -----------------------------------------------------------------------


    Psi4 started on: Saturday, 11 November 2017 10:26PM

    Process ID:  29158
    PSIDATADIR: /cbio/jclab/home/chayas/anaconda/envs/py35/share/psi4
    Memory:     500.0 MiB
    Threads:    8
    
  ==> Input File <==

--------------------------------------------------------------------------

memory 5 Gb

molecule phepyrFOH_neutral {
  symmetry C1
  0 1 
  C      1.885   -1.036   -0.112
  C      0.807   -0.463   0.561
  C      3.946   -2.486   -1.457
  C      5.208   -2.535   0.590
  C      1.800   -1.079   2.676
  C      5.043   -3.054   -2.084
  C      6.248   -3.101   -0.129
  C      2.921   -1.631   0.608
  C      4.038   -2.225   -0.095
  C      0.764   -0.484   1.955
  C      2.878   -1.652   2.002
  N      6.196   -3.369   -1.453
  O      -0.289   0.076   2.612
  F      3.866   -2.220   2.709
  H      1.904   -1.012   -1.199
  H      0.002   -0.002   -0.006
  H      3.050   -2.257   -2.026
  H      5.316   -2.346   1.653
  H      1.772   -1.099   3.762
  H      5.023   -3.276   -3.146
  H      7.182   -3.362   0.359
  H      -0.175   -0.018   3.571
  units Angstrom
}

dih_string = "1 8 9 3 345"
set optking fixed_dihedral = $dih_string

optimize('MP2/aug-cc-PVTZ')
--------------------------------------------------------------------------

  Memory set to   4.657 GiB by Python driver.
gradient() will perform analytic gradient computation.

*** tstart() called on gpu-1-10.local
*** at Sat Nov 11 22:26:23 2017

    SCF Algorithm Type (re)set to DF.

*** tstart() called on gpu-1-10.local
*** at Sat Nov 11 22:26:23 2017

   => Loading Basis Set <=

    Name: AUG-CC-PVTZ
    Role: ORBITAL
    Keyword: BASIS
    atoms 1-11  entry C          line   221 file /cbio/jclab/home/chayas/anaconda/envs/py35/share/psi4/basis/aug-cc-pvtz.gbs 
    atoms 12    entry N          line   267 file /cbio/jclab/home/chayas/anaconda/envs/py35/share/psi4/basis/aug-cc-pvtz.gbs 
    atoms 13    entry O          line   313 file /cbio/jclab/home/chayas/anaconda/envs/py35/share/psi4/basis/aug-cc-pvtz.gbs 
    atoms 14    entry F          line   359 file /cbio/jclab/home/chayas/anaconda/envs/py35/share/psi4/basis/aug-cc-pvtz.gbs 
    atoms 15-22 entry H          line    34 file /cbio/jclab/home/chayas/anaconda/envs/py35/share/psi4/basis/aug-cc-pvtz.gbs 


         ---------------------------------------------------------
                                   SCF
            by Justin Turney, Rob Parrish, and Andy Simmonett
                              RHF Reference
                        8 Threads,   4768 MiB Core
         ---------------------------------------------------------

  ==> Geometry <==

    Molecular point group: c1
    Full point group: C1

    Geometry (in Angstrom), charge = 0, multiplicity = 1:

       Center              X                  Y                   Z               Mass       
    ------------   -----------------  -----------------  -----------------  -----------------
           C         -1.321971094811     0.754794664288    -0.799987109411    12.000000000000
           C         -2.399971094811     1.327794664288    -0.126987109411    12.000000000000
           C          0.739028905189    -0.695205335712    -2.144987109411    12.000000000000
           C          2.001028905189    -0.744205335712    -0.097987109411    12.000000000000
           C         -1.406971094811     0.711794664288     1.988012890589    12.000000000000
           C          1.836028905189    -1.263205335712    -2.771987109411    12.000000000000
           C          3.041028905189    -1.310205335712    -0.816987109411    12.000000000000
           C         -0.285971094811     0.159794664288    -0.079987109411    12.000000000000
           C          0.831028905189    -0.434205335712    -0.782987109411    12.000000000000
           C         -2.442971094811     1.306794664288     1.267012890589    12.000000000000
           C         -0.328971094811     0.138794664288     1.314012890589    12.000000000000
           N          2.989028905189    -1.578205335712    -2.140987109411    14.003074004780
           O         -3.495971094811     1.866794664288     1.924012890589    15.994914619560
           F          0.659028905189    -0.429205335712     2.021012890589    18.998403224000
           H         -1.302971094811     0.778794664288    -1.886987109411     1.007825032070
           H         -3.204971094811     1.788794664288    -0.693987109411     1.007825032070
           H         -0.156971094811    -0.466205335712    -2.713987109411     1.007825032070
           H          2.109028905189    -0.555205335712     0.965012890589     1.007825032070
           H         -1.434971094811     0.691794664288     3.074012890589     1.007825032070
           H          1.816028905189    -1.485205335712    -3.833987109411     1.007825032070
           H          3.975028905189    -1.571205335712    -0.328987109411     1.007825032070
           H         -3.381971094811     1.772794664288     2.883012890589     1.007825032070

  Running in c1 symmetry.

  Rotational constants: A =      0.06328  B =      0.01361  C =      0.01126 [cm^-1]
  Rotational constants: A =   1896.94661  B =    407.96883  C =    337.52487 [MHz]
  Nuclear repulsion =  817.659588685551853

  Charge       = 0
  Multiplicity = 1
  Electrons    = 98
  Nalpha       = 49
  Nbeta        = 49

  ==> Algorithm <==

  SCF Algorithm Type is DF.
  DIIS enabled.
  MOM disabled.
  Fractional occupation disabled.
  Guess Type is SAD.
  Energy threshold   = 1.00e-10
  Density threshold  = 1.00e-10
  Integral threshold = 0.00e+00

  ==> Primary Basis <==

  Basis Set: AUG-CC-PVTZ
    Blend: AUG-CC-PVTZ
    Number of shells: 268
    Number of basis function: 828
    Number of Cartesian functions: 970
    Spherical Harmonics?: true
    Max angular momentum: 3

   => Loading Basis Set <=

    Name: (AUG-CC-PVTZ AUX)
    Role: JKFIT
    Keyword: DF_BASIS_SCF
    atoms 1-11  entry C          line   161 file /cbio/jclab/home/chayas/anaconda/envs/py35/share/psi4/basis/aug-cc-pvtz-jkfit.gbs 
    atoms 12    entry N          line   223 file /cbio/jclab/home/chayas/anaconda/envs/py35/share/psi4/basis/aug-cc-pvtz-jkfit.gbs 
    atoms 13    entry O          line   285 file /cbio/jclab/home/chayas/anaconda/envs/py35/share/psi4/basis/aug-cc-pvtz-jkfit.gbs 
    atoms 14    entry F          line   347 file /cbio/jclab/home/chayas/anaconda/envs/py35/share/psi4/basis/aug-cc-pvtz-jkfit.gbs 
    atoms 15-22 entry H          line    69 file /cbio/jclab/home/chayas/anaconda/envs/py35/share/psi4/basis/aug-cc-pvtz-jkfit.gbs 

  ==> Pre-Iterations <==

   -------------------------------------------------------
    Irrep   Nso     Nmo     Nalpha   Nbeta   Ndocc  Nsocc
   -------------------------------------------------------
     A        828     828       0       0       0       0
   -------------------------------------------------------
    Total     828     828      49      49      49       0
   -------------------------------------------------------

  ==> Integral Setup <==

  ==> DFJK: Density-Fitted J/K Matrices <==

    J tasked:                  Yes
    K tasked:                  Yes
    wK tasked:                  No
    OpenMP threads:              8
    Integrals threads:           8
    Memory (MB):              3576
    Algorithm:                Disk
    Integral Cache:           NONE
    Schwarz Cutoff:          1E-12
    Fitting Condition:       1E-12

   => Auxiliary Basis Set <=

  Basis Set: (AUG-CC-PVTZ AUX)
    Blend: AUG-CC-PVTZ-JKFIT
    Number of shells: 532
    Number of basis function: 1824
    Number of Cartesian functions: 2274
    Spherical Harmonics?: true
    Max angular momentum: 4

  Minimum eigenvalue in the overlap matrix is 5.9225070841E-07.
  Using Symmetric Orthogonalization.

  SCF Guess: Superposition of Atomic Densities via on-the-fly atomic UHF.

  ==> Iterations <==

                           Total Energy        Delta E     RMS |[F,P]|

   @DF-RHF iter   0:  -655.44202490603698   -6.55442e+02   1.81654e-02 
   @DF-RHF iter   1:  -649.74782786521564    5.69420e+00   2.17840e-03 
   @DF-RHF iter   2:  -650.09565326275060   -3.47825e-01   1.01110e-03 DIIS
   @DF-RHF iter   3:  -650.14560175156862   -4.99485e-02   4.54441e-04 DIIS
   @DF-RHF iter   4:  -650.15896623881360   -1.33645e-02   1.16347e-04 DIIS
   @DF-RHF iter   5:  -650.16040225740949   -1.43602e-03   5.23718e-05 DIIS
   @DF-RHF iter   6:  -650.16065666507984   -2.54408e-04   1.88587e-05 DIIS
   @DF-RHF iter   7:  -650.16070117265747   -4.45076e-05   6.78192e-06 DIIS
   @DF-RHF iter   8:  -650.16070563875383   -4.46610e-06   2.08580e-06 DIIS
   @DF-RHF iter   9:  -650.16070613670854   -4.97955e-07   9.31773e-07 DIIS
   @DF-RHF iter  10:  -650.16070626169778   -1.24989e-07   4.15085e-07 DIIS
   @DF-RHF iter  11:  -650.16070630755667   -4.58589e-08   1.47995e-07 DIIS
   @DF-RHF iter  12:  -650.16070631418779   -6.63113e-09   6.89106e-08 DIIS
   @DF-RHF iter  13:  -650.16070631498053   -7.92738e-10   2.35268e-08 DIIS
   @DF-RHF iter  14:  -650.16070631504385   -6.33236e-11   7.36835e-09 DIIS
   @DF-RHF iter  15:  -650.16070631505966   -1.58025e-11   3.24205e-09 DIIS
   @DF-RHF iter  16:  -650.16070631504067    1.89857e-11   1.42418e-09 DIIS
   @DF-RHF iter  17:  -650.16070631504817   -7.50333e-12   6.64868e-10 DIIS
   @DF-RHF iter  18:  -650.16070631506659   -1.84173e-11   3.28166e-10 DIIS
   @DF-RHF iter  19:  -650.16070631506307    3.52429e-12   1.38940e-10 DIIS
   @DF-RHF iter  20:  -650.16070631504499    1.80762e-11   4.36400e-11 DIIS

  ==> Post-Iterations <==

    Orbital Energies (a.u.)
    -----------------------

    Doubly Occupied:                                                      

       1A    -26.335850     2A    -20.612637     3A    -15.559205  
       4A    -11.354392     5A    -11.332048     6A    -11.271560  
       7A    -11.268908     8A    -11.267693     9A    -11.264057  
      10A    -11.258005    11A    -11.255764    12A    -11.249412  
      13A    -11.236017    14A    -11.226362    15A     -1.659468  
      16A     -1.427128    17A     -1.245942    18A     -1.184904  
      19A     -1.110548    20A     -1.045978    21A     -1.030857  
      22A     -1.020310    23A     -0.897456    24A     -0.882191  
      25A     -0.852412    26A     -0.827071    27A     -0.775226  
      28A     -0.757526    29A     -0.726434    30A     -0.720842  
      31A     -0.709119    32A     -0.677521    33A     -0.653035  
      34A     -0.641210    35A     -0.628661    36A     -0.612484  
      37A     -0.610385    38A     -0.589892    39A     -0.577977  
      40A     -0.547310    41A     -0.542705    42A     -0.535080  
      43A     -0.507191    44A     -0.500471    45A     -0.413729  
      46A     -0.404591    47A     -0.363121    48A     -0.345489  
      49A     -0.310414  

    Virtual:                                                              

      50A      0.020775    51A      0.027894    52A      0.034960  
      53A      0.039903    54A      0.044463    55A      0.049210  
      56A      0.057288    57A      0.060511    58A      0.071996  
      59A      0.076589    60A      0.080805    61A      0.083436  
      62A      0.089641    63A      0.091493    64A      0.097865  
      65A      0.101418    66A      0.104254    67A      0.109452  
      68A      0.110928    69A      0.112011    70A      0.116661  
      71A      0.119265    72A      0.126784    73A      0.130667  
      74A      0.133662    75A      0.136770    76A      0.138586  
      77A      0.141340    78A      0.143756    79A      0.144567  
      80A      0.151413    81A      0.152267    82A      0.156867  
      83A      0.164821    84A      0.166210    85A      0.171650  
      86A      0.176914    87A      0.181348    88A      0.186254  
      89A      0.188576    90A      0.194624    91A      0.201985  
      92A      0.207466    93A      0.211843    94A      0.220302  
      95A      0.224349    96A      0.227950    97A      0.228915  
      98A      0.233645    99A      0.239424   100A      0.244018  
     101A      0.246903   102A      0.248055   103A      0.254676  
     104A      0.257711   105A      0.262334   106A      0.263654  
     107A      0.268704   108A      0.271199   109A      0.276121  
     110A      0.279225   111A      0.283575   112A      0.288494  
     113A      0.292978   114A      0.298261   115A      0.303226  
     116A      0.304438   117A      0.306770   118A      0.314231  
     119A      0.317813   120A      0.321459   121A      0.326223  
     122A      0.327678   123A      0.333863   124A      0.340625  
     125A      0.345078   126A      0.345800   127A      0.349656  
     128A      0.356192   129A      0.363393   130A      0.372300  
     131A      0.372529   132A      0.383334   133A      0.387167  
     134A      0.390678   135A      0.395214   136A      0.400768  
     137A      0.405441   138A      0.408839   139A      0.412927  
     140A      0.423412   141A      0.423868   142A      0.426411  
     143A      0.431147   144A      0.433394   145A      0.434293  
     146A      0.438093   147A      0.447139   148A      0.448540  
     149A      0.449077   150A      0.455653   151A      0.456926  
     152A      0.465671   153A      0.467570   154A      0.470268  
     155A      0.473595   156A      0.478499   157A      0.480860  
     158A      0.487375   159A      0.490368   160A      0.491994  
     161A      0.499170   162A      0.500504   163A      0.503004  
     164A      0.506336   165A      0.509621   166A      0.510505  
     167A      0.513559   168A      0.515087   169A      0.522493  
     170A      0.525282   171A      0.528956   172A      0.536260  
     173A      0.538026   174A      0.543915   175A      0.548171  
     176A      0.551615   177A      0.558346   178A      0.560869  
     179A      0.569388   180A      0.570108   181A      0.575482  
     182A      0.576881   183A      0.591933   184A      0.594714  
     185A      0.595557   186A      0.599812   187A      0.604789  
     188A      0.618307   189A      0.623137   190A      0.625566  
     191A      0.636113   192A      0.638410   193A      0.646883  
     194A      0.652669   195A      0.659671   196A      0.662223  
     197A      0.675980   198A      0.683808   199A      0.688963  
     200A      0.692217   201A      0.695152   202A      0.699344  
     203A      0.703488   204A      0.709164   205A      0.715090  
     206A      0.723254   207A      0.725878   208A      0.729795  
     209A      0.742148   210A      0.745950   211A      0.749836  
     212A      0.751803   213A      0.759074   214A      0.768790  
     215A      0.771249   216A      0.780370   217A      0.784530  
     218A      0.789441   219A      0.792427   220A      0.804693  
     221A      0.808962   222A      0.811721   223A      0.816684  
     224A      0.822521   225A      0.827180   226A      0.830714  
     227A      0.843595   228A      0.843963   229A      0.855686  
     230A      0.859959   231A      0.862861   232A      0.864930  
     233A      0.867615   234A      0.876198   235A      0.885343  
     236A      0.889710   237A      0.894302   238A      0.895752  
     239A      0.900233   240A      0.902143   241A      0.907484  
     242A      0.916039   243A      0.921172   244A      0.923254  
     245A      0.931686   246A      0.935243   247A      0.938760  
     248A      0.944059   249A      0.949880   250A      0.952028  
     251A      0.959038   252A      0.962522   253A      0.968996  
     254A      0.970245   255A      0.972606   256A      0.977342  
     257A      0.978830   258A      0.981652   259A      0.990334  
     260A      0.993247   261A      0.995774   262A      1.005693  
     263A      1.008399   264A      1.013827   265A      1.016516  
     266A      1.025578   267A      1.029629   268A      1.033214  
     269A      1.034840   270A      1.039819   271A      1.044745  
     272A      1.045761   273A      1.053127   274A      1.055449  
     275A      1.061972   276A      1.067035   277A      1.071087  
     278A      1.076880   279A      1.079636   280A      1.089400  
     281A      1.091754   282A      1.095677   283A      1.099397  
     284A      1.102384   285A      1.113995   286A      1.117878  
     287A      1.120184   288A      1.125941   289A      1.131841  
     290A      1.135760   291A      1.139680   292A      1.144130  
     293A      1.147566   294A      1.151065   295A      1.166415  
     296A      1.169142   297A      1.173845   298A      1.181394  
     299A      1.182559   300A      1.183334   301A      1.187721  
     302A      1.194400   303A      1.198454   304A      1.204735  
     305A      1.207210   306A      1.211440   307A      1.214310  
     308A      1.223668   309A      1.230774   310A      1.231838  
     311A      1.239973   312A      1.251494   313A      1.258596  
     314A      1.265563   315A      1.268492   316A      1.272655  
     317A      1.277548   318A      1.279433   319A      1.293938  
     320A      1.300473   321A      1.303384   322A      1.308369  
     323A      1.316874   324A      1.318785   325A      1.322149  
     326A      1.330436   327A      1.334993   328A      1.337090  
     329A      1.355146   330A      1.365609   331A      1.368799  
     332A      1.378055   333A      1.382405   334A      1.388826  
     335A      1.392966   336A      1.399721   337A      1.405962  
     338A      1.421792   339A      1.423144   340A      1.436483  
     341A      1.441825   342A      1.453371   343A      1.454533  
     344A      1.467149   345A      1.472572   346A      1.479823  
     347A      1.486757   348A      1.496849   349A      1.507787  
     350A      1.514048   351A      1.527426   352A      1.531668  
     353A      1.537899   354A      1.559039   355A      1.562537  
     356A      1.568765   357A      1.577986   358A      1.585539  
     359A      1.587190   360A      1.601864   361A      1.608544  
     362A      1.611865   363A      1.620327   364A      1.627014  
     365A      1.633210   366A      1.643849   367A      1.650719  
     368A      1.663598   369A      1.669580   370A      1.673266  
     371A      1.674867   372A      1.689496   373A      1.697009  
     374A      1.704398   375A      1.709902   376A      1.722440  
     377A      1.726980   378A      1.734483   379A      1.736730  
     380A      1.739950   381A      1.748070   382A      1.758615  
     383A      1.768199   384A      1.777749   385A      1.786018  
     386A      1.799451   387A      1.802564   388A      1.805328  
     389A      1.811978   390A      1.817278   391A      1.826885  
     392A      1.834160   393A      1.838433   394A      1.850333  
     395A      1.855408   396A      1.862120   397A      1.868504  
     398A      1.880313   399A      1.889244   400A      1.898236  
     401A      1.910251   402A      1.917588   403A      1.928476  
     404A      1.930145   405A      1.939174   406A      1.949946  
     407A      1.956607   408A      1.966538   409A      1.973446  
     410A      1.975629   411A      1.986641   412A      1.989230  
     413A      2.000226   414A      2.006006   415A      2.012008  
     416A      2.020543   417A      2.028693   418A      2.032791  
     419A      2.038253   420A      2.043825   421A      2.051003  
     422A      2.052149   423A      2.063361   424A      2.070714  
     425A      2.075972   426A      2.090092   427A      2.104914  
     428A      2.112496   429A      2.115173   430A      2.121638  
     431A      2.132559   432A      2.133000   433A      2.147330  
     434A      2.153677   435A      2.163814   436A      2.169544  
     437A      2.182652   438A      2.186647   439A      2.193803  
     440A      2.196513   441A      2.204104   442A      2.212913  
     443A      2.223053   444A      2.225406   445A      2.233779  
     446A      2.244053   447A      2.245173   448A      2.258054  
     449A      2.284352   450A      2.291213   451A      2.296460  
     452A      2.301468   453A      2.309099   454A      2.318636  
     455A      2.332296   456A      2.340783   457A      2.345788  
     458A      2.358469   459A      2.362036   460A      2.380372  
     461A      2.403186   462A      2.404685   463A      2.418157  
     464A      2.422418   465A      2.439532   466A      2.448276  
     467A      2.456038   468A      2.464996   469A      2.473272  
     470A      2.485359   471A      2.499000   472A      2.514351  
     473A      2.516229   474A      2.533667   475A      2.546056  
     476A      2.550768   477A      2.561115   478A      2.574906  
     479A      2.585340   480A      2.596409   481A      2.613974  
     482A      2.614708   483A      2.646045   484A      2.648710  
     485A      2.656158   486A      2.692830   487A      2.705658  
     488A      2.718590   489A      2.741991   490A      2.749248  
     491A      2.769406   492A      2.782377   493A      2.788139  
     494A      2.812495   495A      2.836427   496A      2.837860  
     497A      2.850889   498A      2.856934   499A      2.871711  
     500A      2.887128   501A      2.894705   502A      2.924061  
     503A      2.948696   504A      2.973855   505A      3.004934  
     506A      3.017125   507A      3.033875   508A      3.039388  
     509A      3.061680   510A      3.083901   511A      3.096337  
     512A      3.107542   513A      3.113102   514A      3.128184  
     515A      3.157093   516A      3.165194   517A      3.182636  
     518A      3.192051   519A      3.202563   520A      3.215707  
     521A      3.225007   522A      3.236628   523A      3.252095  
     524A      3.266833   525A      3.271835   526A      3.301492  
     527A      3.303374   528A      3.322741   529A      3.333937  
     530A      3.343650   531A      3.345816   532A      3.360473  
     533A      3.364724   534A      3.373498   535A      3.379178  
     536A      3.393002   537A      3.406473   538A      3.411947  
     539A      3.428621   540A      3.442385   541A      3.444268  
     542A      3.456674   543A      3.464780   544A      3.469152  
     545A      3.474246   546A      3.492011   547A      3.497082  
     548A      3.504475   549A      3.508611   550A      3.523294  
     551A      3.529927   552A      3.538857   553A      3.546738  
     554A      3.552192   555A      3.559487   556A      3.572331  
     557A      3.576191   558A      3.594848   559A      3.598855  
     560A      3.607225   561A      3.618483   562A      3.622816  
     563A      3.630716   564A      3.640298   565A      3.646591  
     566A      3.665465   567A      3.670636   568A      3.683025  
     569A      3.693453   570A      3.700393   571A      3.703215  
     572A      3.710572   573A      3.727583   574A      3.743715  
     575A      3.751108   576A      3.754096   577A      3.761940  
     578A      3.767633   579A      3.780932   580A      3.786740  
     581A      3.802136   582A      3.806895   583A      3.809793  
     584A      3.826187   585A      3.841141   586A      3.844652  
     587A      3.857223   588A      3.860032   589A      3.862257  
     590A      3.871144   591A      3.882483   592A      3.894980  
     593A      3.899820   594A      3.914146   595A      3.918799  
     596A      3.923085   597A      3.935386   598A      3.940982  
     599A      3.951632   600A      3.955036   601A      3.966245  
     602A      3.975339   603A      3.976627   604A      3.983650  
     605A      3.992145   606A      4.006105   607A      4.010977  
     608A      4.023375   609A      4.028925   610A      4.036688  
     611A      4.053143   612A      4.056442   613A      4.069901  
     614A      4.073959   615A      4.094066   616A      4.101231  
     617A      4.106089   618A      4.118088   619A      4.134876  
     620A      4.139929   621A      4.153441   622A      4.164898  
     623A      4.174372   624A      4.180589   625A      4.187854  
     626A      4.191689   627A      4.208513   628A      4.211919  
     629A      4.213428   630A      4.227225   631A      4.241006  
     632A      4.246358   633A      4.252960   634A      4.260588  
     635A      4.277576   636A      4.285995   637A      4.297526  
     638A      4.306651   639A      4.309958   640A      4.317467  
     641A      4.330231   642A      4.334330   643A      4.337437  
     644A      4.345837   645A      4.357711   646A      4.371764  
     647A      4.373517   648A      4.380681   649A      4.400252  
     650A      4.406147   651A      4.412263   652A      4.426638  
     653A      4.435249   654A      4.452009   655A      4.456697  
     656A      4.465839   657A      4.469465   658A      4.477313  
     659A      4.499212   660A      4.505469   661A      4.513219  
     662A      4.516121   663A      4.524749   664A      4.543046  
     665A      4.549745   666A      4.553799   667A      4.574681  
     668A      4.590342   669A      4.593351   670A      4.609709  
     671A      4.619963   672A      4.629759   673A      4.639518  
     674A      4.644140   675A      4.666663   676A      4.674978  
     677A      4.683325   678A      4.707450   679A      4.720845  
     680A      4.738710   681A      4.744055   682A      4.766598  
     683A      4.779396   684A      4.786881   685A      4.793188  
     686A      4.810560   687A      4.827401   688A      4.832194  
     689A      4.870288   690A      4.881185   691A      4.886762  
     692A      4.897508   693A      4.914590   694A      4.921843  
     695A      4.949661   696A      4.958538   697A      4.965734  
     698A      4.989712   699A      4.993621   700A      5.001540  
     701A      5.020623   702A      5.034086   703A      5.037150  
     704A      5.055491   705A      5.062211   706A      5.079370  
     707A      5.095494   708A      5.108947   709A      5.116362  
     710A      5.119066   711A      5.125353   712A      5.130972  
     713A      5.149205   714A      5.164645   715A      5.171808  
     716A      5.177339   717A      5.197180   718A      5.199939  
     719A      5.219416   720A      5.233666   721A      5.258503  
     722A      5.273267   723A      5.282097   724A      5.308375  
     725A      5.330390   726A      5.340296   727A      5.345405  
     728A      5.357181   729A      5.372758   730A      5.410275  
     731A      5.426734   732A      5.436200   733A      5.461342  
     734A      5.466047   735A      5.483759   736A      5.511825  
     737A      5.543108   738A      5.550951   739A      5.564775  
     740A      5.573528   741A      5.591920   742A      5.611606  
     743A      5.625637   744A      5.672749   745A      5.698888  
     746A      5.726118   747A      5.753923   748A      5.777210  
     749A      5.796350   750A      5.804537   751A      5.808043  
     752A      5.838600   753A      5.849839   754A      5.866320  
     755A      5.887505   756A      5.912914   757A      5.937356  
     758A      5.991425   759A      6.011407   760A      6.088261  
     761A      6.096715   762A      6.168163   763A      6.176437  
     764A      6.216055   765A      6.253103   766A      6.283169  
     767A      6.314324   768A      6.359296   769A      6.382119  
     770A      6.419675   771A      6.458808   772A      6.486388  
     773A      6.511494   774A      6.584682   775A      6.591309  
     776A      6.647737   777A      6.698654   778A      6.720913  
     779A      6.736084   780A      6.745021   781A      6.762875  
     782A      6.880418   783A      6.882004   784A      6.888096  
     785A      6.932376   786A      6.970556   787A      6.989835  
     788A      7.045012   789A      7.086693   790A      7.101360  
     791A      7.202000   792A      7.248124   793A      7.399392  
     794A      7.413261   795A      7.446402   796A      7.500216  
     797A      7.670750   798A      7.688688   799A      7.743905  
     800A      7.999166   801A      8.375605   802A      8.628057  
     803A      9.139272   804A      9.204722   805A      9.295447  
     806A      9.348211   807A      9.431115   808A      9.542193  
     809A      9.560583   810A      9.618744   811A      9.708125  
     812A      9.737045   813A     10.083809   814A     10.105966  
     815A     15.588991   816A     16.250694   817A     16.590973  
     818A     16.884199   819A     16.942065   820A     17.281378  
     821A     18.570168   822A     18.927758   823A     19.657340  
     824A     19.922852   825A     20.427468   826A     20.519576  
     827A     20.912516   828A     21.413414  

    Final Occupation by Irrep:
              A 
    DOCC [    49 ]

  Energy converged.

  @DF-RHF Final Energy:  -650.16070631504499

   => Energetics <=

    Nuclear Repulsion Energy =            817.6595886855518529
    One-Electron Energy =               -2509.9874101746045199
    Two-Electron Energy =                1042.1671151740076766
    DFT Exchange-Correlation Energy =       0.0000000000000000
    Empirical Dispersion Energy =           0.0000000000000000
    PCM Polarization Energy =               0.0000000000000000
    EFP Energy =                            0.0000000000000000
    Total Energy =                       -650.1607063150449903



Properties will be evaluated at   0.000000,   0.000000,   0.000000 Bohr

Properties computed using the SCF density matrix

  Nuclear Dipole Moment: (a.u.)
     X:    -2.1300      Y:     1.3131      Z:    -4.2684

  Electronic Dipole Moment: (a.u.)
     X:     0.9905      Y:    -0.7048      Z:     5.0768

  Dipole Moment: (a.u.)
     X:    -1.1396      Y:     0.6083      Z:     0.8084     Total:     1.5239

  Dipole Moment: (Debye)
     X:    -2.8965      Y:     1.5462      Z:     2.0547     Total:     3.8733


*** tstop() called on gpu-1-10.local at Sat Nov 11 22:35:52 2017
Module time:
	user time   =    1270.44 seconds =      21.17 minutes
	system time =      52.54 seconds =       0.88 minutes
	total time  =        569 seconds =       9.48 minutes
Total time:
	user time   =    1270.45 seconds =      21.17 minutes
	system time =      52.54 seconds =       0.88 minutes
	total time  =        569 seconds =       9.48 minutes

  //>>>>>>>>>>>>>>>>>>>>>>>>>>>>>>>>>>>//
  //               DFMP2               //
  //<<<<<<<<<<<<<<<<<<<<<<<<<<<<<<<<<<<//

   => Loading Basis Set <=

    Name: (AUG-CC-PVTZ AUX)
    Role: RIFIT
    Keyword: DF_BASIS_MP2
    atoms 1-11  entry C          line   147 file /cbio/jclab/home/chayas/anaconda/envs/py35/share/psi4/basis/aug-cc-pvtz-ri.gbs 
    atoms 12    entry N          line   205 file /cbio/jclab/home/chayas/anaconda/envs/py35/share/psi4/basis/aug-cc-pvtz-ri.gbs 
    atoms 13    entry O          line   263 file /cbio/jclab/home/chayas/anaconda/envs/py35/share/psi4/basis/aug-cc-pvtz-ri.gbs 
    atoms 14    entry F          line   321 file /cbio/jclab/home/chayas/anaconda/envs/py35/share/psi4/basis/aug-cc-pvtz-ri.gbs 
    atoms 15-22 entry H          line    29 file /cbio/jclab/home/chayas/anaconda/envs/py35/share/psi4/basis/aug-cc-pvtz-ri.gbs 

	 --------------------------------------------------------
	                          DF-MP2                         
	      2nd-Order Density-Fitted Moller-Plesset Theory     
	              RMP2 Wavefunction,   8 Threads             
	                                                         
	        Rob Parrish, Justin Turney, Andy Simmonett,      
	           Ed Hohenstein, and C. David Sherrill          
	 --------------------------------------------------------

   => Auxiliary Basis Set <=

  Basis Set: (AUG-CC-PVTZ AUX)
    Blend: AUG-CC-PVTZ-RI
    Number of shells: 504
    Number of basis function: 1852
    Number of Cartesian functions: 2344
    Spherical Harmonics?: true
    Max angular momentum: 4

	 --------------------------------------------------------
	                 NBF =   828, NAUX =  1852
	 --------------------------------------------------------
	   CLASS    FOCC     OCC    AOCC    AVIR     VIR    FVIR
	   PAIRS       0      49      49     779     779       0
	 --------------------------------------------------------


         ------------------------------------------------------------
                                     CPHF                           
                                  Rob Parrish                       
         ------------------------------------------------------------

  ==> Geometry <==

    Molecular point group: c1
    Full point group: C1

    Geometry (in Angstrom), charge = 0, multiplicity = 1:

       Center              X                  Y                   Z               Mass       
    ------------   -----------------  -----------------  -----------------  -----------------
           C         -1.321971094811     0.754794664288    -0.799987109411    12.000000000000
           C         -2.399971094811     1.327794664288    -0.126987109411    12.000000000000
           C          0.739028905189    -0.695205335712    -2.144987109411    12.000000000000
           C          2.001028905189    -0.744205335712    -0.097987109411    12.000000000000
           C         -1.406971094811     0.711794664288     1.988012890589    12.000000000000
           C          1.836028905189    -1.263205335712    -2.771987109411    12.000000000000
           C          3.041028905189    -1.310205335712    -0.816987109411    12.000000000000
           C         -0.285971094811     0.159794664288    -0.079987109411    12.000000000000
           C          0.831028905189    -0.434205335712    -0.782987109411    12.000000000000
           C         -2.442971094811     1.306794664288     1.267012890589    12.000000000000
           C         -0.328971094811     0.138794664288     1.314012890589    12.000000000000
           N          2.989028905189    -1.578205335712    -2.140987109411    14.003074004780
           O         -3.495971094811     1.866794664288     1.924012890589    15.994914619560
           F          0.659028905189    -0.429205335712     2.021012890589    18.998403224000
           H         -1.302971094811     0.778794664288    -1.886987109411     1.007825032070
           H         -3.204971094811     1.788794664288    -0.693987109411     1.007825032070
           H         -0.156971094811    -0.466205335712    -2.713987109411     1.007825032070
           H          2.109028905189    -0.555205335712     0.965012890589     1.007825032070
           H         -1.434971094811     0.691794664288     3.074012890589     1.007825032070
           H          1.816028905189    -1.485205335712    -3.833987109411     1.007825032070
           H          3.975028905189    -1.571205335712    -0.328987109411     1.007825032070
           H         -3.381971094811     1.772794664288     2.883012890589     1.007825032070

  Nuclear repulsion =  817.659588685551853
  Reference energy  = -650.160706315044990

  ==> Basis Set <==

  Basis Set: AUG-CC-PVTZ
    Blend: AUG-CC-PVTZ
    Number of shells: 268
    Number of basis function: 828
    Number of Cartesian functions: 970
    Spherical Harmonics?: true
    Max angular momentum: 3

  ==> CGRSolver (by Rob Parrish) <==

   Number of roots    =         1
   Preconditioning    =    JACOBI
   Convergence cutoff =     1E-06
   Maximum iterations =       100

  ==> CPHFRHamiltonian (by Rob Parrish) <== 

  ==> DFJK: Density-Fitted J/K Matrices <==

    J tasked:                  Yes
    K tasked:                  Yes
    wK tasked:                  No
    OpenMP threads:              8
    Integrals threads:           8
    Memory (MB):              3576
    Algorithm:                Disk
    Integral Cache:           NONE
    Schwarz Cutoff:          1E-12
    Fitting Condition:       1E-12

   => Auxiliary Basis Set <=

  Basis Set: (AUG-CC-PVTZ AUX)
    Blend: AUG-CC-PVTZ-JKFIT
    Number of shells: 532
    Number of basis function: 1824
    Number of Cartesian functions: 2274
    Spherical Harmonics?: true
    Max angular momentum: 4

  ==> CPHF Iterations <==

  => Iterations <=

             Iter  Converged  Remaining    Residual
  CGR           1          0          1   1.054E-01
  CGR           2          0          1   3.693E-02
  CGR           3          0          1   2.559E-02
  CGR           4          0          1   1.081E-02
  CGR           5          0          1   4.588E-03
  CGR           6          0          1   1.743E-03
  CGR           7          0          1   5.012E-04
  CGR           8          0          1   1.660E-04
  CGR           9          0          1   5.680E-05
  CGR          10          0          1   1.980E-05
  CGR          11          0          1   1.031E-05
  CGR          12          0          1   4.313E-06
  CGR          13          0          1   1.879E-06
  CGR          14          1          0   6.044E-07

    CGRSolver converged.

  ==> DFCorrGrad: Density-Fitted Correlated Gradients <==

    OpenMP threads:              8
    Integrals threads:           8
    Memory (MB):              3576
    Schwarz Cutoff:          0E+00
    Fitting Condition:       1E-12

   => Auxiliary Basis Set <=

  Basis Set: (AUG-CC-PVTZ AUX)
    Blend: AUG-CC-PVTZ-JKFIT
    Number of shells: 532
    Number of basis function: 1824
    Number of Cartesian functions: 2274
    Spherical Harmonics?: true
    Max angular momentum: 4

	-----------------------------------------------------------
	 ==================> DF-MP2 Energies <==================== 
	-----------------------------------------------------------
	 Reference Energy          =    -650.1607063150449903 [Eh]
	 Singles Energy            =      -0.0000000000000001 [Eh]
	 Same-Spin Energy          =      -0.6795530438420472 [Eh]
	 Opposite-Spin Energy      =      -2.0219914272325457 [Eh]
	 Correlation Energy        =      -2.7015444710745928 [Eh]
	 Total Energy              =    -652.8622507861196027 [Eh]
	-----------------------------------------------------------
	 ================> DF-SCS-MP2 Energies <================== 
	-----------------------------------------------------------
	 SCS Same-Spin Scale       =       0.3333333333333333 [-]
	 SCS Opposite-Spin Scale   =       1.2000000000000000 [-]
	 SCS Same-Spin Energy      =      -0.2265176812806824 [Eh]
	 SCS Opposite-Spin Energy  =      -2.4263897126790548 [Eh]
	 SCS Correlation Energy    =      -2.6529073939597372 [Eh]
	 SCS Total Energy          =    -652.8136137090046986 [Eh]
	-----------------------------------------------------------


  -Total Gradient:
     Atom            X                  Y                   Z
    ------   -----------------  -----------------  -----------------
       1        0.013742947997    -0.005914941936    -0.017265734732
       2        0.002249581345    -0.001266006690     0.005485690116
       3       -0.009995513487     0.004190470153     0.003638160466
       4       -0.014935883816     0.005128042769     0.007705403153
       5       -0.008631529963     0.004991704005     0.000920507062
       6       -0.011040694065     0.003293782202    -0.001497402418
       7       -0.003126332234     0.003657557964     0.014531047112
       8       -0.008083441055     0.004054326156     0.002124182810
       9        0.004606721310    -0.001972559635    -0.004576927009
      10       -0.008157658765     0.005075620415    -0.006092677535
      11        0.027183807237    -0.017119371280     0.005831629807
      12        0.011311835273    -0.005439850001    -0.008209993877
      13        0.002426595551    -0.001478268525     0.000738552506
      14        0.016079128885    -0.001827616413    -0.014970138147
      15       -0.000364927741    -0.001281072216    -0.009211649357
      16       -0.003233408659     0.001684099416    -0.005435767612
      17       -0.006153303702     0.003612742963    -0.002844421403
      18       -0.005585738430     0.001847899711     0.017308580954
      19       -0.000974988453     0.000410755484     0.004295471546
      20        0.000862466835    -0.000796559845    -0.002662111663
      21        0.002938268714    -0.001178726070     0.000860930966
      22       -0.001117932774     0.000327971372     0.009326667251


*** tstop() called on gpu-1-10.local at Sat Nov 11 23:13:30 2017
Module time:
	user time   =    5966.98 seconds =      99.45 minutes
	system time =     113.20 seconds =       1.89 minutes
	total time  =       2827 seconds =      47.12 minutes
Total time:
	user time   =    5966.99 seconds =      99.45 minutes
	system time =     113.20 seconds =       1.89 minutes
	total time  =       2827 seconds =      47.12 minutes

			-----------------------------------------
			 OPTKING 2.0: for geometry optimizations 
			  - R.A. King,  Bethel University        
			-----------------------------------------

	Internal coordinates to be generated automatically.
	Detected frag 1 with atoms:  1 2 3 4 5 6 7 8 9 10 11 12 13 14 15 16 17 18 19 20
	 21 22
	---Fragment 1 Bond Connectivity---
	 1 : 2 8 15
	 2 : 1 10 16
	 3 : 6 9 17
	 4 : 7 9 18
	 5 : 10 11 19
	 6 : 3 12 20
	 7 : 4 12 21
	 8 : 1 9 11
	 9 : 3 4 8
	 10 : 2 5 13
	 11 : 5 8 14
	 12 : 6 7
	 13 : 10 22
	 14 : 11
	 15 : 1
	 16 : 2
	 17 : 3
	 18 : 4
	 19 : 5
	 20 : 6
	 21 : 7
	 22 : 13

	Assuming in current code that numbering for constraints corresponds to unified fragment.
	Fixed dihedral atom list: 
	     1     8     9     3
	---Fragment 1 Geometry and Gradient---
	 C          -2.4981633248        1.4263552021       -1.5117565466
	 C          -4.5352880960        2.5091682762       -0.2399708592
	 C           1.3965622351       -1.3137476906       -4.0534381954
	 C           3.7813966148       -1.4063442711       -0.1851688013
	 C          -2.6587900461        1.3450969784        3.7567999119
	 C           3.4695918029       -2.3871121341       -5.2382964807
	 C           5.7467117930       -2.4759292623       -1.5438818909
	 C          -0.5404070511        0.3019681530       -0.1511537309
	 C           1.5704170393       -0.8205291699       -1.4796312024
	 C          -4.6165463197        2.4694840274        2.3943073700
	 C          -0.6216652748        0.2622839042        2.4831244983
	 N           5.6484460341       -2.9823758660       -4.0458792908
	 O          -6.6064279377        3.5277306618        3.6358574394
	 F           1.2453841445       -0.8110805393        3.8191608742
	 H          -2.4622585283        1.4717086293       -3.5658888531
	 H          -6.0565176330        3.3803320235       -1.3114455765
	 H          -0.2966323800       -0.8810004062       -5.1286923650
	 H           3.9854870371       -1.0491860320        1.8236100779
	 H          -2.7117023778        1.3073024557        5.8090424922
	 H           3.4317972802       -2.8066313356       -7.2451856338
	 H           7.5117160011       -2.9691477830       -0.6216955380
	 H          -6.3909991585        3.3500964053        5.4481048008
	             0.0137429480       -0.0059149419       -0.0172657347
	             0.0022495813       -0.0012660067        0.0054856901
	            -0.0099955135        0.0041904702        0.0036381605
	            -0.0149358838        0.0051280428        0.0077054032
	            -0.0086315300        0.0049917040        0.0009205071
	            -0.0110406941        0.0032937822       -0.0014974024
	            -0.0031263322        0.0036575580        0.0145310471
	            -0.0080834411        0.0040543262        0.0021241828
	             0.0046067213       -0.0019725596       -0.0045769270
	            -0.0081576588        0.0050756204       -0.0060926775
	             0.0271838072       -0.0171193713        0.0058316298
	             0.0113118353       -0.0054398500       -0.0082099939
	             0.0024265956       -0.0014782685        0.0007385525
	             0.0160791289       -0.0018276164       -0.0149701381
	            -0.0003649277       -0.0012810722       -0.0092116494
	            -0.0032334087        0.0016840994       -0.0054357676
	            -0.0061533037        0.0036127430       -0.0028444214
	            -0.0055857384        0.0018478997        0.0173085810
	            -0.0009749885        0.0004107555        0.0042954715
	             0.0008624668       -0.0007965598       -0.0026621117
	             0.0029382687       -0.0011787261        0.0008609310
	            -0.0011179328        0.0003279714        0.0093266673

	Previous optimization step data not found.  Starting new optimization.

	---Fragment 1 Intrafragment Coordinates---
	 - Coordinate -           - BOHR/RAD -       - ANG/DEG -
	 R(1,2)           =         2.634350	       1.394038
	 R(1,8)           =         2.635962	       1.394891
	 R(1,15)          =         2.054947	       1.087431
	 R(2,10)          =         2.635830	       1.394821
	 R(2,16)          =         2.054537	       1.087214
	 R(3,6)           =         2.617910	       1.385338
	 R(3,9)           =         2.626399	       1.389831
	 R(3,17)          =         2.051914	       1.085826
	 R(4,7)           =         2.617743	       1.385250
	 R(4,9)           =         2.628163	       1.390764
	 R(4,18)          =         2.050465	       1.085059
	 R(5,10)          =         2.636938	       1.395407
	 R(5,11)          =         2.635263	       1.394521
	 R(5,19)          =         2.053272	       1.086545
	 R(6,12)          =         2.554135	       1.351590
	 R(6,20)          =         2.050617	       1.085140
	 R(7,12)          =         2.554630	       1.351852
	 R(7,21)          =         2.051568	       1.085643
	 R(8,9)           =         2.735038	       1.447320
	 R(8,11)          =         2.635830	       1.394821
	 R(10,13)         =         2.573123	       1.361638
	 R(11,14)         =         2.534359	       1.341125
	 R(13,22)         =         1.833631	       0.970316
	 B(1,2,10)        =         2.094553	     120.009056
	 B(1,2,16)        =         2.088723	     119.675016
	 B(1,8,9)         =         2.091569	     119.838095
	 B(1,8,11)        =         2.093692	     119.959722
	 B(2,1,8)         =         2.094940	     120.031219
	 B(2,1,15)        =         2.079469	     119.144799
	 B(2,10,5)        =         2.094306	     119.994870
	 B(2,10,13)       =         2.094247	     119.991510
	 B(3,6,12)        =         2.164908	     124.040100
	 B(3,6,20)        =         2.108577	     120.812577
	 B(3,9,4)         =         2.090360	     119.768778
	 B(3,9,8)         =         2.096688	     120.131368
	 B(4,7,12)        =         2.165748	     124.088244
	 B(4,7,21)        =         2.106934	     120.718398
	 B(4,9,8)         =         2.096137	     120.099801
	 B(5,10,13)       =         2.094633	     120.013619
	 B(5,11,8)        =         2.095181	     120.045019
	 B(5,11,14)       =         2.081414	     119.256220
	 B(6,3,9)         =         2.057951	     117.911879
	 B(6,3,17)        =         2.097547	     120.180619
	 B(6,12,7)        =         2.030687	     116.349775
	 B(7,4,9)         =         2.056717	     117.841197
	 B(7,4,18)        =         2.100098	     120.326778
	 B(8,1,15)        =         2.108776	     120.823969
	 B(8,11,14)       =         2.106591	     120.698759
	 B(9,3,17)        =         2.127687	     121.907480
	 B(9,4,18)        =         2.126369	     121.831998
	 B(9,8,11)        =         2.097924	     120.202184
	 B(10,2,16)       =         2.099909	     120.315896
	 B(10,5,11)       =         2.093699	     119.960108
	 B(10,5,19)       =         2.100355	     120.341451
	 B(10,13,22)      =         1.924294	     110.253909
	 B(11,5,19)       =         2.089132	     119.698439
	 B(12,6,20)       =         2.009698	     115.147209
	 B(12,7,21)       =         2.010503	     115.193356
	 D(1,2,10,5)      =        -0.000325	      -0.018609
	 D(1,2,10,13)     =         3.141388	     179.988267
	 D(1,8,9,3)       =        -0.261827	     -15.001560
	 D(1,8,9,4)       =         2.878294	     164.914091
	 D(1,8,11,5)      =         0.000325	       0.018608
	 D(1,8,11,14)     =        -3.141528	    -179.996269
	 D(2,1,8,9)       =         3.141277	     179.981897
	 D(2,1,8,11)      =        -0.000348	      -0.019945
	 D(2,10,5,11)     =         0.000301	       0.017261
	 D(2,10,5,19)     =        -3.141029	    -179.967685
	 D(2,10,13,22)    =         3.141285	     179.982383
	 D(3,6,12,7)      =         0.000752	       0.043092
	 D(3,9,4,7)       =        -0.000565	      -0.032401
	 D(3,9,4,18)      =        -3.141109	    -179.972283
	 D(3,9,8,11)      =         2.879798	     165.000285
	 D(4,7,12,6)      =        -0.001013	      -0.058027
	 D(4,9,3,6)       =         0.000333	       0.019076
	 D(4,9,3,17)      =        -3.140318	    -179.926943
	 D(4,9,8,11)      =        -0.263267	     -15.084063
	 D(5,10,2,16)     =         3.140149	     179.917291
	 D(5,10,13,22)    =        -0.000187	      -0.010740
	 D(5,11,8,9)      =        -3.141300	    -179.983240
	 D(6,3,9,8)       =         3.140458	     179.935008
	 D(6,12,7,21)     =         3.140860	     179.958043
	 D(7,4,9,8)       =        -3.140691	    -179.948359
	 D(7,12,6,20)     =         3.140212	     179.920923
	 D(8,1,2,10)      =         0.000348	       0.019955
	 D(8,1,2,16)      =        -3.140133	    -179.916358
	 D(8,9,3,17)      =        -0.000192	      -0.011011
	 D(8,9,4,18)      =         0.001951	       0.111758
	 D(8,11,5,10)     =        -0.000301	      -0.017270
	 D(8,11,5,19)     =         3.141030	     179.967774
	 D(9,3,6,12)      =        -0.000440	      -0.025207
	 D(9,3,6,20)      =        -3.139785	    -179.896441
	 D(9,4,7,12)      =         0.000943	       0.054003
	 D(9,4,7,21)      =        -3.140945	    -179.962912
	 D(9,8,1,15)      =         0.000403	       0.023110
	 D(9,8,11,14)     =         0.000033	       0.001883
	 D(10,2,1,15)     =         3.141234	     179.979432
	 D(10,5,11,14)    =         3.141547	     179.997392
	 D(11,5,10,13)    =        -3.141411	    -179.989616
	 D(11,8,1,15)     =        -3.141221	    -179.978731
	 D(12,6,3,17)     =         3.140228	     179.921783
	 D(12,7,4,18)     =         3.141502	     179.994830
	 D(13,10,2,16)    =        -0.001324	      -0.075833
	 D(13,10,5,19)    =         0.000444	       0.025437
	 D(14,11,5,19)    =        -0.000307	      -0.017564
	 D(15,1,2,16)     =         0.000753	       0.043120
	 D(17,3,6,20)     =         0.000882	       0.050549
	 D(18,4,7,21)     =        -0.000385	      -0.022085
	 R(4,14)          =         4.777065	       2.527914

	Current energy   :      -652.8622507861

	Generating empirical Hessian (Schlegel '84) for each fragment.
	Adding user-defined constraint: Fragment 1; Coordinate 61:
		Value =    -0.261827; Fixed value    =    -0.261799
		Force =     0.000014; Force constant =     0.500000
	Removing off-diagonal coupling between coordinate 61 and others.
	Taking RFO optimization step.
	Going to follow RFO solution 1.
	Using RFO vector 1.

	Determining step-restricting scale parameter for RS-RFO.
	Maximum step size allowed    0.10000

	 Iter      |step|        alpha        rfo_root  
	------------------------------------------------
	    0     0.45563       1.00000           1
	    1     0.29730       3.71819           1
	    2     0.20221      10.70448           1
	    3     0.14596      25.19058           1
	    4     0.11542      45.57421           1
	    5     0.10273      60.66735           1
	    6     0.10011      64.59441           1
	    7     0.10000      64.77186           1
	------------------------------------------------
	Norm of target step-size    0.10000
	Projected energy change by RFO approximation:        -0.0067616571

	Back-transformation to cartesian coordinates...
	Could not converge backtransformation.
	Using first guess instead.

	--- Internal Coordinate Step in ANG or DEG, aJ/ANG or AJ/DEG ---
	 ---------------------------------------------------------------------------
	   Coordinate                Previous        Force       Change         New 
	   ----------                --------       ------       ------       ------
	    1 R(1,2)          =      1.394038    -0.068317    -0.004806     1.389232
	    2 R(1,8)          =      1.394891     0.013136     0.001259     1.396150
	    3 R(1,15)         =      1.087431    -0.075577    -0.006021     1.081410
	    4 R(2,10)         =      1.394821    -0.086347    -0.006195     1.388627
	    5 R(2,16)         =      1.087214    -0.048964    -0.003906     1.083308
	    6 R(3,6)          =      1.385338    -0.013746    -0.001017     1.384322
	    7 R(3,9)          =      1.389831     0.038031     0.003094     1.392925
	    8 R(3,17)         =      1.085826    -0.060389    -0.004787     1.081039
	    9 R(4,7)          =      1.385250     0.016145     0.001166     1.386416
	   10 R(4,9)          =      1.390764     0.062699     0.004824     1.395588
	   11 R(4,18)         =      1.085059    -0.137774    -0.010853     1.074206
	   12 R(5,10)         =      1.395407    -0.064691    -0.004652     1.390756
	   13 R(5,11)         =      1.394521    -0.112491    -0.007838     1.386683
	   14 R(5,19)         =      1.086545    -0.035516    -0.002792     1.083753
	   15 R(6,12)         =      1.351590    -0.132647    -0.008885     1.342705
	   16 R(6,20)         =      1.085140    -0.022676    -0.001810     1.083330
	   17 R(7,12)         =      1.351852    -0.131691    -0.008764     1.343088
	   18 R(7,21)         =      1.085643    -0.026350    -0.002109     1.083534
	   19 R(8,9)          =      1.447320     0.170298     0.013513     1.460833
	   20 R(8,11)         =      1.394821    -0.071776    -0.004510     1.390311
	   21 R(10,13)        =      1.361638    -0.027777    -0.001772     1.359866
	   22 R(11,14)        =      1.341125    -0.038571    -0.002413     1.338712
	   23 R(13,22)        =      0.970316    -0.074598    -0.004884     0.965432
	   24 B(1,2,10)       =    120.009056    -0.000081    -0.095362   119.913694
	   25 B(1,2,16)       =    119.675016     0.000254     0.313388   119.988405
	   26 B(1,8,9)        =    119.838095     0.001305     1.313306   121.151401
	   27 B(1,8,11)       =    119.959722    -0.001524    -1.665360   118.294361
	   28 B(2,1,8)        =    120.031219     0.000752     0.881639   120.912858
	   29 B(2,1,15)       =    119.144799    -0.000396    -0.469378   118.675421
	   30 B(2,10,5)       =    119.994870    -0.000127    -0.157863   119.837007
	   31 B(2,10,13)      =    119.991510    -0.000705    -0.752660   119.238850
	   32 B(3,6,12)       =    124.040100     0.000078     0.032936   124.073036
	   33 B(3,6,20)       =    120.812577    -0.000112    -0.107305   120.705273
	   34 B(3,9,4)        =    119.768778    -0.001360    -1.415045   118.353733
	   35 B(3,9,8)        =    120.131368     0.000580     0.534827   120.666195
	   36 B(4,7,12)       =    124.088244     0.000321     0.331859   124.420103
	   37 B(4,7,21)       =    120.718398    -0.000216    -0.234332   120.484065
	   38 B(4,9,8)        =    120.099801     0.000780     0.880000   120.979801
	   39 B(5,10,13)      =    120.013619     0.000831     0.910518   120.924137
	   40 B(5,11,8)       =    120.045019     0.001190     1.280152   121.325172
	   41 B(5,11,14)      =    119.256220    -0.000370    -0.465117   118.791104
	   42 B(6,3,9)        =    117.911879     0.000678     0.803370   118.715249
	   43 B(6,3,17)       =    120.180619    -0.000464    -0.560488   119.620131
	   44 B(6,12,7)       =    116.349775     0.000010    -0.121566   116.228210
	   45 B(7,4,9)        =    117.841197     0.000272     0.368410   118.209606
	   46 B(7,4,18)       =    120.326778    -0.000632    -0.811663   119.515115
	   47 B(8,1,15)       =    120.823969    -0.000356    -0.412305   120.411664
	   48 B(8,11,14)      =    120.698759    -0.000820    -0.815446   119.883313
	   49 B(9,3,17)       =    121.907480    -0.000214    -0.242906   121.664574
	   50 B(9,4,18)       =    121.831998     0.000361     0.443008   122.275006
	   51 B(9,8,11)       =    120.202184     0.000218     0.351915   120.554098
	   52 B(10,2,16)      =    120.315896    -0.000173    -0.218019   120.097878
	   53 B(10,5,11)      =    119.960108    -0.000211    -0.243246   119.716863
	   54 B(10,5,19)      =    120.341451     0.000183     0.217226   120.558677
	   55 B(10,13,22)     =    110.253909    -0.000352    -0.436620   109.817289
	   56 B(11,5,19)      =    119.698439     0.000028     0.026003   119.724441
	   57 B(12,6,20)      =    115.147209     0.000034     0.074416   115.221624
	   58 B(12,7,21)      =    115.193356    -0.000106    -0.097547   115.095809
	   59 D(1,2,10,5)     =     -0.018609     0.000001    -0.000030    -0.018639
	   60 D(1,2,10,13)    =    179.988267     0.000002     0.019774   180.008041
	   61 D(1,8,9,3)      =    -15.001560    -0.000035    -0.182266   -15.183827
	   62 D(1,8,9,4)      =    164.914091    -0.000045    -0.290622   164.623470
	   63 D(1,8,11,5)     =      0.018608    -0.000005    -0.050286    -0.031678
	   64 D(1,8,11,14)    =   -179.996269    -0.000036    -0.271816  -180.268085
	   65 D(2,1,8,9)      =    179.981897    -0.000005    -0.048624   179.933273
	   66 D(2,1,8,11)     =     -0.019945     0.000010     0.088369     0.068424
	   67 D(2,10,5,11)    =      0.017261     0.000005     0.037580     0.054841
	   68 D(2,10,5,19)    =   -179.967685     0.000009     0.072353  -179.895332
	   69 D(2,10,13,22)   =    179.982383    -0.000001    -0.010680   179.971704
	   70 D(3,6,12,7)     =      0.043092    -0.000003    -0.028466     0.014626
	   71 D(3,9,4,7)      =     -0.032401    -0.000002    -0.032463    -0.064863
	   72 D(3,9,4,18)     =   -179.972283    -0.000037    -0.283679  -180.255961
	   73 D(3,9,8,11)     =    165.000285    -0.000050    -0.322305   164.677981
	   74 D(4,7,12,6)     =     -0.058027     0.000010     0.076723     0.018696
	   75 D(4,9,3,6)      =      0.019076     0.000008     0.076028     0.095103
	   76 D(4,9,3,17)     =   -179.926943    -0.000010    -0.055921  -179.982864
	   77 D(4,9,8,11)     =    -15.084063    -0.000060    -0.430660   -15.514722
	   78 D(5,10,2,16)    =    179.917291     0.000002     0.008845   179.926137
	   79 D(5,10,13,22)   =     -0.010740     0.000001     0.009421    -0.001318
	   80 D(5,11,8,9)     =   -179.983240     0.000010     0.085874  -179.897366
	   81 D(6,3,9,8)      =    179.935008    -0.000001    -0.027641   179.907367
	   82 D(6,12,7,21)    =    179.958043     0.000016     0.115022   180.073065
	   83 D(7,4,9,8)      =   -179.948359     0.000007     0.071847  -179.876513
	   84 D(7,12,6,20)    =    179.920923     0.000001    -0.000207   179.920716
	   85 D(8,1,2,10)     =      0.019955    -0.000008    -0.063867    -0.043912
	   86 D(8,1,2,16)     =   -179.916358    -0.000010    -0.072390  -179.988748
	   87 D(8,9,3,17)     =     -0.011011    -0.000020    -0.159589    -0.170601
	   88 D(8,9,4,18)     =      0.111758    -0.000028    -0.179369    -0.067611
	   89 D(8,11,5,10)    =     -0.017270    -0.000003    -0.012196    -0.029466
	   90 D(8,11,5,19)    =    179.967774    -0.000007    -0.046647   179.921127
	   91 D(9,3,6,12)     =     -0.025207    -0.000006    -0.047290    -0.072496
	   92 D(9,3,6,20)     =   -179.896441    -0.000010    -0.077245  -179.973686
	   93 D(9,4,7,12)     =      0.054003    -0.000007    -0.046588     0.007415
	   94 D(9,4,7,21)     =   -179.962912    -0.000013    -0.086807  -180.049719
	   95 D(9,8,1,15)     =      0.023110    -0.000023    -0.178152    -0.155042
	   96 D(9,8,11,14)    =      0.001883    -0.000021    -0.135656    -0.133773
	   97 D(10,2,1,15)    =    179.979432     0.000010     0.063467   180.042899
	   98 D(10,5,11,14)   =    179.997392     0.000028     0.207029   180.204422
	   99 D(11,5,10,13)   =   -179.989616     0.000003     0.017319  -179.972297
	  100 D(11,8,1,15)    =   -179.978731    -0.000008    -0.041159  -180.019891
	  101 D(12,6,3,17)    =    179.921783     0.000013     0.082057   180.003840
	  102 D(12,7,4,18)    =    179.994830     0.000028     0.198252   180.193082
	  103 D(13,10,2,16)   =     -0.075833     0.000004     0.028649    -0.047184
	  104 D(13,10,5,19)   =      0.025437     0.000007     0.052093     0.077530
	  105 D(14,11,5,19)   =     -0.017564     0.000024     0.172578     0.155014
	  106 D(15,1,2,16)    =      0.043120     0.000008     0.054943     0.098063
	  107 D(17,3,6,20)    =      0.050549     0.000008     0.052102     0.102651
	  108 D(18,4,7,21)    =     -0.022085     0.000022     0.158033     0.135948
	  109 R(4,14)         =      2.527914     0.191651     0.025141     2.553055
	 ---------------------------------------------------------------------------
	Successfully symmetrized geometry.
	 Forces used to impose fixed constraints are not included.
	  Forces zeroed: 61 

  ==> Convergence Check <==

  Measures of convergence in internal coordinates in au.
  Criteria marked as inactive (o), active & met (*), and active & unmet ( ).
  --------------------------------------------------------------------------------------------- ~
   Step     Total Energy     Delta E     MAX Force     RMS Force      MAX Disp      RMS Disp    ~
  --------------------------------------------------------------------------------------------- ~
    Convergence Criteria    1.00e-06 *    3.00e-04 *             o    1.20e-03 *             o  ~
  --------------------------------------------------------------------------------------------- ~
      1    -652.86225079   -6.53e+02      2.33e-02      6.76e-03 o    4.75e-02      9.60e-03 o  ~
  ---------------------------------------------------------------------------------------------

	Writing optimization data to binary file.
	Structure for next step:
	Cartesian Geometry (in Angstrom)
	    C    -1.3407965840   0.7689338907  -0.7809797365
	    C    -2.4140355922   1.3391106779  -0.1079112705
	    C     0.7619379713  -0.7085232806  -2.1477108442
	    C     2.0174505070  -0.7492908337  -0.1089981444
	    C    -1.4190653539   0.7147782100   1.9907655605
	    C     1.8577234945  -1.2780610758  -2.7731923330
	    C     3.0549008347  -1.3169872301  -0.8325779597
	    C    -0.2937267812   0.1662378920  -0.0812386499
	    C     0.8366156981  -0.4361595508  -0.7837163696
	    C    -2.4541140737   1.3127121331   1.2798857679
	    C    -0.3527702953   0.1496654665   1.3077190594
	    N     3.0039711783  -1.5889777923  -2.1468505512
	    O    -3.5112601675   1.8747854406   1.9246734551
	    F     0.6314256689  -0.4246358632   2.0103475893
	    H    -1.3296891873   0.8014297951  -1.8618443710
	    H    -3.2185774123   1.8026922448  -0.6659081277
	    H    -0.1264213340  -0.4875535782  -2.7227203356
	    H     2.1448627890  -0.5625226014   0.9411460442
	    H    -1.4392295461   0.6860693639   3.0739507859
	    H     1.8348910496  -1.5029887241  -3.8326683023
	    H     3.9882656373  -1.5739776221  -0.3459238053
	    H    -3.4007225870   1.7797456521   2.8790361315
			--------------------------
			 OPTKING Finished Execution 
			--------------------------

    Structure for next step:
    Molecular point group: c1
    Full point group: C1

    Geometry (in Angstrom), charge = 0, multiplicity = 1:

    C           -1.337566473464     0.768043563413    -0.780480673260
    C           -2.410805481680     1.338220350601    -0.107412207294
    C            0.765168081869    -0.709413607862    -2.147211781011
    C            2.020680617586    -0.750181161040    -0.108499081253
    C           -1.415835243314     0.713887882669     1.991264623716
    C            1.860953605074    -1.278951403147    -2.772693269832
    C            3.058130945285    -1.317877557378    -0.832078896482
    C           -0.290496670642     0.165347564706    -0.080739586738
    C            0.839845808620    -0.437049878073    -0.783217306390
    C           -2.450883963147     1.311821805794     1.280384831114
    C           -0.349540184722     0.148775139146     1.308218122639
    N            3.007201288851    -1.589868119642    -2.146351488040
    O           -3.508030056935     1.873895113343     1.925172518247
    F            0.634655779485    -0.425526190502     2.010846652442
    H           -1.326459076769     0.800539467768    -1.861345307776
    H           -3.215347301781     1.801801917479    -0.665409064461
    H           -0.123191223438    -0.488443905478    -2.722221272448
    H            2.148092899555    -0.563412928710     0.941645107426
    H           -1.435999435493     0.685179036604     3.074449849092
    H            1.838121160207    -1.503879051356    -3.832169239087
    H            3.991495747906    -1.574867949446    -0.345424742129
    H           -3.397492476418     1.778855324749     2.879535194716

gradient() will perform analytic gradient computation.

*** tstart() called on gpu-1-10.local
*** at Sat Nov 11 23:13:40 2017

    SCF Algorithm Type (re)set to DF.

*** tstart() called on gpu-1-10.local
*** at Sat Nov 11 23:13:40 2017

   => Loading Basis Set <=

    Name: AUG-CC-PVTZ
    Role: ORBITAL
    Keyword: BASIS
    atoms 1-11  entry C          line   221 file /cbio/jclab/home/chayas/anaconda/envs/py35/share/psi4/basis/aug-cc-pvtz.gbs 
    atoms 12    entry N          line   267 file /cbio/jclab/home/chayas/anaconda/envs/py35/share/psi4/basis/aug-cc-pvtz.gbs 
    atoms 13    entry O          line   313 file /cbio/jclab/home/chayas/anaconda/envs/py35/share/psi4/basis/aug-cc-pvtz.gbs 
    atoms 14    entry F          line   359 file /cbio/jclab/home/chayas/anaconda/envs/py35/share/psi4/basis/aug-cc-pvtz.gbs 
    atoms 15-22 entry H          line    34 file /cbio/jclab/home/chayas/anaconda/envs/py35/share/psi4/basis/aug-cc-pvtz.gbs 


         ---------------------------------------------------------
                                   SCF
            by Justin Turney, Rob Parrish, and Andy Simmonett
                              RHF Reference
                        8 Threads,   4768 MiB Core
         ---------------------------------------------------------

  ==> Geometry <==

    Molecular point group: c1
    Full point group: C1

    Geometry (in Angstrom), charge = 0, multiplicity = 1:

       Center              X                  Y                   Z               Mass       
    ------------   -----------------  -----------------  -----------------  -----------------
           C         -1.337566473464     0.768043563413    -0.780480673260    12.000000000000
           C         -2.410805481680     1.338220350601    -0.107412207294    12.000000000000
           C          0.765168081869    -0.709413607862    -2.147211781011    12.000000000000
           C          2.020680617586    -0.750181161040    -0.108499081253    12.000000000000
           C         -1.415835243314     0.713887882669     1.991264623716    12.000000000000
           C          1.860953605074    -1.278951403147    -2.772693269832    12.000000000000
           C          3.058130945285    -1.317877557378    -0.832078896482    12.000000000000
           C         -0.290496670642     0.165347564706    -0.080739586738    12.000000000000
           C          0.839845808620    -0.437049878073    -0.783217306390    12.000000000000
           C         -2.450883963147     1.311821805794     1.280384831114    12.000000000000
           C         -0.349540184722     0.148775139146     1.308218122639    12.000000000000
           N          3.007201288851    -1.589868119642    -2.146351488040    14.003074004780
           O         -3.508030056935     1.873895113343     1.925172518247    15.994914619560
           F          0.634655779485    -0.425526190502     2.010846652442    18.998403224000
           H         -1.326459076769     0.800539467768    -1.861345307776     1.007825032070
           H         -3.215347301781     1.801801917479    -0.665409064461     1.007825032070
           H         -0.123191223438    -0.488443905478    -2.722221272448     1.007825032070
           H          2.148092899555    -0.563412928710     0.941645107426     1.007825032070
           H         -1.435999435493     0.685179036604     3.074449849092     1.007825032070
           H          1.838121160207    -1.503879051356    -3.832169239087     1.007825032070
           H          3.991495747906    -1.574867949446    -0.345424742129     1.007825032070
           H         -3.397492476418     1.778855324749     2.879535194716     1.007825032070

  Running in c1 symmetry.

  Rotational constants: A =      0.06418  B =      0.01344  C =      0.01117 [cm^-1]
  Rotational constants: A =   1924.03440  B =    402.85011  C =    334.91178 [MHz]
  Nuclear repulsion =  817.005416330991352

  Charge       = 0
  Multiplicity = 1
  Electrons    = 98
  Nalpha       = 49
  Nbeta        = 49

  ==> Algorithm <==

  SCF Algorithm Type is DF.
  DIIS enabled.
  MOM disabled.
  Fractional occupation disabled.
  Guess Type is READ.
  Energy threshold   = 1.00e-10
  Density threshold  = 1.00e-10
  Integral threshold = 0.00e+00

  ==> Primary Basis <==

  Basis Set: AUG-CC-PVTZ
    Blend: AUG-CC-PVTZ
    Number of shells: 268
    Number of basis function: 828
    Number of Cartesian functions: 970
    Spherical Harmonics?: true
    Max angular momentum: 3

   => Loading Basis Set <=

    Name: (AUG-CC-PVTZ AUX)
    Role: JKFIT
    Keyword: DF_BASIS_SCF
    atoms 1-11  entry C          line   161 file /cbio/jclab/home/chayas/anaconda/envs/py35/share/psi4/basis/aug-cc-pvtz-jkfit.gbs 
    atoms 12    entry N          line   223 file /cbio/jclab/home/chayas/anaconda/envs/py35/share/psi4/basis/aug-cc-pvtz-jkfit.gbs 
    atoms 13    entry O          line   285 file /cbio/jclab/home/chayas/anaconda/envs/py35/share/psi4/basis/aug-cc-pvtz-jkfit.gbs 
    atoms 14    entry F          line   347 file /cbio/jclab/home/chayas/anaconda/envs/py35/share/psi4/basis/aug-cc-pvtz-jkfit.gbs 
    atoms 15-22 entry H          line    69 file /cbio/jclab/home/chayas/anaconda/envs/py35/share/psi4/basis/aug-cc-pvtz-jkfit.gbs 

  Reading orbitals from file 180, no projection.

  ==> Pre-Iterations <==

   -------------------------------------------------------
    Irrep   Nso     Nmo     Nalpha   Nbeta   Ndocc  Nsocc
   -------------------------------------------------------
     A        828     828       0       0       0       0
   -------------------------------------------------------
    Total     828     828      49      49      49       0
   -------------------------------------------------------

  ==> Integral Setup <==

  ==> DFJK: Density-Fitted J/K Matrices <==

    J tasked:                  Yes
    K tasked:                  Yes
    wK tasked:                  No
    OpenMP threads:              8
    Integrals threads:           8
    Memory (MB):              3576
    Algorithm:                Disk
    Integral Cache:           NONE
    Schwarz Cutoff:          1E-12
    Fitting Condition:       1E-12

   => Auxiliary Basis Set <=

  Basis Set: (AUG-CC-PVTZ AUX)
    Blend: AUG-CC-PVTZ-JKFIT
    Number of shells: 532
    Number of basis function: 1824
    Number of Cartesian functions: 2274
    Spherical Harmonics?: true
    Max angular momentum: 4

  Minimum eigenvalue in the overlap matrix is 5.8488390126E-07.
  Using Symmetric Orthogonalization.

  SCF Guess: Orbitals guess was supplied from a previous computation.

  ==> Iterations <==

                           Total Energy        Delta E     RMS |[F,P]|

   @DF-RHF iter   0:  -650.28683319578477   -6.50287e+02   5.84166e-04 
   @DF-RHF iter   1:  -650.16814933823673    1.18684e-01   1.10419e-04 
   @DF-RHF iter   2:  -650.16883764864383   -6.88310e-04   7.73515e-05 DIIS
   @DF-RHF iter   3:  -650.16945913449081   -6.21486e-04   1.52432e-05 DIIS
   @DF-RHF iter   4:  -650.16946931548182   -1.01810e-05   2.87565e-06 DIIS
   @DF-RHF iter   5:  -650.16947088175425   -1.56627e-06   9.25273e-07 DIIS
   @DF-RHF iter   6:  -650.16947110170793   -2.19954e-07   7.13831e-07 DIIS
   @DF-RHF iter   7:  -650.16947117914572   -7.74378e-08   2.29003e-07 DIIS
   @DF-RHF iter   8:  -650.16947120320265   -2.40569e-08   1.21233e-07 DIIS
   @DF-RHF iter   9:  -650.16947120677969   -3.57704e-09   4.97568e-08 DIIS
   @DF-RHF iter  10:  -650.16947120718180   -4.02110e-10   1.28415e-08 DIIS
   @DF-RHF iter  11:  -650.16947120722295   -4.11546e-11   5.03345e-09 DIIS
   @DF-RHF iter  12:  -650.16947120721829    4.66116e-12   2.23885e-09 DIIS
   @DF-RHF iter  13:  -650.16947120722500   -6.70752e-12   1.22493e-09 DIIS
   @DF-RHF iter  14:  -650.16947120723546   -1.04592e-11   5.50246e-10 DIIS
   @DF-RHF iter  15:  -650.16947120723330    2.16005e-12   2.52727e-10 DIIS
   @DF-RHF iter  16:  -650.16947120722352    9.77707e-12   7.71092e-11 DIIS

  ==> Post-Iterations <==

    Orbital Energies (a.u.)
    -----------------------

    Doubly Occupied:                                                      

       1A    -26.333072     2A    -20.612728     3A    -15.558289  
       4A    -11.351972     5A    -11.330383     6A    -11.270212  
       7A    -11.267775     8A    -11.267694     9A    -11.266566  
      10A    -11.256601    11A    -11.255437    12A    -11.246436  
      13A    -11.236074    14A    -11.227581    15A     -1.657671  
      16A     -1.429473    17A     -1.250678    18A     -1.185833  
      19A     -1.110455    20A     -1.046616    21A     -1.031244  
      22A     -1.022966    23A     -0.897827    24A     -0.881364  
      25A     -0.853749    26A     -0.828726    27A     -0.775968  
      28A     -0.757084    29A     -0.725490    30A     -0.720568  
      31A     -0.707334    32A     -0.677147    33A     -0.653601  
      34A     -0.640336    35A     -0.630593    36A     -0.614031  
      37A     -0.612521    38A     -0.591444    39A     -0.579643  
      40A     -0.547796    41A     -0.542072    42A     -0.538629  
      43A     -0.508813    44A     -0.501836    45A     -0.414399  
      46A     -0.405451    47A     -0.363402    48A     -0.345239  
      49A     -0.312348  

    Virtual:                                                              

      50A      0.020836    51A      0.028052    52A      0.034919  
      53A      0.039888    54A      0.044406    55A      0.049732  
      56A      0.057199    57A      0.060412    58A      0.072535  
      59A      0.076711    60A      0.081027    61A      0.083572  
      62A      0.090015    63A      0.092397    64A      0.097820  
      65A      0.101497    66A      0.104132    67A      0.109601  
      68A      0.110785    69A      0.112008    70A      0.116471  
      71A      0.119294    72A      0.127004    73A      0.130628  
      74A      0.133546    75A      0.136951    76A      0.138534  
      77A      0.141154    78A      0.143719    79A      0.144475  
      80A      0.151118    81A      0.152314    82A      0.156772  
      83A      0.164699    84A      0.166123    85A      0.171706  
      86A      0.176674    87A      0.181082    88A      0.185807  
      89A      0.188312    90A      0.194988    91A      0.201874  
      92A      0.207383    93A      0.211907    94A      0.220519  
      95A      0.224008    96A      0.227424    97A      0.229026  
      98A      0.233557    99A      0.238833   100A      0.243850  
     101A      0.247701   102A      0.248286   103A      0.254702  
     104A      0.257716   105A      0.262751   106A      0.264343  
     107A      0.268517   108A      0.271236   109A      0.276827  
     110A      0.279751   111A      0.283805   112A      0.288541  
     113A      0.293554   114A      0.298579   115A      0.303404  
     116A      0.304962   117A      0.306301   118A      0.314241  
     119A      0.317916   120A      0.320933   121A      0.326183  
     122A      0.327198   123A      0.333750   124A      0.341042  
     125A      0.345125   126A      0.345266   127A      0.350104  
     128A      0.356269   129A      0.363539   130A      0.372305  
     131A      0.372936   132A      0.383636   133A      0.387385  
     134A      0.390970   135A      0.395644   136A      0.400679  
     137A      0.405181   138A      0.408521   139A      0.413070  
     140A      0.423436   141A      0.424236   142A      0.427186  
     143A      0.430164   144A      0.432852   145A      0.434161  
     146A      0.438586   147A      0.447300   148A      0.448505  
     149A      0.448872   150A      0.455958   151A      0.457546  
     152A      0.465668   153A      0.467105   154A      0.471116  
     155A      0.472238   156A      0.477854   157A      0.480692  
     158A      0.487408   159A      0.490298   160A      0.491990  
     161A      0.499675   162A      0.501692   163A      0.503402  
     164A      0.506658   165A      0.509995   166A      0.510474  
     167A      0.513236   168A      0.515768   169A      0.523188  
     170A      0.525215   171A      0.529206   172A      0.536358  
     173A      0.537237   174A      0.543535   175A      0.547808  
     176A      0.552175   177A      0.557322   178A      0.559634  
     179A      0.569754   180A      0.570343   181A      0.574053  
     182A      0.576677   183A      0.589589   184A      0.593260  
     185A      0.594136   186A      0.599470   187A      0.604366  
     188A      0.618239   189A      0.623348   190A      0.624633  
     191A      0.636182   192A      0.637473   193A      0.646257  
     194A      0.652904   195A      0.661526   196A      0.662292  
     197A      0.676640   198A      0.684305   199A      0.688108  
     200A      0.692845   201A      0.693868   202A      0.699562  
     203A      0.704369   204A      0.707550   205A      0.715757  
     206A      0.722487   207A      0.725186   208A      0.730263  
     209A      0.741003   210A      0.746654   211A      0.748822  
     212A      0.750323   213A      0.758401   214A      0.769414  
     215A      0.769906   216A      0.778960   217A      0.784211  
     218A      0.788536   219A      0.792380   220A      0.805210  
     221A      0.809044   222A      0.811591   223A      0.815468  
     224A      0.822335   225A      0.826993   226A      0.831633  
     227A      0.843340   228A      0.844257   229A      0.856936  
     230A      0.860996   231A      0.862751   232A      0.863687  
     233A      0.868012   234A      0.876192   235A      0.884275  
     236A      0.889468   237A      0.894794   238A      0.896421  
     239A      0.898282   240A      0.902566   241A      0.908765  
     242A      0.914499   243A      0.920125   244A      0.921869  
     245A      0.930909   246A      0.935447   247A      0.939619  
     248A      0.944286   249A      0.950327   250A      0.952267  
     251A      0.959176   252A      0.962011   253A      0.968677  
     254A      0.969948   255A      0.971673   256A      0.977049  
     257A      0.978602   258A      0.980077   259A      0.988200  
     260A      0.992324   261A      0.994701   262A      1.004864  
     263A      1.007886   264A      1.012375   265A      1.015274  
     266A      1.025386   267A      1.028384   268A      1.032989  
     269A      1.035161   270A      1.039549   271A      1.043727  
     272A      1.045475   273A      1.051658   274A      1.054174  
     275A      1.060406   276A      1.065437   277A      1.069684  
     278A      1.076157   279A      1.077825   280A      1.089105  
     281A      1.092137   282A      1.094297   283A      1.098651  
     284A      1.103046   285A      1.114135   286A      1.117095  
[...]
	 --------------------------------------------------------

   => Auxiliary Basis Set <=

  Basis Set: (AUG-CC-PVTZ AUX)
    Blend: AUG-CC-PVTZ-RI
    Number of shells: 504
    Number of basis function: 1852
    Number of Cartesian functions: 2344
    Spherical Harmonics?: true
    Max angular momentum: 4

	 --------------------------------------------------------
	                 NBF =   828, NAUX =  1852
	 --------------------------------------------------------
	   CLASS    FOCC     OCC    AOCC    AVIR     VIR    FVIR
	   PAIRS       0      49      49     779     779       0
	 --------------------------------------------------------


         ------------------------------------------------------------
                                     CPHF                           
                                  Rob Parrish                       
         ------------------------------------------------------------

  ==> Geometry <==

    Molecular point group: c1
    Full point group: C1

    Geometry (in Angstrom), charge = 0, multiplicity = 1:

       Center              X                  Y                   Z               Mass       
    ------------   -----------------  -----------------  -----------------  -----------------
           C         -1.336204617098     0.772882381101    -0.764602520196    12.000000000000
           C         -2.409509699473     1.341860291056    -0.099648528746    12.000000000000
           C          0.778545017493    -0.715713946453    -2.138305909073    12.000000000000
           C          2.041896539777    -0.755263228025    -0.117642004521    12.000000000000
           C         -1.425049516251     0.715009680076     1.996423333944    12.000000000000
           C          1.866837719453    -1.285344163241    -2.774983235295    12.000000000000
           C          3.072983558626    -1.322546909824    -0.852062639351    12.000000000000
           C         -0.284545172865     0.166657654269    -0.075836738875    12.000000000000
           C          0.850080018188    -0.438853090777    -0.774582329237    12.000000000000
           C         -2.455930759169     1.314162059957     1.285986473927    12.000000000000
           C         -0.365209275599     0.156272474483     1.309932900740    12.000000000000
           N          3.012612859697    -1.594894149472    -2.159632918027    14.003074004780
           O         -3.522715195228     1.880540732176     1.909494905260    15.994914619560
           F          0.612941698098    -0.424928972851     2.017387891023    18.998403224000
           H         -1.322233391847     0.809031468854    -1.842489973720     1.007825032070
           H         -3.210885959273     1.806525390903    -0.654766958056     1.007825032070
           H         -0.110926530060    -0.498338097986    -2.708758197218     1.007825032070
           H          2.193058726962    -0.570440985578     0.924527728360     1.007825032070
           H         -1.441440202672     0.678628564355     3.076908668053     1.007825032070
           H          1.828520020534    -1.508242548043    -3.833247037022     1.007825032070
           H          4.007748002448    -1.575162302185    -0.368894907652     1.007825032070
           H         -3.424208079249     1.788542861687     2.862625647922     1.007825032070

  Nuclear repulsion =  816.662064931583700
  Reference energy  = -650.174221627104885

  ==> Basis Set <==

  Basis Set: AUG-CC-PVTZ
    Blend: AUG-CC-PVTZ
    Number of shells: 268
    Number of basis function: 828
    Number of Cartesian functions: 970
    Spherical Harmonics?: true
    Max angular momentum: 3

  ==> CGRSolver (by Rob Parrish) <==

   Number of roots    =         1
   Preconditioning    =    JACOBI
   Convergence cutoff =     1E-06
   Maximum iterations =       100

  ==> CPHFRHamiltonian (by Rob Parrish) <== 

  ==> DFJK: Density-Fitted J/K Matrices <==

    J tasked:                  Yes
    K tasked:                  Yes
    wK tasked:                  No
    OpenMP threads:              8
    Integrals threads:           8
    Memory (MB):              3576
    Algorithm:                Disk
    Integral Cache:           NONE
    Schwarz Cutoff:          1E-12
    Fitting Condition:       1E-12

   => Auxiliary Basis Set <=

  Basis Set: (AUG-CC-PVTZ AUX)
    Blend: AUG-CC-PVTZ-JKFIT
    Number of shells: 532
    Number of basis function: 1824
    Number of Cartesian functions: 2274
    Spherical Harmonics?: true
    Max angular momentum: 4

  ==> CPHF Iterations <==

  => Iterations <=

             Iter  Converged  Remaining    Residual
  CGR           1          0          1   1.047E-01
  CGR           2          0          1   3.627E-02
  CGR           3          0          1   2.500E-02
  CGR           4          0          1   1.023E-02
  CGR           5          0          1   4.349E-03
  CGR           6          0          1   1.666E-03
  CGR           7          0          1   4.754E-04
  CGR           8          0          1   1.543E-04
  CGR           9          0          1   4.924E-05
  CGR          10          0          1   1.383E-05
  CGR          11          0          1   5.906E-06
  CGR          12          0          1   2.023E-06
  CGR          13          0          1   1.026E-06
  CGR          14          1          0   4.561E-07

    CGRSolver converged.

  ==> DFCorrGrad: Density-Fitted Correlated Gradients <==

    OpenMP threads:              8
    Integrals threads:           8
    Memory (MB):              3576
    Schwarz Cutoff:          0E+00
    Fitting Condition:       1E-12

   => Auxiliary Basis Set <=

  Basis Set: (AUG-CC-PVTZ AUX)
    Blend: AUG-CC-PVTZ-JKFIT
    Number of shells: 532
    Number of basis function: 1824
    Number of Cartesian functions: 2274
    Spherical Harmonics?: true
    Max angular momentum: 4

	-----------------------------------------------------------
	 ==================> DF-MP2 Energies <==================== 
	-----------------------------------------------------------
	 Reference Energy          =    -650.1742216271048846 [Eh]
	 Singles Energy            =      -0.0000000000000006 [Eh]
	 Same-Spin Energy          =      -0.6778728749343905 [Eh]
	 Opposite-Spin Energy      =      -2.0184600528416485 [Eh]
	 Correlation Energy        =      -2.6963329277760395 [Eh]
	 Total Energy              =    -652.8705545548808686 [Eh]
	-----------------------------------------------------------
	 ================> DF-SCS-MP2 Energies <================== 
	-----------------------------------------------------------
	 SCS Same-Spin Scale       =       0.3333333333333333 [-]
	 SCS Opposite-Spin Scale   =       1.2000000000000000 [-]
	 SCS Same-Spin Energy      =      -0.2259576249781302 [Eh]
	 SCS Opposite-Spin Energy  =      -2.4221520634099782 [Eh]
	 SCS Correlation Energy    =      -2.6481096883881090 [Eh]
	 SCS Total Energy          =    -652.8223313154929883 [Eh]
	-----------------------------------------------------------


  -Total Gradient:
     Atom            X                  Y                   Z
    ------   -----------------  -----------------  -----------------
       1        0.004166709313    -0.001544578105    -0.006228360547
       2        0.000317547845    -0.000098108658     0.004334879539
       3       -0.003406217989     0.001064269622    -0.000224486905
       4       -0.006473651779     0.003613041149     0.013254537573
       5       -0.001091768976     0.000852488108    -0.001849305185
       6       -0.002371140436     0.000762199859     0.001682384076
       7       -0.001886840487     0.000786907776     0.002942785717
       8       -0.006550937293     0.003402952699     0.004129310905
       9        0.002897277084    -0.002180938767    -0.003980692271
      10       -0.001923723790     0.001460052557    -0.003527552211
      11        0.008939007584    -0.006273762056     0.003818115372
      12        0.002181304134    -0.000794255145    -0.002244246581
      13        0.001134724024    -0.000820401861     0.001869586639
      14        0.007120910839     0.000402640202    -0.012846404759
      15       -0.000735997594    -0.000766060657    -0.001238133679
      16       -0.000390645153     0.000109698250    -0.001736877537
      17       -0.000640718141     0.001382035610    -0.000459872122
      18       -0.001976049790    -0.000922353849     0.001705004814
      19       -0.000965089243     0.000502095112     0.001051129083
      20        0.001138393526    -0.000504434915    -0.000544408876
      21        0.000903344068    -0.000612199332    -0.000857660869
      22       -0.000386437761     0.000178712405     0.000950267838


*** tstop() called on gpu-1-10.local at Sun Nov 12 00:43:46 2017
Module time:
	user time   =    5722.34 seconds =      95.37 minutes
	system time =     101.97 seconds =       1.70 minutes
	total time  =       2641 seconds =      44.02 minutes
Total time:
	user time   =   17604.72 seconds =     293.41 minutes
	system time =     321.38 seconds =       5.36 minutes
	total time  =       8243 seconds =     137.38 minutes

			-----------------------------------------
			 OPTKING 2.0: for geometry optimizations 
			  - R.A. King,  Bethel University        
			-----------------------------------------

	Previous internal coordinate definitions found.
	---Fragment 1 Geometry and Gradient---
	 C          -2.5250607838        1.4605360332       -1.4448893637
	 C          -4.5533134465        2.5357484587       -0.1883084289
	 C           1.4712368652       -1.3525033483       -4.0408125565
	 C           3.8586252519       -1.4272406592       -0.2223111703
	 C          -2.6929533115        1.3511724777        3.7726933465
	 C           3.5278120243       -2.4289484550       -5.2439583381
	 C           5.8070973367       -2.4992514575       -1.6101650364
	 C          -0.5377124491        0.3149373245       -0.1433106673
	 C           1.6064184254       -0.8293121541       -1.4637484696
	 C          -4.6410365362        2.4834063875        2.4301622463
	 C          -0.6901455121        0.2953121789        2.4754144349
	 N           5.6930132492       -3.0139131534       -4.0811147626
	 O          -6.6569669631        3.5537069655        3.6084224231
	 F           1.1582919448       -0.8029993846        3.8123106178
	 H          -2.4986589943        1.5288479090       -3.4818014529
	 H          -6.0676951070        3.4138382409       -1.2373302316
	 H          -0.2096207627       -0.9417225268       -5.1188111530
	 H           4.1442803873       -1.0779772377        1.7471042089
	 H          -2.7239272200        1.2824221326        5.8145147185
	 H           3.4554020673       -2.8501653578       -7.2437870997
	 H           7.5735461342       -2.9766253660       -0.6971103473
	 H          -6.4708154918        3.3798561855        5.4095784955
	             0.0041667093       -0.0015445781       -0.0062283605
	             0.0003175478       -0.0000981087        0.0043348795
	            -0.0034062180        0.0010642696       -0.0002244869
	            -0.0064736518        0.0036130411        0.0132545376
	            -0.0010917690        0.0008524881       -0.0018493052
	            -0.0023711404        0.0007621999        0.0016823841
	            -0.0018868405        0.0007869078        0.0029427857
	            -0.0065509373        0.0034029527        0.0041293109
	             0.0028972771       -0.0021809388       -0.0039806923
	            -0.0019237238        0.0014600526       -0.0035275522
	             0.0089390076       -0.0062737621        0.0038181154
	             0.0021813041       -0.0007942551       -0.0022442466
	             0.0011347240       -0.0008204019        0.0018695866
	             0.0071209108        0.0004026402       -0.0128464048
	            -0.0007359976       -0.0007660607       -0.0012381337
	            -0.0003906452        0.0001096983       -0.0017368775
	            -0.0006407181        0.0013820356       -0.0004598721
	            -0.0019760498       -0.0009223538        0.0017050048
	            -0.0009650892        0.0005020951        0.0010511291
	             0.0011383935       -0.0005044349       -0.0005444089
	             0.0009033441       -0.0006121993       -0.0008576609
	            -0.0003864378        0.0001787124        0.0009502678

	---Fragment 1 Intrafragment Coordinates---
	 - Coordinate -           - BOHR/RAD -       - ANG/DEG -
	 R(1,2)           =         2.617038	       1.384877
	 R(1,8)           =         2.637434	       1.395670
	 R(1,15)          =         2.038228	       1.078584
	 R(2,10)          =         2.620462	       1.386689
	 R(2,16)          =         2.040794	       1.079942
	 R(3,6)           =         2.614535	       1.383553
	 R(3,9)           =         2.633109	       1.393381
	 R(3,17)          =         2.038653	       1.078808
	 R(4,7)           =         2.621429	       1.387200
	 R(4,9)           =         2.640288	       1.397180
	 R(4,18)          =         2.020441	       1.069171
	 R(5,10)          =         2.622856	       1.387955
	 R(5,11)          =         2.609408	       1.380839
	 R(5,19)          =         2.043213	       1.081222
	 R(6,12)          =         2.526358	       1.336891
	 R(6,20)          =         2.044989	       1.082162
	 R(7,12)          =         2.526556	       1.336996
	 R(7,21)          =         2.044968	       1.082151
	 R(8,9)           =         2.765892	       1.463647
	 R(8,11)          =         2.623231	       1.388154
	 R(10,13)         =         2.568621	       1.359256
	 R(11,14)         =         2.531857	       1.339801
	 R(13,22)         =         1.819077	       0.962614
	 B(1,2,10)        =         2.091542	     119.836531
	 B(1,2,16)        =         2.100261	     120.336067
	 B(1,8,9)         =         2.127306	     121.885656
	 B(1,8,11)        =         2.039935	     116.879643
	 B(2,1,8)         =         2.124087	     121.701207
	 B(2,1,15)        =         2.067026	     118.431850
	 B(2,10,5)        =         2.088894	     119.684795
	 B(2,10,13)       =         2.067255	     118.444973
	 B(3,6,12)        =         2.162365	     123.894396
	 B(3,6,20)        =         2.102456	     120.461849
	 B(3,9,4)         =         2.047641	     117.321163
	 B(3,9,8)         =         2.105565	     120.639965
	 B(4,7,12)        =         2.174280	     124.577045
	 B(4,7,21)        =         2.095703	     120.074942
	 B(4,9,8)         =         2.129963	     122.037900
	 B(5,10,13)       =         2.127036	     121.870211
	 B(5,11,8)        =         2.138709	     122.539010
	 B(5,11,14)       =         2.063911	     118.253388
	 B(6,3,9)         =         2.084958	     119.459274
	 B(6,3,17)        =         2.080787	     119.220303
	 B(6,12,7)        =         2.028275	     116.211595
	 B(7,4,9)         =         2.068847	     118.536202
	 B(7,4,18)        =         2.073344	     118.793873
	 B(8,1,15)        =         2.092065	     119.866481
	 B(8,11,14)       =         2.080530	     119.205570
	 B(9,3,17)        =         2.117433	     121.319988
	 B(9,4,18)        =         2.140960	     122.667958
	 B(9,8,11)        =         2.115929	     121.233797
	 B(10,2,16)       =         2.091383	     119.827391
	 B(10,5,11)       =         2.083200	     119.358541
	 B(10,5,19)       =         2.111542	     120.982463
	 B(10,13,22)      =         1.911401	     109.515228
	 B(11,5,19)       =         2.088442	     119.658925
	 B(12,6,20)       =         2.018364	     115.643735
	 B(12,7,21)       =         2.013202	     115.347950
	 D(1,2,10,5)      =        -0.000476	      -0.027279
	 D(1,2,10,13)     =        -3.141165	    -179.975503
	 D(1,8,9,3)       =        -0.267463	     -15.324523
	 D(1,8,9,4)       =         2.867703	     164.307306
	 D(1,8,11,5)      =        -0.001796	      -0.102883
	 D(1,8,11,14)     =         3.130582	     179.369136
	 D(2,1,8,9)       =         3.138866	     179.843786
	 D(2,1,8,11)      =         0.003242	       0.185774
	 D(2,10,5,11)     =         0.001886	       0.108040
	 D(2,10,5,19)     =        -3.138012	    -179.794871
	 D(2,10,13,22)    =         3.140865	     179.958305
	 D(3,6,12,7)      =        -0.000655	      -0.037508
	 D(3,9,4,7)       =        -0.001873	      -0.107334
	 D(3,9,4,18)      =         3.130700	     179.375920
	 D(3,9,8,11)      =         2.867903	     164.318731
	 D(4,7,12,6)      =         0.002304	       0.132001
	 D(4,9,3,6)       =         0.003373	       0.193259
	 D(4,9,3,17)      =         3.140745	     179.951419
	 D(4,9,8,11)      =        -0.280116	     -16.049440
	 D(5,10,2,16)     =         3.140466	     179.935441
	 D(5,10,13,22)    =         0.000197	       0.011271
	 D(5,11,8,9)      =        -3.137461	    -179.763278
	 D(6,3,9,8)       =         3.138835	     179.841975
	 D(6,12,7,21)     =        -3.137684	    -179.776064
	 D(7,4,9,8)       =        -3.137243	    -179.750791
	 D(7,12,6,20)     =         3.140050	     179.911604
	 D(8,1,2,10)      =        -0.002169	      -0.124302
	 D(8,1,2,16)      =         3.140077	     179.913170
	 D(8,9,3,17)      =        -0.006979	      -0.399865
	 D(8,9,4,18)      =        -0.004669	      -0.267537
	 D(8,11,5,10)     =        -0.000723	      -0.041427
	 D(8,11,5,19)     =         3.139198	     179.862787
	 D(9,3,6,12)      =        -0.002200	      -0.126050
	 D(9,3,6,20)      =         3.140322	     179.927173
	 D(9,4,7,12)      =        -0.001032	      -0.059103
	 D(9,4,7,21)      =         3.138885	     179.844887
	 D(9,8,1,15)      =        -0.007111	      -0.407425
	 D(9,8,11,14)     =        -0.005083	      -0.291258
	 D(10,2,1,15)     =        -3.139438	    -179.876574
	 D(10,5,11,14)    =        -3.133184	    -179.518235
	 D(11,5,10,13)    =        -3.140643	    -179.945566
	 D(11,8,1,15)     =         3.140451	     179.934562
	 D(12,6,3,17)     =        -3.139661	    -179.889327
	 D(12,7,4,18)     =        -3.133961	    -179.562728
	 D(13,10,2,16)    =        -0.000223	      -0.012783
	 D(13,10,5,19)    =         0.002645	       0.151522
	 D(14,11,5,19)    =         0.006737	       0.385980
	 D(15,1,2,16)     =         0.002808	       0.160898
	 D(17,3,6,20)     =         0.002861	       0.163895
	 D(18,4,7,21)     =         0.005956	       0.341262
	 R(4,14)          =         4.894860	       2.590248

	Current energy   :      -652.8705545549

	Energy change for the previous step:
		Projected    :        -0.0031709195
		Actual       :        -0.0029055732

	Performing BFGS update.
	Previous computed or guess Hessian on step 1.
	Steps to be used in Hessian update: 2 1
	Adding user-defined constraint: Fragment 1; Coordinate 61:
		Value =    -0.267463; Fixed value    =    -0.261800
		Force =     0.003115; Force constant =     0.550000
	Removing off-diagonal coupling between coordinate 61 and others.
	Taking RFO optimization step.
	Going to follow RFO solution 1.
	Using RFO vector 1.

	Determining step-restricting scale parameter for RS-RFO.
	Maximum step size allowed    0.10000

	 Iter      |step|        alpha        rfo_root  
	------------------------------------------------
	    0     0.30591       1.00000           1
	    1     0.21031       6.58454           1
	    2     0.15036      19.02574           1
	    3     0.11744      37.16928           1
	    4     0.10335      51.49977           1
	    5     0.10017      55.69861           1
	    6     0.10000      55.93240           1
	------------------------------------------------
	Norm of target step-size    0.10000
	Projected energy change by RFO approximation:        -0.0015487689

	Back-transformation to cartesian coordinates...
	The INTCO_EXCEPTion handler:
	TORS::compute_val: unable to compute torsion value
	Dynamic level is 0.
	exc.g_really_quit() is 0.

  **** Optimization has failed! (in 3 steps) ****
			--------------------------
			 OPTKING Finished Execution 
			--------------------------
	Cleaning optimization helper files.

*** Psi4 exiting successfully. Buy a developer a beer!
