
    -----------------------------------------------------------------------
          Psi4: An Open-Source Ab Initio Electronic Structure Package
                               Psi4 1.1 release

                         Git: Rev {HEAD} add49b9 


    R. M. Parrish, L. A. Burns, D. G. A. Smith, A. C. Simmonett,
    A. E. DePrince III, E. G. Hohenstein, U. Bozkaya, A. Yu. Sokolov,
    R. Di Remigio, R. M. Richard, J. F. Gonthier, A. M. James,
    H. R. McAlexander, A. Kumar, M. Saitow, X. Wang, B. P. Pritchard,
    P. Verma, H. F. Schaefer III, K. Patkowski, R. A. King, E. F. Valeev,
    F. A. Evangelista, J. M. Turney, T. D. Crawford, and C. D. Sherrill,
    J. Chem. Theory Comput. in press (2017).
    (doi: 10.1021/acs.jctc.7b00174)

    -----------------------------------------------------------------------


    Psi4 started on: Tuesday, 14 November 2017 04:12AM

    Process ID:  26064
    PSIDATADIR: /cbio/jclab/home/chayas/anaconda/envs/py35/share/psi4
    Memory:     500.0 MiB
    Threads:    8
    
  ==> Input File <==

--------------------------------------------------------------------------

memory 5 Gb

molecule phepyrFOH_anion {
  symmetry C1
  -1 1 
  C      1.885   -1.036   -0.112
  C      0.807   -0.463   0.561
  C      5.009   -1.414   -0.673
  C      4.145   -3.607   -0.194
  C      1.800   -1.079   2.676
  C      6.059   -2.031   -1.334
  C      5.234   -4.126   -0.876
  C      2.921   -1.631   0.608
  C      4.038   -2.224   -0.095
  C      0.764   -0.484   1.955
  C      2.878   -1.652   2.002
  N      6.197   -3.371   -1.451
  O      -0.227   0.043   2.574
  F      3.866   -2.220   2.709
  H      1.904   -1.013   -1.200
  H      0.011   -0.007   -0.025
  H      4.960   -0.331   -0.616
  H      3.407   -4.271   0.244
  H      1.791   -1.109   3.764
  H      6.843   -1.444   -1.800
  H      5.363   -5.198   -0.982
  units Angstrom
}

dih_string = "1 8 9 3 75"
set optking { opt_coordinates = cartesian
              fixed_dihedral = $dih_string
              dynamic_level = 1
              geom_maxiter = 250
              print_trajectory_xyz_file = True }

optimize('MP2/aug-cc-PVTZ')
--------------------------------------------------------------------------

  Memory set to   4.657 GiB by Python driver.
gradient() will perform analytic gradient computation.

*** tstart() called on gpu-1-15.local
*** at Tue Nov 14 04:12:11 2017

    SCF Algorithm Type (re)set to DF.

*** tstart() called on gpu-1-15.local
*** at Tue Nov 14 04:12:11 2017

   => Loading Basis Set <=

    Name: AUG-CC-PVTZ
    Role: ORBITAL
    Keyword: BASIS
    atoms 1-11  entry C          line   221 file /cbio/jclab/home/chayas/anaconda/envs/py35/share/psi4/basis/aug-cc-pvtz.gbs 
    atoms 12    entry N          line   267 file /cbio/jclab/home/chayas/anaconda/envs/py35/share/psi4/basis/aug-cc-pvtz.gbs 
    atoms 13    entry O          line   313 file /cbio/jclab/home/chayas/anaconda/envs/py35/share/psi4/basis/aug-cc-pvtz.gbs 
    atoms 14    entry F          line   359 file /cbio/jclab/home/chayas/anaconda/envs/py35/share/psi4/basis/aug-cc-pvtz.gbs 
    atoms 15-21 entry H          line    34 file /cbio/jclab/home/chayas/anaconda/envs/py35/share/psi4/basis/aug-cc-pvtz.gbs 


         ---------------------------------------------------------
                                   SCF
            by Justin Turney, Rob Parrish, and Andy Simmonett
                              RHF Reference
                        8 Threads,   4768 MiB Core
         ---------------------------------------------------------

  ==> Geometry <==

    Molecular point group: c1
    Full point group: C1

    Geometry (in Angstrom), charge = -1, multiplicity = 1:

       Center              X                  Y                   Z               Mass       
    ------------   -----------------  -----------------  -----------------  -----------------
           C         -1.345732487671     0.767417047241    -0.781580060304    12.000000000000
           C         -2.423732487671     1.340417047241    -0.108580060304    12.000000000000
           C          1.778267512329     0.389417047241    -1.342580060304    12.000000000000
           C          0.914267512329    -1.803582952759    -0.863580060304    12.000000000000
           C         -1.430732487671     0.724417047241     2.006419939696    12.000000000000
           C          2.828267512329    -0.227582952759    -2.003580060304    12.000000000000
           C          2.003267512329    -2.322582952759    -1.545580060304    12.000000000000
           C         -0.309732487671     0.172417047241    -0.061580060304    12.000000000000
           C          0.807267512329    -0.420582952759    -0.764580060304    12.000000000000
           C         -2.466732487671     1.319417047241     1.285419939696    12.000000000000
           C         -0.352732487671     0.151417047241     1.332419939696    12.000000000000
           N          2.966267512329    -1.567582952759    -2.120580060304    14.003074004780
           O         -3.457732487671     1.846417047241     1.904419939696    15.994914619560
           F          0.635267512329    -0.416582952759     2.039419939696    18.998403224000
           H         -1.326732487671     0.790417047241    -1.869580060304     1.007825032070
           H         -3.219732487671     1.796417047241    -0.694580060304     1.007825032070
           H          1.729267512329     1.472417047241    -1.285580060304     1.007825032070
           H          0.176267512329    -2.467582952759    -0.425580060304     1.007825032070
           H         -1.439732487671     0.694417047241     3.094419939696     1.007825032070
           H          3.612267512329     0.359417047241    -2.469580060304     1.007825032070
           H          2.132267512329    -3.394582952759    -1.651580060304     1.007825032070

  Running in c1 symmetry.

  Rotational constants: A =      0.06334  B =      0.01322  C =      0.01211 [cm^-1]
  Rotational constants: A =   1898.93601  B =    396.24511  C =    363.02988 [MHz]
  Nuclear repulsion =  800.880832950017862

  Charge       = -1
  Multiplicity = 1
  Electrons    = 98
  Nalpha       = 49
  Nbeta        = 49

  ==> Algorithm <==

  SCF Algorithm Type is DF.
  DIIS enabled.
  MOM disabled.
  Fractional occupation disabled.
  Guess Type is SAD.
  Energy threshold   = 1.00e-10
  Density threshold  = 1.00e-10
  Integral threshold = 0.00e+00

  ==> Primary Basis <==

  Basis Set: AUG-CC-PVTZ
    Blend: AUG-CC-PVTZ
    Number of shells: 259
    Number of basis function: 805
    Number of Cartesian functions: 945
    Spherical Harmonics?: true
    Max angular momentum: 3

   => Loading Basis Set <=

    Name: (AUG-CC-PVTZ AUX)
    Role: JKFIT
    Keyword: DF_BASIS_SCF
    atoms 1-11  entry C          line   161 file /cbio/jclab/home/chayas/anaconda/envs/py35/share/psi4/basis/aug-cc-pvtz-jkfit.gbs 
    atoms 12    entry N          line   223 file /cbio/jclab/home/chayas/anaconda/envs/py35/share/psi4/basis/aug-cc-pvtz-jkfit.gbs 
    atoms 13    entry O          line   285 file /cbio/jclab/home/chayas/anaconda/envs/py35/share/psi4/basis/aug-cc-pvtz-jkfit.gbs 
    atoms 14    entry F          line   347 file /cbio/jclab/home/chayas/anaconda/envs/py35/share/psi4/basis/aug-cc-pvtz-jkfit.gbs 
    atoms 15-21 entry H          line    69 file /cbio/jclab/home/chayas/anaconda/envs/py35/share/psi4/basis/aug-cc-pvtz-jkfit.gbs 

  ==> Pre-Iterations <==

   -------------------------------------------------------
    Irrep   Nso     Nmo     Nalpha   Nbeta   Ndocc  Nsocc
   -------------------------------------------------------
     A        805     805       0       0       0       0
   -------------------------------------------------------
    Total     805     805      49      49      49       0
   -------------------------------------------------------

  ==> Integral Setup <==

  ==> DFJK: Density-Fitted J/K Matrices <==

    J tasked:                  Yes
    K tasked:                  Yes
    wK tasked:                  No
    OpenMP threads:              8
    Integrals threads:           8
    Memory (MB):              3576
    Algorithm:                Disk
    Integral Cache:           NONE
    Schwarz Cutoff:          1E-12
    Fitting Condition:       1E-12

   => Auxiliary Basis Set <=

  Basis Set: (AUG-CC-PVTZ AUX)
    Blend: AUG-CC-PVTZ-JKFIT
    Number of shells: 518
    Number of basis function: 1778
    Number of Cartesian functions: 2219
    Spherical Harmonics?: true
    Max angular momentum: 4

  Minimum eigenvalue in the overlap matrix is 8.4641640943E-07.
  Using Symmetric Orthogonalization.

  SCF Guess: Superposition of Atomic Densities via on-the-fly atomic UHF.

  ==> Iterations <==

                           Total Energy        Delta E     RMS |[F,P]|

   @DF-RHF iter   0:  -661.73396132117125   -6.61734e+02   1.43607e-02 
   @DF-RHF iter   1:  -648.92423881810987    1.28097e+01   3.02390e-03 
   @DF-RHF iter   2:  -649.31113343245750   -3.86895e-01   2.26184e-03 DIIS
   @DF-RHF iter   3:  -649.57604534579298   -2.64912e-01   4.78007e-04 DIIS
   @DF-RHF iter   4:  -649.59918360741881   -2.31383e-02   1.62826e-04 DIIS
   @DF-RHF iter   5:  -649.60448394861248   -5.30034e-03   5.01712e-05 DIIS
   @DF-RHF iter   6:  -649.60539524448541   -9.11296e-04   2.63903e-05 DIIS
   @DF-RHF iter   7:  -649.60558901573586   -1.93771e-04   1.17975e-05 DIIS
   @DF-RHF iter   8:  -649.60562422814235   -3.52124e-05   2.51733e-06 DIIS
   @DF-RHF iter   9:  -649.60562799258105   -3.76444e-06   1.65568e-06 DIIS
   @DF-RHF iter  10:  -649.60562864501208   -6.52431e-07   5.75648e-07 DIIS
   @DF-RHF iter  11:  -649.60562882844931   -1.83437e-07   2.60295e-07 DIIS
   @DF-RHF iter  12:  -649.60562886364767   -3.51984e-08   1.11947e-07 DIIS
   @DF-RHF iter  13:  -649.60562887053584   -6.88817e-09   4.64321e-08 DIIS
   @DF-RHF iter  14:  -649.60562887175843   -1.22259e-09   1.99525e-08 DIIS
   @DF-RHF iter  15:  -649.60562887188405   -1.25624e-10   5.72621e-09 DIIS
   @DF-RHF iter  16:  -649.60562887191463   -3.05818e-11   2.44110e-09 DIIS
   @DF-RHF iter  17:  -649.60562887189474    1.98952e-11   1.26016e-09 DIIS
   @DF-RHF iter  18:  -649.60562887191088   -1.61435e-11   5.45082e-10 DIIS
   @DF-RHF iter  19:  -649.60562887189121    1.96678e-11   2.66817e-10 DIIS
   @DF-RHF iter  20:  -649.60562887188166    9.54969e-12   1.45304e-10 DIIS
   @DF-RHF iter  21:  -649.60562887190815   -2.64890e-11   5.85746e-11 DIIS

  ==> Post-Iterations <==

    Orbital Energies (a.u.)
    -----------------------

    Doubly Occupied:                                                      

       1A    -26.183982     2A    -20.293934     3A    -15.465087  
       4A    -11.186576     5A    -11.174903     6A    -11.174452  
       7A    -11.150001     8A    -11.130404     9A    -11.129757  
      10A    -11.116849    11A    -11.105511    12A    -11.080060  
      13A    -11.060071    14A    -11.059482    15A     -1.503143  
      16A     -1.149044    17A     -1.126863    18A     -1.024386  
      19A     -0.964744    20A     -0.931740    21A     -0.869316  
      22A     -0.846778    23A     -0.752233    24A     -0.741269  
      25A     -0.700996    26A     -0.673848    27A     -0.609710  
      28A     -0.577906    29A     -0.572375    30A     -0.559226  
      31A     -0.553934    32A     -0.546760    33A     -0.501543  
      34A     -0.496767    35A     -0.468655    36A     -0.458069  
      37A     -0.435066    38A     -0.419804    39A     -0.411840  
      40A     -0.379303    41A     -0.373626    42A     -0.352971  
      43A     -0.317878    44A     -0.288586    45A     -0.262663  
      46A     -0.248469    47A     -0.214026    48A     -0.196099  
      49A     -0.114573  

    Virtual:                                                              

      50A      0.096892    51A      0.099413    52A      0.113962  
      53A      0.119638    54A      0.124070    55A      0.127451  
      56A      0.130297    57A      0.152006    58A      0.165463  
      59A      0.173747    60A      0.181103    61A      0.184091  
      62A      0.184864    63A      0.186211    64A      0.188371  
      65A      0.192602    66A      0.193724    67A      0.201084  
      68A      0.205987    69A      0.210263    70A      0.214943  
      71A      0.216079    72A      0.220606    73A      0.224518  
      74A      0.226633    75A      0.228671    76A      0.232216  
      77A      0.232943    78A      0.240495    79A      0.246329  
      80A      0.249246    81A      0.255413    82A      0.258930  
      83A      0.265525    84A      0.267726    85A      0.273180  
      86A      0.284531    87A      0.289273    88A      0.292922  
      89A      0.297051    90A      0.302230    91A      0.306559  
      92A      0.316120    93A      0.319677    94A      0.320080  
      95A      0.329918    96A      0.332519    97A      0.334656  
      98A      0.337294    99A      0.341496   100A      0.345229  
     101A      0.350542   102A      0.354561   103A      0.359634  
     104A      0.363960   105A      0.365859   106A      0.371169  
     107A      0.379429   108A      0.384269   109A      0.390095  
     110A      0.394039   111A      0.397461   112A      0.402178  
     113A      0.405770   114A      0.409622   115A      0.410777  
     116A      0.413677   117A      0.416049   118A      0.424973  
     119A      0.425963   120A      0.437853   121A      0.445822  
     122A      0.447302   123A      0.454099   124A      0.457739  
     125A      0.459763   126A      0.466876   127A      0.468217  
     128A      0.480961   129A      0.482528   130A      0.487904  
     131A      0.496999   132A      0.501928   133A      0.504872  
     134A      0.508022   135A      0.511049   136A      0.513769  
     137A      0.522363   138A      0.526044   139A      0.535893  
     140A      0.540260   141A      0.544579   142A      0.547648  
     143A      0.554177   144A      0.558209   145A      0.559931  
     146A      0.568949   147A      0.572275   148A      0.575006  
     149A      0.576457   150A      0.579844   151A      0.586189  
     152A      0.587571   153A      0.589822   154A      0.594329  
     155A      0.597062   156A      0.599104   157A      0.604431  
     158A      0.606879   159A      0.614960   160A      0.618591  
     161A      0.622453   162A      0.626225   163A      0.627564  
     164A      0.630707   165A      0.636546   166A      0.640293  
     167A      0.646447   168A      0.649398   169A      0.656712  
     170A      0.659554   171A      0.667791   172A      0.673701  
     173A      0.677405   174A      0.680049   175A      0.686179  
     176A      0.690723   177A      0.692107   178A      0.700743  
     179A      0.711318   180A      0.713385   181A      0.715988  
     182A      0.720650   183A      0.724896   184A      0.736803  
     185A      0.739192   186A      0.742385   187A      0.750576  
     188A      0.753679   189A      0.764304   190A      0.768529  
     191A      0.771390   192A      0.782095   193A      0.789057  
     194A      0.794349   195A      0.798128   196A      0.803800  
     197A      0.814397   198A      0.820459   199A      0.826165  
     200A      0.829125   201A      0.837994   202A      0.842870  
     203A      0.847165   204A      0.852152   205A      0.856583  
     206A      0.856986   207A      0.862742   208A      0.868204  
     209A      0.873330   210A      0.878836   211A      0.881053  
     212A      0.895435   213A      0.900580   214A      0.906199  
     215A      0.907993   216A      0.913258   217A      0.922771  
     218A      0.933786   219A      0.938780   220A      0.953565  
     221A      0.958140   222A      0.962681   223A      0.969913  
     224A      0.975791   225A      0.986266   226A      0.990537  
     227A      0.998277   228A      1.004776   229A      1.010875  
     230A      1.011722   231A      1.014803   232A      1.019445  
     233A      1.022097   234A      1.030166   235A      1.032624  
     236A      1.035185   237A      1.036530   238A      1.045609  
     239A      1.046310   240A      1.051573   241A      1.056424  
     242A      1.063714   243A      1.066275   244A      1.070783  
     245A      1.075467   246A      1.079732   247A      1.087989  
     248A      1.093266   249A      1.095365   250A      1.098370  
     251A      1.101325   252A      1.104515   253A      1.109068  
     254A      1.114903   255A      1.124729   256A      1.130679  
     257A      1.136340   258A      1.140059   259A      1.144502  
     260A      1.149265   261A      1.152947   262A      1.156213  
     263A      1.158230   264A      1.164509   265A      1.165847  
     266A      1.174993   267A      1.177597   268A      1.186810  
     269A      1.191469   270A      1.198152   271A      1.198744  
     272A      1.203760   273A      1.210331   274A      1.214221  
     275A      1.217484   276A      1.220038   277A      1.234546  
     278A      1.235533   279A      1.244005   280A      1.249301  
     281A      1.254891   282A      1.262911   283A      1.268155  
     284A      1.270428   285A      1.274417   286A      1.279648  
     287A      1.285619   288A      1.286709   289A      1.294421  
     290A      1.299999   291A      1.305616   292A      1.316543  
     293A      1.319000   294A      1.319498   295A      1.326188  
     296A      1.329784   297A      1.336100   298A      1.338903  
     299A      1.340831   300A      1.346856   301A      1.356867  
     302A      1.363221   303A      1.365172   304A      1.379192  
     305A      1.383786   306A      1.390058   307A      1.393040  
     308A      1.402073   309A      1.403027   310A      1.406394  
     311A      1.410432   312A      1.418111   313A      1.424251  
     314A      1.427272   315A      1.439417   316A      1.448528  
     317A      1.450249   318A      1.465277   319A      1.467243  
     320A      1.485049   321A      1.487294   322A      1.493654  
     323A      1.502762   324A      1.511335   325A      1.513521  
     326A      1.526035   327A      1.529224   328A      1.534359  
     329A      1.542653   330A      1.548149   331A      1.553856  
     332A      1.568302   333A      1.577055   334A      1.583504  
     335A      1.593032   336A      1.598750   337A      1.602531  
     338A      1.610298   339A      1.616261   340A      1.635174  
     341A      1.647478   342A      1.649343   343A      1.660078  
     344A      1.672656   345A      1.678451   346A      1.683110  
     347A      1.688781   348A      1.700866   349A      1.706532  
     350A      1.708335   351A      1.722226   352A      1.735847  
     353A      1.743410   354A      1.745422   355A      1.756977  
     356A      1.761534   357A      1.765582   358A      1.769034  
     359A      1.775258   360A      1.799272   361A      1.803527  
     362A      1.805466   363A      1.810881   364A      1.819564  
     365A      1.822213   366A      1.826823   367A      1.831609  
     368A      1.840354   369A      1.857781   370A      1.865227  
     371A      1.874988   372A      1.878019   373A      1.887127  
     374A      1.896623   375A      1.902072   376A      1.909513  
     377A      1.914847   378A      1.927151   379A      1.930384  
     380A      1.938326   381A      1.941985   382A      1.955570  
     383A      1.969783   384A      1.981930   385A      1.983594  
     386A      1.999306   387A      2.002348   388A      2.006385  
     389A      2.017092   390A      2.023915   391A      2.027741  
     392A      2.037966   393A      2.048443   394A      2.061398  
     395A      2.072712   396A      2.078551   397A      2.081356  
     398A      2.084187   399A      2.095205   400A      2.100118  
     401A      2.105069   402A      2.116666   403A      2.123865  
     404A      2.142357   405A      2.143963   406A      2.148968  
     407A      2.155195   408A      2.159346   409A      2.168021  
     410A      2.184856   411A      2.188594   412A      2.197854  
     413A      2.202665   414A      2.206169   415A      2.210187  
     416A      2.225575   417A      2.234649   418A      2.235479  
     419A      2.249556   420A      2.260749   421A      2.266133  
     422A      2.271302   423A      2.282617   424A      2.285571  
     425A      2.298283   426A      2.300951   427A      2.312652  
     428A      2.315669   429A      2.324176   430A      2.330444  
     431A      2.341438   432A      2.349880   433A      2.356300  
     434A      2.367321   435A      2.387264   436A      2.393876  
     437A      2.401363   438A      2.409450   439A      2.417908  
     440A      2.431426   441A      2.445299   442A      2.453681  
     443A      2.468254   444A      2.471027   445A      2.479925  
     446A      2.488799   447A      2.497069   448A      2.518109  
     449A      2.522386   450A      2.531103   451A      2.541443  
     452A      2.562499   453A      2.569118   454A      2.581332  
     455A      2.590047   456A      2.592299   457A      2.600182  
     458A      2.627561   459A      2.634357   460A      2.651986  
     461A      2.662593   462A      2.669337   463A      2.677503  
     464A      2.691353   465A      2.695148   466A      2.698897  
     467A      2.720537   468A      2.737672   469A      2.740886  
     470A      2.758674   471A      2.764467   472A      2.770383  
     473A      2.790610   474A      2.803926   475A      2.836998  
     476A      2.862652   477A      2.875996   478A      2.883796  
     479A      2.900127   480A      2.913107   481A      2.918553  
     482A      2.931149   483A      2.947367   484A      2.958625  
     485A      2.982283   486A      3.008309   487A      3.025088  
     488A      3.030296   489A      3.048889   490A      3.095198  
     491A      3.104786   492A      3.124177   493A      3.144550  
     494A      3.149742   495A      3.159181   496A      3.193893  
     497A      3.203973   498A      3.208807   499A      3.221947  
     500A      3.239570   501A      3.271086   502A      3.287523  
     503A      3.294739   504A      3.313791   505A      3.330005  
     506A      3.330245   507A      3.332934   508A      3.348114  
     509A      3.359114   510A      3.366022   511A      3.392402  
     512A      3.401054   513A      3.424791   514A      3.440193  
     515A      3.452698   516A      3.454895   517A      3.473181  
     518A      3.479080   519A      3.493332   520A      3.509908  
     521A      3.517162   522A      3.526310   523A      3.533628  
     524A      3.538444   525A      3.557391   526A      3.564569  
     527A      3.569770   528A      3.580528   529A      3.588308  
     530A      3.594456   531A      3.604966   532A      3.615953  
     533A      3.623326   534A      3.634358   535A      3.646859  
     536A      3.655740   537A      3.660289   538A      3.671457  
     539A      3.673781   540A      3.684834   541A      3.686933  
     542A      3.696728   543A      3.702242   544A      3.709068  
     545A      3.716630   546A      3.727054   547A      3.741334  
     548A      3.750136   549A      3.760900   550A      3.768396  
     551A      3.775807   552A      3.785935   553A      3.795052  
     554A      3.805472   555A      3.812454   556A      3.817529  
     557A      3.828000   558A      3.829234   559A      3.843978  
     560A      3.849255   561A      3.857671   562A      3.867070  
     563A      3.881419   564A      3.885912   565A      3.898771  
     566A      3.904791   567A      3.919060   568A      3.934852  
     569A      3.944357   570A      3.950673   571A      3.960853  
     572A      3.968997   573A      3.976312   574A      3.984360  
     575A      3.986917   576A      3.999789   577A      4.004414  
     578A      4.008044   579A      4.024465   580A      4.038931  
     581A      4.041398   582A      4.053372   583A      4.055785  
     584A      4.064348   585A      4.069184   586A      4.082635  
     587A      4.093857   588A      4.096782   589A      4.110960  
     590A      4.118269   591A      4.121203   592A      4.135770  
     593A      4.150038   594A      4.164133   595A      4.171140  
     596A      4.175936   597A      4.186440   598A      4.189910  
     599A      4.201719   600A      4.202594   601A      4.211313  
     602A      4.227998   603A      4.236024   604A      4.239649  
     605A      4.241767   606A      4.262853   607A      4.270875  
     608A      4.288378   609A      4.307323   610A      4.313062  
     611A      4.317761   612A      4.322937   613A      4.328143  
     614A      4.348166   615A      4.349021   616A      4.364523  
     617A      4.373847   618A      4.379560   619A      4.391914  
     620A      4.400998   621A      4.409286   622A      4.416388  
     623A      4.419428   624A      4.428311   625A      4.433977  
     626A      4.443283   627A      4.462673   628A      4.471314  
     629A      4.485998   630A      4.490605   631A      4.501931  
     632A      4.515890   633A      4.523483   634A      4.524581  
     635A      4.537078   636A      4.545608   637A      4.561506  
     638A      4.565340   639A      4.573303   640A      4.578811  
     641A      4.586714   642A      4.609845   643A      4.619173  
     644A      4.629669   645A      4.651065   646A      4.657621  
     647A      4.678803   648A      4.684077   649A      4.686441  
     650A      4.697905   651A      4.726223   652A      4.730075  
     653A      4.739442   654A      4.748097   655A      4.767864  
     656A      4.775557   657A      4.784956   658A      4.805838  
     659A      4.819449   660A      4.836852   661A      4.861275  
     662A      4.868627   663A      4.891406   664A      4.907311  
     665A      4.915719   666A      4.927066   667A      4.956240  
     668A      4.966113   669A      4.988682   670A      5.004508  
     671A      5.012503   672A      5.019239   673A      5.034024  
     674A      5.057365   675A      5.065216   676A      5.072775  
     677A      5.079828   678A      5.088801   679A      5.098866  
     680A      5.115237   681A      5.128186   682A      5.157624  
     683A      5.168318   684A      5.171200   685A      5.180163  
     686A      5.187657   687A      5.203420   688A      5.224750  
     689A      5.250461   690A      5.251604   691A      5.256265  
     692A      5.264591   693A      5.273295   694A      5.277594  
     695A      5.292640   696A      5.310812   697A      5.313187  
     698A      5.321862   699A      5.331330   700A      5.353903  
     701A      5.357750   702A      5.377790   703A      5.401369  
     704A      5.443024   705A      5.469346   706A      5.471527  
     707A      5.480579   708A      5.484341   709A      5.499116  
     710A      5.502592   711A      5.525480   712A      5.544606  
     713A      5.562240   714A      5.583792   715A      5.592175  
     716A      5.623936   717A      5.649616   718A      5.658384  
     719A      5.661416   720A      5.721143   721A      5.733068  
     722A      5.748675   723A      5.772577   724A      5.835986  
     725A      5.842931   726A      5.859549   727A      5.878719  
     728A      5.890067   729A      5.906118   730A      5.941192  
     731A      5.958048   732A      5.984030   733A      5.991847  
     734A      6.011774   735A      6.037255   736A      6.097661  
     737A      6.133785   738A      6.178533   739A      6.191203  
     740A      6.242956   741A      6.286624   742A      6.340435  
     743A      6.346325   744A      6.359874   745A      6.418725  
     746A      6.437476   747A      6.459963   748A      6.492265  
     749A      6.557412   750A      6.582759   751A      6.642679  
     752A      6.671301   753A      6.680313   754A      6.794929  
     755A      6.804172   756A      6.819810   757A      6.850799  
     758A      6.896144   759A      6.903813   760A      6.973743  
     761A      6.987564   762A      6.998678   763A      7.026034  
     764A      7.119622   765A      7.163973   766A      7.167937  
     767A      7.196292   768A      7.305038   769A      7.329553  
     770A      7.360757   771A      7.512893   772A      7.597346  
     773A      7.617281   774A      7.646390   775A      7.917570  
     776A      7.947567   777A      8.025117   778A      8.152956  
     779A      8.220006   780A      9.125002   781A      9.177589  
     782A      9.408424   783A      9.426184   784A      9.538423  
     785A      9.646426   786A      9.669337   787A      9.718750  
     788A      9.780429   789A      9.850363   790A     10.159138  
     791A     10.212072   792A     15.679527   793A     16.046657  
     794A     16.276108   795A     16.640573   796A     16.764364  
     797A     16.994594   798A     18.605521   799A     18.880291  
     800A     19.306757   801A     20.042711   802A     20.212834  
     803A     20.374452   804A     20.553965   805A     21.910062  

    Final Occupation by Irrep:
              A 
    DOCC [    49 ]

  Energy converged.

  @DF-RHF Final Energy:  -649.60562887190815

   => Energetics <=

    Nuclear Repulsion Energy =            800.8808329500178615
    One-Electron Energy =               -2491.0623654829514635
    Two-Electron Energy =                1040.5759036610252224
    DFT Exchange-Correlation Energy =       0.0000000000000000
    Empirical Dispersion Energy =           0.0000000000000000
    PCM Polarization Energy =               0.0000000000000000
    EFP Energy =                            0.0000000000000000
    Total Energy =                       -649.6056288719082659



Properties will be evaluated at   0.000000,   0.000000,   0.000000 Bohr

Properties computed using the SCF density matrix

  Nuclear Dipole Moment: (a.u.)
     X:     0.9353      Y:    -0.2958      Z:    -6.8791

  Electronic Dipole Moment: (a.u.)
     X:     1.9846      Y:    -1.2603      Z:     4.9155

  Dipole Moment: (a.u.)
     X:     2.9199      Y:    -1.5562      Z:    -1.9636     Total:     3.8475

  Dipole Moment: (Debye)
     X:     7.4218      Y:    -3.9554      Z:    -4.9909     Total:     9.7794


*** tstop() called on gpu-1-15.local at Tue Nov 14 04:20:56 2017
Module time:
	user time   =    1195.73 seconds =      19.93 minutes
	system time =      65.24 seconds =       1.09 minutes
	total time  =        525 seconds =       8.75 minutes
Total time:
	user time   =    1195.73 seconds =      19.93 minutes
	system time =      65.24 seconds =       1.09 minutes
	total time  =        525 seconds =       8.75 minutes

  //>>>>>>>>>>>>>>>>>>>>>>>>>>>>>>>>>>>//
  //               DFMP2               //
  //<<<<<<<<<<<<<<<<<<<<<<<<<<<<<<<<<<<//

   => Loading Basis Set <=

    Name: (AUG-CC-PVTZ AUX)
    Role: RIFIT
    Keyword: DF_BASIS_MP2
    atoms 1-11  entry C          line   147 file /cbio/jclab/home/chayas/anaconda/envs/py35/share/psi4/basis/aug-cc-pvtz-ri.gbs 
    atoms 12    entry N          line   205 file /cbio/jclab/home/chayas/anaconda/envs/py35/share/psi4/basis/aug-cc-pvtz-ri.gbs 
    atoms 13    entry O          line   263 file /cbio/jclab/home/chayas/anaconda/envs/py35/share/psi4/basis/aug-cc-pvtz-ri.gbs 
    atoms 14    entry F          line   321 file /cbio/jclab/home/chayas/anaconda/envs/py35/share/psi4/basis/aug-cc-pvtz-ri.gbs 
    atoms 15-21 entry H          line    29 file /cbio/jclab/home/chayas/anaconda/envs/py35/share/psi4/basis/aug-cc-pvtz-ri.gbs 

	 --------------------------------------------------------
	                          DF-MP2                         
	      2nd-Order Density-Fitted Moller-Plesset Theory     
	              RMP2 Wavefunction,   8 Threads             
	                                                         
	        Rob Parrish, Justin Turney, Andy Simmonett,      
	           Ed Hohenstein, and C. David Sherrill          
	 --------------------------------------------------------

   => Auxiliary Basis Set <=

  Basis Set: (AUG-CC-PVTZ AUX)
    Blend: AUG-CC-PVTZ-RI
    Number of shells: 490
    Number of basis function: 1806
    Number of Cartesian functions: 2289
    Spherical Harmonics?: true
    Max angular momentum: 4

	 --------------------------------------------------------
	                 NBF =   805, NAUX =  1806
	 --------------------------------------------------------
	   CLASS    FOCC     OCC    AOCC    AVIR     VIR    FVIR
	   PAIRS       0      49      49     756     756       0
	 --------------------------------------------------------


         ------------------------------------------------------------
                                     CPHF                           
                                  Rob Parrish                       
         ------------------------------------------------------------

  ==> Geometry <==

    Molecular point group: c1
    Full point group: C1

    Geometry (in Angstrom), charge = -1, multiplicity = 1:

       Center              X                  Y                   Z               Mass       
    ------------   -----------------  -----------------  -----------------  -----------------
           C         -1.345732487671     0.767417047241    -0.781580060304    12.000000000000
           C         -2.423732487671     1.340417047241    -0.108580060304    12.000000000000
           C          1.778267512329     0.389417047241    -1.342580060304    12.000000000000
           C          0.914267512329    -1.803582952759    -0.863580060304    12.000000000000
           C         -1.430732487671     0.724417047241     2.006419939696    12.000000000000
           C          2.828267512329    -0.227582952759    -2.003580060304    12.000000000000
           C          2.003267512329    -2.322582952759    -1.545580060304    12.000000000000
           C         -0.309732487671     0.172417047241    -0.061580060304    12.000000000000
           C          0.807267512329    -0.420582952759    -0.764580060304    12.000000000000
           C         -2.466732487671     1.319417047241     1.285419939696    12.000000000000
           C         -0.352732487671     0.151417047241     1.332419939696    12.000000000000
           N          2.966267512329    -1.567582952759    -2.120580060304    14.003074004780
           O         -3.457732487671     1.846417047241     1.904419939696    15.994914619560
           F          0.635267512329    -0.416582952759     2.039419939696    18.998403224000
           H         -1.326732487671     0.790417047241    -1.869580060304     1.007825032070
           H         -3.219732487671     1.796417047241    -0.694580060304     1.007825032070
           H          1.729267512329     1.472417047241    -1.285580060304     1.007825032070
           H          0.176267512329    -2.467582952759    -0.425580060304     1.007825032070
           H         -1.439732487671     0.694417047241     3.094419939696     1.007825032070
           H          3.612267512329     0.359417047241    -2.469580060304     1.007825032070
           H          2.132267512329    -3.394582952759    -1.651580060304     1.007825032070

  Nuclear repulsion =  800.880832950017862
  Reference energy  = -649.605628871908152

  ==> Basis Set <==

  Basis Set: AUG-CC-PVTZ
    Blend: AUG-CC-PVTZ
    Number of shells: 259
    Number of basis function: 805
    Number of Cartesian functions: 945
    Spherical Harmonics?: true
    Max angular momentum: 3

  ==> CGRSolver (by Rob Parrish) <==

   Number of roots    =         1
   Preconditioning    =    JACOBI
   Convergence cutoff =     1E-06
   Maximum iterations =       100

  ==> CPHFRHamiltonian (by Rob Parrish) <== 

  ==> DFJK: Density-Fitted J/K Matrices <==

    J tasked:                  Yes
    K tasked:                  Yes
    wK tasked:                  No
    OpenMP threads:              8
    Integrals threads:           8
    Memory (MB):              3576
    Algorithm:                Disk
    Integral Cache:           NONE
    Schwarz Cutoff:          1E-12
    Fitting Condition:       1E-12

   => Auxiliary Basis Set <=

  Basis Set: (AUG-CC-PVTZ AUX)
    Blend: AUG-CC-PVTZ-JKFIT
    Number of shells: 518
    Number of basis function: 1778
    Number of Cartesian functions: 2219
    Spherical Harmonics?: true
    Max angular momentum: 4

  ==> CPHF Iterations <==

  => Iterations <=

             Iter  Converged  Remaining    Residual
  CGR           1          0          1   1.267E-01
  CGR           2          0          1   4.542E-02
  CGR           3          0          1   2.717E-02
  CGR           4          0          1   1.025E-02
  CGR           5          0          1   4.409E-03
  CGR           6          0          1   2.165E-03
  CGR           7          0          1   8.562E-04
  CGR           8          0          1   3.282E-04
  CGR           9          0          1   1.081E-04
  CGR          10          0          1   3.476E-05
  CGR          11          0          1   1.494E-05
  CGR          12          0          1   6.243E-06
  CGR          13          0          1   2.658E-06
  CGR          14          0          1   1.087E-06
  CGR          15          1          0   3.170E-07

    CGRSolver converged.

  ==> DFCorrGrad: Density-Fitted Correlated Gradients <==

    OpenMP threads:              8
    Integrals threads:           8
    Memory (MB):              3576
    Schwarz Cutoff:          0E+00
    Fitting Condition:       1E-12

   => Auxiliary Basis Set <=

  Basis Set: (AUG-CC-PVTZ AUX)
    Blend: AUG-CC-PVTZ-JKFIT
    Number of shells: 518
    Number of basis function: 1778
    Number of Cartesian functions: 2219
    Spherical Harmonics?: true
    Max angular momentum: 4

	-----------------------------------------------------------
	 ==================> DF-MP2 Energies <==================== 
	-----------------------------------------------------------
	 Reference Energy          =    -649.6056288719081522 [Eh]
	 Singles Energy            =      -0.0000000000000005 [Eh]
	 Same-Spin Energy          =      -0.6854612735145713 [Eh]
	 Opposite-Spin Energy      =      -2.0254408169243527 [Eh]
	 Correlation Energy        =      -2.7109020904389243 [Eh]
	 Total Energy              =    -652.3165309623470876 [Eh]
	-----------------------------------------------------------
	 ================> DF-SCS-MP2 Energies <================== 
	-----------------------------------------------------------
	 SCS Same-Spin Scale       =       0.3333333333333333 [-]
	 SCS Opposite-Spin Scale   =       1.2000000000000000 [-]
	 SCS Same-Spin Energy      =      -0.2284870911715238 [Eh]
	 SCS Opposite-Spin Energy  =      -2.4305289803092234 [Eh]
	 SCS Correlation Energy    =      -2.6590160714807474 [Eh]
	 SCS Total Energy          =    -652.2646449433889302 [Eh]
	-----------------------------------------------------------


  -Total Gradient:
     Atom            X                  Y                   Z
    ------   -----------------  -----------------  -----------------
       1        0.014112326496    -0.010764426069    -0.010491168782
       2       -0.020871606192     0.010491365936     0.037483928914
       3       -0.006192732723     0.008719899189     0.006483920888
       4       -0.012252416883     0.000535694001     0.005238846250
       5       -0.041696234065     0.022898153535    -0.001250218270
       6       -0.004170033226     0.011617631051     0.003989915238
       7       -0.010156608294    -0.003251713074     0.005778246482
       8       -0.009310573225     0.005011944551    -0.001266700482
       9        0.005292969336    -0.002455927866    -0.005335416283
      10        0.046154140180    -0.024545286086    -0.027863992889
      11        0.041484847788    -0.019647300015     0.006527626476
      12        0.010002354076    -0.005663038956    -0.006446048121
      13        0.000059542306     0.000004682282    -0.001187730692
      14       -0.013179222545     0.007214053427    -0.003398285257
      15       -0.003736771090     0.002267392601    -0.004348038157
      16       -0.001830362509     0.001623355366    -0.008735733910
      17        0.002501643011     0.005124836821    -0.001958002944
      18       -0.001370586070    -0.005514065097     0.000739749280
      19        0.003549476196    -0.002579720992     0.007052967078
      20        0.001153048806     0.000611982017    -0.000809903514
      21        0.000456798619    -0.001699512621    -0.000203961308


*** tstop() called on gpu-1-15.local at Tue Nov 14 04:56:39 2017
Module time:
	user time   =    5859.10 seconds =      97.65 minutes
	system time =     139.17 seconds =       2.32 minutes
	total time  =       2668 seconds =      44.47 minutes
Total time:
	user time   =    5859.10 seconds =      97.65 minutes
	system time =     139.17 seconds =       2.32 minutes
	total time  =       2668 seconds =      44.47 minutes

			-----------------------------------------
			 OPTKING 2.0: for geometry optimizations 
			  - R.A. King,  Bethel University        
			-----------------------------------------
	At level 1: Red. Int., RFO, no backsteps, dynamic trust

	Internal coordinates to be generated automatically.
	Detected frag 1 with atoms:  1 2 3 4 5 6 7 8 9 10 11 12 13 14 15 16 17 18 19 20
	 21
	---Fragment 1 Bond Connectivity---
	 1 : 2 8 15
	 2 : 1 10 16
	 3 : 6 9 17
	 4 : 7 9 18
	 5 : 10 11 19
	 6 : 3 12 20
	 7 : 4 12 21
	 8 : 1 9 11
	 9 : 3 4 8
	 10 : 2 5 13
	 11 : 5 8 14
	 12 : 6 7
	 13 : 10
	 14 : 11
	 15 : 1
	 16 : 2
	 17 : 3
	 18 : 4
	 19 : 5
	 20 : 6
	 21 : 7

	Assuming in current code that numbering for constraints corresponds to unified fragment.
	Fixed dihedral atom list: 
	     1     8     9     3
	---Fragment 1 Geometry and Gradient---
	 C          -2.5430658498        1.4502080490       -1.4769722649
	 C          -4.5801906211        2.5330211231       -0.2051865775
	 C           3.3604385893        0.7358915708       -2.5371086254
	 C           1.7277152105       -3.4082778387       -1.6319298078
	 C          -2.7036925711        1.3689498253        3.7915841936
	 C           5.3446510288       -0.4300694532       -3.7862175993
	 C           3.7856269692       -4.3890457016       -2.9207230304
	 C          -0.5853095762        0.3258209999       -0.1163694492
	 C           1.5255145143       -0.7947865969       -1.4448469206
	 C          -4.6614488448        2.4933368743        2.4290916518
	 C          -0.6665677999        0.2861367511        2.5179087800
	 N           5.6054332352       -2.9623024713       -4.0073155568
	 O          -6.5341674425        3.4892225464        3.5988321280
	 F           1.2004816194       -0.7872276923        3.8539451560
	 H          -2.5071610533        1.4936717500       -3.5329942975
	 H          -6.0844126229        3.3947362397       -1.3125660913
	 H           3.2678420088        2.7824649727       -2.4293942359
	 H           0.3330973244       -4.6630559909       -0.8042297616
	 H          -2.7207001063        1.3122580413        5.8476062262
	 H           6.8261963170        0.6791997868       -4.6668299772
	 H           4.0294016404       -6.4148321161       -3.1210340005
	             0.0141123265       -0.0107644261       -0.0104911688
	            -0.0208716062        0.0104913659        0.0374839289
	            -0.0061927327        0.0087198992        0.0064839209
	            -0.0122524169        0.0005356940        0.0052388463
	            -0.0416962341        0.0228981535       -0.0012502183
	            -0.0041700332        0.0116176311        0.0039899152
	            -0.0101566083       -0.0032517131        0.0057782465
	            -0.0093105732        0.0050119446       -0.0012667005
	             0.0052929693       -0.0024559279       -0.0053354163
	             0.0461541402       -0.0245452861       -0.0278639929
	             0.0414848478       -0.0196473000        0.0065276265
	             0.0100023541       -0.0056630390       -0.0064460481
	             0.0000595423        0.0000046823       -0.0011877307
	            -0.0131792225        0.0072140534       -0.0033982853
	            -0.0037367711        0.0022673926       -0.0043480382
	            -0.0018303625        0.0016233554       -0.0087357339
	             0.0025016430        0.0051248368       -0.0019580029
	            -0.0013705861       -0.0055140651        0.0007397493
	             0.0035494762       -0.0025797210        0.0070529671
	             0.0011530488        0.0006119820       -0.0008099035
	             0.0004567986       -0.0016995126       -0.0002039613

	Previous optimization step data not found.  Starting new optimization.

	---Fragment 1 Intrafragment Coordinates---
	 - Coordinate -           - BOHR/RAD -       - ANG/DEG -
	 R(1,2)           =         2.634350	       1.394038
	 R(1,8)           =         2.635962	       1.394891
	 R(1,15)          =         2.056795	       1.088409
	 R(2,10)          =         2.635830	       1.394821
	 R(2,16)          =         2.057067	       1.088553
	 R(3,6)           =         2.618556	       1.385680
	 R(3,9)           =         2.627348	       1.390333
	 R(3,17)          =         2.051497	       1.085605
	 R(4,7)           =         2.618758	       1.385787
	 R(4,9)           =         2.627969	       1.390661
	 R(4,18)          =         2.050491	       1.085073
	 R(5,10)          =         2.636938	       1.395407
	 R(5,11)          =         2.635263	       1.394521
	 R(5,19)          =         2.056874	       1.088451
	 R(6,12)          =         2.555210	       1.352159
	 R(6,20)          =         2.049618	       1.084611
	 R(7,12)          =         2.554990	       1.352043
	 R(7,21)          =         2.050210	       1.084924
	 R(8,9)           =         2.734263	       1.446909
	 R(8,11)          =         2.635830	       1.394821
	 R(10,13)         =         2.422221	       1.281784
	 R(11,14)         =         2.534359	       1.341125
	 B(1,2,10)        =         2.094553	     120.009056
	 B(1,2,16)        =         2.068903	     118.539404
	 B(1,8,9)         =         2.091392	     119.827938
	 B(1,8,11)        =         2.093692	     119.959722
	 B(2,1,8)         =         2.094940	     120.031219
	 B(2,1,15)        =         2.079908	     119.169966
	 B(2,10,5)        =         2.094306	     119.994870
	 B(2,10,13)       =         2.094719	     120.018581
	 B(3,6,12)        =         2.165032	     124.047220
	 B(3,6,20)        =         2.107959	     120.777165
	 B(3,9,4)         =         2.089844	     119.739261
	 B(3,9,8)         =         2.097134	     120.156940
	 B(4,7,12)        =         2.165035	     124.047377
	 B(4,7,21)        =         2.107814	     120.768847
	 B(4,9,8)         =         2.096206	     120.103772
	 B(5,10,13)       =         2.094160	     119.986548
	 B(5,11,8)        =         2.095181	     120.045019
	 B(5,11,14)       =         2.081414	     119.256220
	 B(6,3,9)         =         2.057946	     117.911600
	 B(6,3,17)        =         2.098381	     120.228388
	 B(6,12,7)        =         2.030745	     116.353111
	 B(7,4,9)         =         2.057768	     117.901416
	 B(7,4,18)        =         2.098964	     120.261772
	 B(8,1,15)        =         2.108336	     120.798746
	 B(8,11,14)       =         2.106591	     120.698759
	 B(9,3,17)        =         2.126858	     121.860000
	 B(9,4,18)        =         2.126454	     121.836812
	 B(9,8,11)        =         2.098101	     120.212327
	 B(10,2,16)       =         2.119728	     121.451467
	 B(10,5,11)       =         2.093699	     119.960108
	 B(10,5,19)       =         2.120101	     121.472852
	 B(11,5,19)       =         2.069385	     118.567038
	 B(12,6,20)       =         2.010192	     115.175500
	 B(12,7,21)       =         2.010335	     115.183714
	 D(1,2,10,5)      =        -0.000325	      -0.018609
	 D(1,2,10,13)     =         3.141392	     179.988520
	 D(1,8,9,3)       =         1.308822	      74.989976
	 D(1,8,9,4)       =        -1.833812	    -105.069711
	 D(1,8,11,5)      =         0.000325	       0.018608
	 D(1,8,11,14)     =        -3.141528	    -179.996269
	 D(2,1,8,9)       =        -3.141211	    -179.978157
	 D(2,1,8,11)      =        -0.000348	      -0.019945
	 D(2,10,5,11)     =         0.000301	       0.017261
	 D(2,10,5,19)     =        -3.141543	    -179.997173
	 D(3,6,12,7)      =        -0.000265	      -0.015188
	 D(3,9,4,7)       =         0.000329	       0.018841
	 D(3,9,4,18)      =        -3.141460	    -179.992383
	 D(3,9,8,11)      =        -1.832039	    -104.968130
	 D(4,7,12,6)      =         0.000766	       0.043890
	 D(4,9,3,6)       =         0.000120	       0.006866
	 D(4,9,3,17)      =        -3.140780	    -179.953438
	 D(4,9,8,11)      =         1.308511	      74.972183
	 D(5,10,2,16)     =         3.139529	     179.881752
	 D(5,11,8,9)      =         3.141185	     179.976658
	 D(6,3,9,8)       =         3.140675	     179.947397
	 D(6,12,7,21)     =         3.140773	     179.953019
	 D(7,4,9,8)       =        -3.140226	    -179.921723
	 D(7,12,6,20)     =         3.139180	     179.861787
	 D(8,1,2,10)      =         0.000348	       0.019955
	 D(8,1,2,16)      =        -3.139556	    -179.883288
	 D(8,9,3,17)      =        -0.000225	      -0.012906
	 D(8,9,4,18)      =         0.001170	       0.067053
	 D(8,11,5,10)     =        -0.000301	      -0.017270
	 D(8,11,5,19)     =         3.141536	     179.996748
	 D(9,3,6,12)      =        -0.000160	      -0.009147
	 D(9,3,6,20)      =        -3.139491	    -179.879558
	 D(9,4,7,12)      =        -0.000809	      -0.046336
	 D(9,4,7,21)      =        -3.140731	    -179.950631
	 D(9,8,1,15)      =         0.002066	       0.118384
	 D(9,8,11,14)     =        -0.000667	      -0.038219
	 D(10,2,1,15)     =         3.140283	     179.924984
	 D(10,5,11,14)    =         3.141547	     179.997392
	 D(11,5,10,13)    =        -3.141416	    -179.989865
	 D(11,8,1,15)     =        -3.140256	    -179.923403
	 D(12,6,3,17)     =         3.140752	     179.951832
	 D(12,7,4,18)     =         3.140977	     179.964704
	 D(13,10,2,16)    =        -0.001939	      -0.111119
	 D(13,10,5,19)    =        -0.000075	      -0.004300
	 D(14,11,5,19)    =         0.000199	       0.011410
	 D(15,1,2,16)     =         0.000379	       0.021741
	 D(17,3,6,20)     =         0.001421	       0.081421
	 D(18,4,7,21)     =         0.001054	       0.060410
	 R(4,14)          =         6.102680	       3.229399

	Current energy   :      -652.3165309623

	Using model Hessian from Lindh (1995).
	 - Coordinate -           - BOHR/RAD -       - ANG/DEG -
	 R(1,2)           =         2.634350	       1.394038
	 R(1,8)           =         2.635962	       1.394891
	 R(1,15)          =         2.056795	       1.088409
	 R(2,10)          =         2.635830	       1.394821
	 R(2,16)          =         2.057067	       1.088553
	 R(3,6)           =         2.618556	       1.385680
	 R(3,9)           =         2.627348	       1.390333
	 R(3,17)          =         2.051497	       1.085605
	 R(4,7)           =         2.618758	       1.385787
	 R(4,9)           =         2.627969	       1.390661
	 R(4,18)          =         2.050491	       1.085073
	 R(5,10)          =         2.636938	       1.395407
	 R(5,11)          =         2.635263	       1.394521
	 R(5,19)          =         2.056874	       1.088451
	 R(6,12)          =         2.555210	       1.352159
	 R(6,20)          =         2.049618	       1.084611
	 R(7,12)          =         2.554990	       1.352043
	 R(7,21)          =         2.050210	       1.084924
	 R(8,9)           =         2.734263	       1.446909
	 R(8,11)          =         2.635830	       1.394821
	 R(10,13)         =         2.422221	       1.281784
	 R(11,14)         =         2.534359	       1.341125
	 R(12,20)         =         3.896891	       2.062146
	 R(12,21)         =         3.897349	       2.062388
	 B(1,2,10)        =         2.094553	     120.009056
	 B(1,2,16)        =         2.068903	     118.539404
	 B(1,8,9)         =         2.091392	     119.827938
	 B(1,8,11)        =         2.093692	     119.959722
	 B(2,1,8)         =         2.094940	     120.031219
	 B(2,1,15)        =         2.079908	     119.169966
	 B(2,10,5)        =         2.094306	     119.994870
	 B(2,10,13)       =         2.094719	     120.018581
	 B(3,6,12)        =         2.165032	     124.047220
	 B(3,6,20)        =         2.107959	     120.777165
	 B(3,9,4)         =         2.089844	     119.739261
	 B(3,9,8)         =         2.097134	     120.156940
	 B(4,7,12)        =         2.165035	     124.047377
	 B(4,7,21)        =         2.107814	     120.768847
	 B(4,9,8)         =         2.096206	     120.103772
	 B(5,10,13)       =         2.094160	     119.986548
	 B(5,11,8)        =         2.095181	     120.045019
	 B(5,11,14)       =         2.081414	     119.256220
	 B(6,3,9)         =         2.057946	     117.911600
	 B(6,3,17)        =         2.098381	     120.228388
	 B(6,12,7)        =         2.030745	     116.353111
	 B(6,12,20)       =         0.496101	      28.424520
	 B(6,12,21)       =         2.526902	     144.780841
	 B(6,20,12)       =         0.635300	      36.399980
	 B(7,4,9)         =         2.057768	     117.901416
	 B(7,4,18)        =         2.098964	     120.261772
	 B(7,12,20)       =         2.526844	     144.777508
	 B(7,12,21)       =         0.496158	      28.427745
	 B(7,21,12)       =         0.635100	      36.388542
	 B(8,1,15)        =         2.108336	     120.798746
	 B(8,11,14)       =         2.106591	     120.698759
	 B(9,3,17)        =         2.126858	     121.860000
	 B(9,4,18)        =         2.126454	     121.836812
	 B(9,8,11)        =         2.098101	     120.212327
	 B(10,2,16)       =         2.119728	     121.451467
	 B(10,5,11)       =         2.093699	     119.960108
	 B(10,5,19)       =         2.120101	     121.472852
	 B(11,5,19)       =         2.069385	     118.567038
	 B(12,6,20)       =         2.010192	     115.175500
	 B(12,7,21)       =         2.010335	     115.183714
	 B(20,12,21)      =         3.023000	     173.205161
	 D(1,2,10,5)      =        -0.000325	      -0.018609
	 D(1,2,10,13)     =         3.141392	     179.988520
	 D(1,8,9,3)       =         1.308822	      74.989976
	 D(1,8,9,4)       =        -1.833812	    -105.069711
	 D(1,8,11,5)      =         0.000325	       0.018608
	 D(1,8,11,14)     =        -3.141528	    -179.996269
	 D(2,1,8,9)       =        -3.141211	    -179.978157
	 D(2,1,8,11)      =        -0.000348	      -0.019945
	 D(2,10,5,11)     =         0.000301	       0.017261
	 D(2,10,5,19)     =        -3.141543	    -179.997173
	 D(3,6,12,7)      =        -0.000265	      -0.015188
	 D(3,6,12,20)     =        -3.139445	    -179.876976
	 D(3,6,12,21)     =         0.000412	       0.023593
	 D(3,6,20,12)     =         3.139522	     179.881356
	 D(3,9,4,7)       =         0.000329	       0.018841
	 D(3,9,4,18)      =        -3.141460	    -179.992383
	 D(3,9,8,11)      =        -1.832039	    -104.968130
	 D(4,7,12,6)      =         0.000766	       0.043890
	 D(4,7,12,20)     =         0.002757	       0.157958
	 D(4,7,12,21)     =        -3.140007	    -179.909129
	 D(4,7,21,12)     =         3.140063	     179.912372
	 D(4,9,3,6)       =         0.000120	       0.006866
	 D(4,9,3,17)      =        -3.140780	    -179.953438
	 D(4,9,8,11)      =         1.308511	      74.972183
	 D(5,10,2,16)     =         3.139529	     179.881752
	 D(5,11,8,9)      =         3.141185	     179.976658
	 D(6,3,9,8)       =         3.140675	     179.947397
	 D(6,12,7,21)     =         3.140773	     179.953019
	 D(6,12,21,7)     =        -0.001274	      -0.072999
	 D(6,20,12,7)     =        -0.003748	      -0.214735
	 D(6,20,12,21)    =        -0.008459	      -0.484667
	 D(7,4,9,8)       =        -3.140226	    -179.921723
	 D(7,12,6,20)     =         3.139180	     179.861787
	 D(7,21,12,20)    =         0.005708	       0.327034
	 D(8,1,2,10)      =         0.000348	       0.019955
	 D(8,1,2,16)      =        -3.139556	    -179.883288
	 D(8,9,3,17)      =        -0.000225	      -0.012906
	 D(8,9,4,18)      =         0.001170	       0.067053
	 D(8,11,5,10)     =        -0.000301	      -0.017270
	 D(8,11,5,19)     =         3.141536	     179.996748
	 D(9,3,6,12)      =        -0.000160	      -0.009147
	 D(9,3,6,20)      =        -3.139491	    -179.879558
	 D(9,4,7,12)      =        -0.000809	      -0.046336
	 D(9,4,7,21)      =        -3.140731	    -179.950631
	 D(9,8,1,15)      =         0.002066	       0.118384
	 D(9,8,11,14)     =        -0.000667	      -0.038219
	 D(10,2,1,15)     =         3.140283	     179.924984
	 D(10,5,11,14)    =         3.141547	     179.997392
	 D(11,5,10,13)    =        -3.141416	    -179.989865
	 D(11,8,1,15)     =        -3.140256	    -179.923403
	 D(12,6,3,17)     =         3.140752	     179.951832
	 D(12,7,4,18)     =         3.140977	     179.964704
	 D(13,10,2,16)    =        -0.001939	      -0.111119
	 D(13,10,5,19)    =        -0.000075	      -0.004300
	 D(14,11,5,19)    =         0.000199	       0.011410
	 D(15,1,2,16)     =         0.000379	       0.021741
	 D(17,3,6,20)     =         0.001421	       0.081421
	 D(18,4,7,21)     =         0.001054	       0.060410
	 D(20,6,12,21)    =         3.139857	     179.900569
	 D(20,12,7,21)    =        -3.140422	    -179.932913

	Adding user-defined constraint: Fragment 1; Coordinate 59:
		Value =     1.308822; Fixed value    =     1.308997
		Force =     0.000087; Force constant =     0.500000
	Removing off-diagonal coupling between coordinate 59 and others.
	Taking RFO optimization step.
	Going to follow RFO solution 1.
	Using RFO vector 1.

	Determining step-restricting scale parameter for RS-RFO.
	Maximum step size allowed    0.10000

	 Iter      |step|        alpha        rfo_root  
	------------------------------------------------
	    0     0.21279       1.00000           1
	    1     0.17163       3.88373           1
	    2     0.13451      14.63576           1
	    3     0.11065      30.98112           1
	    4     0.10150      41.24034           1
	    5     0.10004      43.19696           1
	    6     0.10000      43.24803           1
	------------------------------------------------
	Norm of target step-size    0.10000
	Projected energy change by RFO approximation:        -0.0069033443

	Back-transformation to cartesian coordinates...
	Could not converge backtransformation.
	Using first guess instead.

	--- Internal Coordinate Step in ANG or DEG, aJ/ANG or AJ/DEG ---
	 ---------------------------------------------------------------------------
	   Coordinate                Previous        Force       Change         New 
	   ----------                --------       ------       ------       ------
	    1 R(1,2)          =      1.394038    -0.040942    -0.002690     1.391348
	    2 R(1,8)          =      1.394891     0.018314     0.001121     1.396012
	    3 R(1,15)         =      1.088409    -0.035665    -0.002890     1.085519
	    4 R(2,10)         =      1.394821     0.211938     0.014969     1.409790
	    5 R(2,16)         =      1.088553    -0.055372    -0.004497     1.084056
	    6 R(3,6)          =      1.385680     0.017085     0.001133     1.386814
	    7 R(3,9)          =      1.390333    -0.002558     0.000294     1.390627
	    8 R(3,17)         =      1.085605    -0.040342    -0.003266     1.082339
	    9 R(4,7)          =      1.385787     0.013205     0.000867     1.386654
	   10 R(4,9)          =      1.390661    -0.004160     0.000179     1.390841
	   11 R(4,18)         =      1.085073    -0.037941    -0.003067     1.082006
	   12 R(5,10)         =      1.395407     0.198088     0.014147     1.409554
	   13 R(5,11)         =      1.394521    -0.100874    -0.006778     1.387743
	   14 R(5,19)         =      1.088451    -0.058429    -0.004744     1.083707
	   15 R(6,12)         =      1.352159    -0.113048    -0.007222     1.344937
	   16 R(6,20)         =      1.084611    -0.012461    -0.000963     1.083648
	   17 R(7,12)         =      1.352043    -0.109930    -0.007036     1.345006
	   18 R(7,21)         =      1.084924    -0.014448    -0.001116     1.083809
	   19 R(8,9)          =      1.446909     0.149405     0.011175     1.458084
	   20 R(8,11)         =      1.394821    -0.040885    -0.002880     1.391941
	   21 R(10,13)        =      1.281784     0.005089     0.000291     1.282075
	   22 R(11,14)        =      1.341125     0.119468     0.007373     1.348498
	   23 B(1,2,10)       =    120.009056     0.000586     0.794644   120.803700
	   24 B(1,2,16)       =    118.539404     0.000183     0.266067   118.805471
	   25 B(1,8,9)        =    119.827938     0.000611     0.827952   120.655890
	   26 B(1,8,11)       =    119.959722    -0.000977    -1.368514   118.591207
	   27 B(2,1,8)        =    120.031219     0.000658     0.781990   120.813209
	   28 B(2,1,15)       =    119.169966     0.000014     0.091034   119.261001
	   29 B(2,10,5)       =    119.994870    -0.001902    -2.099384   117.895487
	   30 B(2,10,13)      =    120.018581     0.001045     1.147847   121.166429
	   31 B(3,6,12)       =    124.047220     0.000051     0.019498   124.066718
	   32 B(3,6,20)       =    120.777165    -0.000045    -0.041551   120.735614
	   33 B(3,9,4)        =    119.739261    -0.001244    -1.460710   118.278551
	   34 B(3,9,8)        =    120.156940     0.000609     0.708243   120.865183
	   35 B(4,7,12)       =    124.047377     0.000059     0.026543   124.073920
	   36 B(4,7,21)       =    120.768847    -0.000047    -0.043378   120.725469
	   37 B(4,9,8)        =    120.103772     0.000635     0.752370   120.856143
	   38 B(5,10,13)      =    119.986548     0.000858     0.951534   120.938082
	   39 B(5,11,8)       =    120.045019     0.001169     1.301642   121.346661
	   40 B(5,11,14)      =    119.256220    -0.000078    -0.088966   119.167254
	   41 B(6,3,9)        =    117.911600     0.000595     0.796365   118.707965
	   42 B(6,3,17)       =    120.228388    -0.000025    -0.020416   120.207972
	   43 B(6,12,7)       =    116.353111    -0.000062    -0.182090   116.171021
	   44 B(7,4,9)        =    117.901416     0.000600     0.800317   118.701733
	   45 B(7,4,18)       =    120.261772    -0.000034    -0.030589   120.231182
	   46 B(8,1,15)       =    120.798746    -0.000673    -0.873092   119.925653
	   47 B(8,11,14)      =    120.698759    -0.001091    -1.212689   119.486070
	   48 B(9,3,17)       =    121.860000    -0.000570    -0.775943   121.084057
	   49 B(9,4,18)       =    121.836812    -0.000566    -0.769727   121.067085
	   50 B(9,8,11)       =    120.212327     0.000367     0.540537   120.752864
	   51 B(10,2,16)      =    121.451467    -0.000769    -1.060706   120.390761
	   52 B(10,5,11)      =    119.960108     0.000466     0.589571   120.549679
	   53 B(10,5,19)      =    121.472852    -0.000570    -0.757344   120.715509
	   54 B(11,5,19)      =    118.567038     0.000105     0.167774   118.734812
	   55 B(12,6,20)      =    115.175500    -0.000006     0.021904   115.197404
	   56 B(12,7,21)      =    115.183714    -0.000011     0.016790   115.200504
	   57 D(1,2,10,5)     =     -0.018609    -0.000003    -0.039956    -0.058565
	   58 D(1,2,10,13)    =    179.988520    -0.000003    -0.027115   179.961405
	   59 D(1,8,9,3)      =     74.989976    -0.000025    -0.165225    74.824751
	   60 D(1,8,9,4)      =   -105.069711    -0.000029    -0.235687  -105.305398
	   61 D(1,8,11,5)     =      0.018608    -0.000006    -0.082942    -0.064334
	   62 D(1,8,11,14)    =   -179.996269    -0.000001    -0.022933  -180.019202
	   63 D(2,1,8,9)      =   -179.978157    -0.000007    -0.090112  -180.068269
	   64 D(2,1,8,11)     =     -0.019945     0.000001     0.023182     0.003237
	   65 D(2,10,5,11)    =      0.017261    -0.000002    -0.018967    -0.001706
	   66 D(2,10,5,19)    =   -179.997173    -0.000001    -0.007531  -180.004704
	   67 D(3,6,12,7)     =     -0.015188     0.000002     0.017905     0.002716
	   68 D(3,9,4,7)      =      0.018841    -0.000004    -0.048846    -0.030005
	   69 D(3,9,4,18)     =   -179.992383    -0.000002    -0.036363  -180.028747
	   70 D(3,9,8,11)     =   -104.968130    -0.000033    -0.280180  -105.248310
	   71 D(4,7,12,6)     =      0.043890     0.000002     0.025253     0.069143
	   72 D(4,9,3,6)      =      0.006866     0.000008     0.088040     0.094906
	   73 D(4,9,3,17)     =   -179.953438     0.000006     0.075969  -179.877469
	   74 D(4,9,8,11)     =     74.972183    -0.000037    -0.350642    74.621541
	   75 D(5,10,2,16)    =    179.881752    -0.000003    -0.036112   179.845641
	   76 D(5,11,8,9)     =    179.976658     0.000001     0.030587   180.007245
	   77 D(6,3,9,8)      =    179.947397     0.000004     0.020640   179.968037
	   78 D(6,12,7,21)    =    179.953019    -0.000001    -0.002488   179.950530
	   79 D(7,4,9,8)      =   -179.921723    -0.000000     0.018574  -179.903149
	   80 D(7,12,6,20)    =    179.861787    -0.000004    -0.045283   179.816504
	   81 D(8,1,2,10)     =      0.019955     0.000004     0.038572     0.058527
	   82 D(8,1,2,16)     =   -179.883288     0.000004     0.036116  -179.847172
	   83 D(8,9,3,17)     =     -0.012906     0.000003     0.008569    -0.004337
	   84 D(8,9,4,18)     =      0.067053     0.000001     0.031057     0.098110
	   85 D(8,11,5,10)    =     -0.017270     0.000007     0.081100     0.063830
	   86 D(8,11,5,19)    =    179.996748     0.000006     0.070023   180.066770
	   87 D(9,3,6,12)     =     -0.009147    -0.000007    -0.075603    -0.084750
	   88 D(9,3,6,20)     =   -179.879558    -0.000001    -0.009163  -179.888721
	   89 D(9,4,7,12)     =     -0.046336    -0.000001    -0.009437    -0.055773
	   90 D(9,4,7,21)     =   -179.950631     0.000002     0.019706  -179.930924
	   91 D(9,8,1,15)     =      0.118384    -0.000003    -0.050916     0.067468
	   92 D(9,8,11,14)    =     -0.038219     0.000006     0.090596     0.052377
	   93 D(10,2,1,15)    =    179.924984     0.000000    -0.001303   179.923681
	   94 D(10,5,11,14)   =    179.997392     0.000002     0.021447   180.018839
	   95 D(11,5,10,13)   =   -179.989865    -0.000003    -0.031763  -180.021628
	   96 D(11,8,1,15)    =   -179.923403     0.000005     0.062378  -179.861025
	   97 D(12,6,3,17)    =    179.951832    -0.000006    -0.063958   179.887874
	   98 D(12,7,4,18)    =    179.964704    -0.000003    -0.021725   179.942979
	   99 D(13,10,2,16)   =     -0.111119    -0.000002    -0.023270    -0.134389
	  100 D(13,10,5,19)   =     -0.004300    -0.000002    -0.020327    -0.024626
	  101 D(14,11,5,19)   =      0.011410     0.000001     0.010369     0.021779
	  102 D(15,1,2,16)    =      0.021741    -0.000000    -0.003760     0.017981
	  103 D(17,3,6,20)    =      0.081421     0.000000     0.002482     0.083903
	  104 D(18,4,7,21)    =      0.060410     0.000001     0.007418     0.067828
	  105 R(4,14)         =      3.229399     0.001982     0.000472     3.229871
	 ---------------------------------------------------------------------------
	Successfully symmetrized geometry.
	 Forces used to impose fixed constraints are not included.
	  Forces zeroed: 59 

  ==> Convergence Check <==

  Measures of convergence in internal coordinates in au.
  Criteria marked as inactive (o), active & met (*), and active & unmet ( ).
  --------------------------------------------------------------------------------------------- ~
   Step     Total Energy     Delta E     MAX Force     RMS Force      MAX Disp      RMS Disp    ~
  --------------------------------------------------------------------------------------------- ~
    Convergence Criteria    1.00e-06 *    3.00e-04 *             o    1.20e-03 *             o  ~
  --------------------------------------------------------------------------------------------- ~
      1    -652.31653096   -6.52e+02      2.57e-02      7.05e-03 o    3.66e-02      9.75e-03 o  ~
  ---------------------------------------------------------------------------------------------

	Writing optimization data to binary file.
	Structure for next step:
	Cartesian Geometry (in Angstrom)
	    C    -1.3589697108   0.7777880886  -0.7703076760
	    C    -2.4364576454   1.3492728597  -0.1007747898
	    C     1.7915303024   0.3724839657  -1.3534669287
	    C     0.9350652448  -1.8038099068  -0.8727147962
	    C    -1.4413169677   0.7271147681   2.0102458199
	    C     2.8441006355  -0.2445932411  -2.0126810604
	    C     2.0256561473  -2.3257490305  -1.5516844071
	    C    -0.3154665404   0.1768231254  -0.0640554634
	    C     0.8113411351  -0.4223522542  -0.7692523201
	    C    -2.5003519779   1.3365819848   1.3075098182
	    C    -0.3747540370   0.1607165910   1.3265295164
	    N     2.9845180343  -1.5773901831  -2.1257791388
	    O    -3.4895208339   1.8617473009   1.9315799097
	    F     0.6233185617  -0.4154039862   2.0268037911
	    H    -1.3359577297   0.8005840371  -1.8553431054
	    H    -3.2301885907   1.8050281717  -0.6816840895
	    H     1.7413365181   1.4522730507  -1.2987519426
	    H     0.1988318850  -2.4647086279  -0.4346393404
	    H    -1.4437317302   0.6916077456   3.0933684936
	    H     3.6267601634   0.3429083783  -2.4780624332
	    H     2.1538748950  -3.3971648455  -1.6530211237
			--------------------------
			 OPTKING Finished Execution 
			--------------------------

    Structure for next step:
    Molecular point group: c1
    Full point group: C1

    Geometry (in Angstrom), charge = -1, multiplicity = 1:

    C           -1.355293737706     0.776331062807    -0.770714754117
    C           -2.432781672303     1.347815833917    -0.101181867938
    C            1.795206275559     0.371026939910    -1.353874006791
    C            0.938741217937    -1.805266932584    -0.873121874364
    C           -1.437640994554     0.725657742366     2.009838741769
    C            2.847776608616    -0.246050266896    -2.013088138497
    C            2.029332120442    -2.327206056302    -1.552091485234
    C           -0.311790567241     0.175366099669    -0.064462541475
    C            0.815017108226    -0.423809279974    -0.769659398173
    C           -2.496676004766     1.335124959067     1.307102740070
    C           -0.371078063869     0.159259565234     1.326122438327
    N            2.988194007456    -1.578847208869    -2.126186216946
    O           -3.485844860795     1.860290275108     1.931172831597
    F            0.626994534883    -0.416861011959     2.026396712982
    H           -1.332281756518     0.799127011353    -1.855750183471
    H           -3.226512617520     1.803571145967    -0.682091167644
    H            1.745012491260     1.450816024969    -1.299159020764
    H            0.202507858140    -2.466165653664    -0.435046418540
    H           -1.440055757105     0.690150719883     3.092961415488
    H            3.630436136518     0.341451352532    -2.478469511343
    H            2.157550868103    -3.398621871268    -1.653428201870

gradient() will perform analytic gradient computation.

*** tstart() called on gpu-1-15.local
*** at Tue Nov 14 04:56:40 2017

    SCF Algorithm Type (re)set to DF.

*** tstart() called on gpu-1-15.local
*** at Tue Nov 14 04:56:40 2017

   => Loading Basis Set <=

    Name: AUG-CC-PVTZ
    Role: ORBITAL
    Keyword: BASIS
    atoms 1-11  entry C          line   221 file /cbio/jclab/home/chayas/anaconda/envs/py35/share/psi4/basis/aug-cc-pvtz.gbs 
    atoms 12    entry N          line   267 file /cbio/jclab/home/chayas/anaconda/envs/py35/share/psi4/basis/aug-cc-pvtz.gbs 
    atoms 13    entry O          line   313 file /cbio/jclab/home/chayas/anaconda/envs/py35/share/psi4/basis/aug-cc-pvtz.gbs 
    atoms 14    entry F          line   359 file /cbio/jclab/home/chayas/anaconda/envs/py35/share/psi4/basis/aug-cc-pvtz.gbs 
    atoms 15-21 entry H          line    34 file /cbio/jclab/home/chayas/anaconda/envs/py35/share/psi4/basis/aug-cc-pvtz.gbs 


         ---------------------------------------------------------
                                   SCF
            by Justin Turney, Rob Parrish, and Andy Simmonett
                              RHF Reference
                        8 Threads,   4768 MiB Core
         ---------------------------------------------------------

  ==> Geometry <==

    Molecular point group: c1
    Full point group: C1

    Geometry (in Angstrom), charge = -1, multiplicity = 1:

       Center              X                  Y                   Z               Mass       
    ------------   -----------------  -----------------  -----------------  -----------------
           C         -1.355293737706     0.776331062807    -0.770714754117    12.000000000000
           C         -2.432781672303     1.347815833917    -0.101181867938    12.000000000000
           C          1.795206275559     0.371026939910    -1.353874006791    12.000000000000
           C          0.938741217937    -1.805266932584    -0.873121874364    12.000000000000
           C         -1.437640994554     0.725657742366     2.009838741769    12.000000000000
           C          2.847776608616    -0.246050266896    -2.013088138497    12.000000000000
           C          2.029332120442    -2.327206056302    -1.552091485234    12.000000000000
           C         -0.311790567241     0.175366099669    -0.064462541475    12.000000000000
           C          0.815017108226    -0.423809279974    -0.769659398173    12.000000000000
           C         -2.496676004766     1.335124959067     1.307102740070    12.000000000000
           C         -0.371078063869     0.159259565234     1.326122438327    12.000000000000
           N          2.988194007456    -1.578847208869    -2.126186216946    14.003074004780
           O         -3.485844860795     1.860290275108     1.931172831597    15.994914619560
           F          0.626994534883    -0.416861011959     2.026396712982    18.998403224000
           H         -1.332281756518     0.799127011353    -1.855750183471     1.007825032070
           H         -3.226512617520     1.803571145967    -0.682091167644     1.007825032070
           H          1.745012491260     1.450816024969    -1.299159020764     1.007825032070
           H          0.202507858140    -2.466165653664    -0.435046418540     1.007825032070
           H         -1.440055757105     0.690150719883     3.092961415488     1.007825032070
           H          3.630436136518     0.341451352532    -2.478469511343     1.007825032070
           H          2.157550868103    -3.398621871268    -1.653428201870     1.007825032070

  Running in c1 symmetry.

  Rotational constants: A =      0.06406  B =      0.01302  C =      0.01195 [cm^-1]
  Rotational constants: A =   1920.50092  B =    390.34675  C =    358.21515 [MHz]
  Nuclear repulsion =  798.776963242971988

  Charge       = -1
  Multiplicity = 1
  Electrons    = 98
  Nalpha       = 49
  Nbeta        = 49

  ==> Algorithm <==

  SCF Algorithm Type is DF.
  DIIS enabled.
  MOM disabled.
  Fractional occupation disabled.
  Guess Type is READ.
  Energy threshold   = 1.00e-10
  Density threshold  = 1.00e-10
  Integral threshold = 0.00e+00

  ==> Primary Basis <==

  Basis Set: AUG-CC-PVTZ
    Blend: AUG-CC-PVTZ
    Number of shells: 259
    Number of basis function: 805
    Number of Cartesian functions: 945
    Spherical Harmonics?: true
    Max angular momentum: 3

   => Loading Basis Set <=

    Name: (AUG-CC-PVTZ AUX)
    Role: JKFIT
    Keyword: DF_BASIS_SCF
    atoms 1-11  entry C          line   161 file /cbio/jclab/home/chayas/anaconda/envs/py35/share/psi4/basis/aug-cc-pvtz-jkfit.gbs 
    atoms 12    entry N          line   223 file /cbio/jclab/home/chayas/anaconda/envs/py35/share/psi4/basis/aug-cc-pvtz-jkfit.gbs 
    atoms 13    entry O          line   285 file /cbio/jclab/home/chayas/anaconda/envs/py35/share/psi4/basis/aug-cc-pvtz-jkfit.gbs 
    atoms 14    entry F          line   347 file /cbio/jclab/home/chayas/anaconda/envs/py35/share/psi4/basis/aug-cc-pvtz-jkfit.gbs 
    atoms 15-21 entry H          line    69 file /cbio/jclab/home/chayas/anaconda/envs/py35/share/psi4/basis/aug-cc-pvtz-jkfit.gbs 

  Reading orbitals from file 180, no projection.

  ==> Pre-Iterations <==

   -------------------------------------------------------
    Irrep   Nso     Nmo     Nalpha   Nbeta   Ndocc  Nsocc
   -------------------------------------------------------
     A        805     805       0       0       0       0
   -------------------------------------------------------
    Total     805     805      49      49      49       0
   -------------------------------------------------------

  ==> Integral Setup <==

  ==> DFJK: Density-Fitted J/K Matrices <==

    J tasked:                  Yes
    K tasked:                  Yes
    wK tasked:                  No
    OpenMP threads:              8
    Integrals threads:           8
    Memory (MB):              3576
    Algorithm:                Disk
    Integral Cache:           NONE
    Schwarz Cutoff:          1E-12
    Fitting Condition:       1E-12

   => Auxiliary Basis Set <=

  Basis Set: (AUG-CC-PVTZ AUX)
    Blend: AUG-CC-PVTZ-JKFIT
    Number of shells: 518
    Number of basis function: 1778
    Number of Cartesian functions: 2219
    Spherical Harmonics?: true
    Max angular momentum: 4

  Minimum eigenvalue in the overlap matrix is 8.4834436255E-07.
  Using Symmetric Orthogonalization.

  SCF Guess: Orbitals guess was supplied from a previous computation.

  ==> Iterations <==

                           Total Energy        Delta E     RMS |[F,P]|

   @DF-RHF iter   0:  -649.66472683844597   -6.49665e+02   5.03565e-04 
   @DF-RHF iter   1:  -649.61225517161483    5.24717e-02   6.89929e-05 
   @DF-RHF iter   2:  -649.61255354700575   -2.98375e-04   6.06632e-05 DIIS
   @DF-RHF iter   3:  -649.61267076068361   -1.17214e-04   6.24262e-06 DIIS
   @DF-RHF iter   4:  -649.61267493228092   -4.17160e-06   3.54247e-06 DIIS
   @DF-RHF iter   5:  -649.61267624960601   -1.31733e-06   9.90956e-07 DIIS
   @DF-RHF iter   6:  -649.61267655543702   -3.05831e-07   5.61695e-07 DIIS
   @DF-RHF iter   7:  -649.61267665404444   -9.86074e-08   2.27372e-07 DIIS
   @DF-RHF iter   8:  -649.61267668090011   -2.68557e-08   1.09949e-07 DIIS
   @DF-RHF iter   9:  -649.61267668504684   -4.14673e-09   4.64125e-08 DIIS
   @DF-RHF iter  10:  -649.61267668574362   -6.96787e-10   1.43202e-08 DIIS
   @DF-RHF iter  11:  -649.61267668582468   -8.10587e-11   5.45650e-09 DIIS
   @DF-RHF iter  12:  -649.61267668584378   -1.90994e-11   2.12289e-09 DIIS
   @DF-RHF iter  13:  -649.61267668582923    1.45519e-11   9.08983e-10 DIIS
   @DF-RHF iter  14:  -649.61267668583855   -9.32232e-12   4.27360e-10 DIIS
   @DF-RHF iter  15:  -649.61267668583002    8.52651e-12   1.74713e-10 DIIS
   @DF-RHF iter  16:  -649.61267668583889   -8.86757e-12   7.14510e-11 DIIS

  ==> Post-Iterations <==

    Orbital Energies (a.u.)
    -----------------------

    Doubly Occupied:                                                      

       1A    -26.180785     2A    -20.300254     3A    -15.464797  
       4A    -11.186045     5A    -11.174088     6A    -11.173563  
       7A    -11.151686     8A    -11.130369     9A    -11.129669  
      10A    -11.123576    11A    -11.105888    12A    -11.081455  
      13A    -11.060860    14A    -11.060748    15A     -1.498028  
      16A     -1.153375    17A     -1.128956    18A     -1.023407  
      19A     -0.966352    20A     -0.931254    21A     -0.869177  
      22A     -0.846816    23A     -0.753717    24A     -0.741923  
      25A     -0.698912    26A     -0.672951    27A     -0.610358  
      28A     -0.575193    29A     -0.570197    30A     -0.558220  
      31A     -0.553501    32A     -0.546135    33A     -0.504256  
      34A     -0.495330    35A     -0.469202    36A     -0.456136  
      37A     -0.436987    38A     -0.418532    39A     -0.416027  
      40A     -0.378121    41A     -0.373179    42A     -0.358504  
      43A     -0.318951    44A     -0.291161    45A     -0.264843  
      46A     -0.247656    47A     -0.217636    48A     -0.197341  
      49A     -0.116300  

    Virtual:                                                              

[...]
	 B(8,1,15)        =         2.057953	     117.912038
	 B(8,11,14)       =         2.049979	     117.455118
	 B(9,3,17)        =         2.083627	     119.383010
	 B(9,4,18)        =         2.084408	     119.427766
	 B(9,8,11)        =         2.136451	     122.409600
	 B(10,2,16)       =         2.044487	     117.140454
	 B(10,5,11)       =         2.123632	     121.675173
	 B(10,5,19)       =         2.073519	     118.803882
	 B(11,5,19)       =         2.086025	     119.520431
	 B(12,6,20)       =         2.025502	     116.052725
	 B(12,7,21)       =         2.024684	     116.005855
	 B(20,12,21)      =         3.009231	     172.416262
	 D(1,2,10,5)      =        -0.012935	      -0.741094
	 D(1,2,10,13)     =         3.128010	     179.221789
	 D(1,8,9,3)       =         1.294008	      74.141210
	 D(1,8,9,4)       =        -1.915416	    -109.745273
	 D(1,8,11,5)      =        -0.053732	      -3.078644
	 D(1,8,11,14)     =         3.108886	     178.126028
	 D(2,1,8,9)       =         3.035235	     173.906142
	 D(2,1,8,11)      =         0.040833	       2.339549
	 D(2,10,5,11)     =         0.001348	       0.077221
	 D(2,10,5,19)     =         3.138363	     179.814929
	 D(3,6,12,7)      =         0.000480	       0.027518
	 D(3,6,12,20)     =        -3.125659	    -179.087045
	 D(3,6,12,21)     =        -0.006689	      -0.383251
	 D(3,6,20,12)     =         3.126302	     179.123920
	 D(3,9,4,7)       =        -0.032281	      -1.849562
	 D(3,9,4,18)      =         3.112960	     178.359448
	 D(3,9,8,11)      =        -2.005757	    -114.921411
	 D(4,7,12,6)      =         0.011958	       0.685148
	 D(4,7,12,20)     =         0.024455	       1.401158
	 D(4,7,12,21)     =        -3.138496	    -179.822598
	 D(4,7,21,12)     =         3.138627	     179.830076
	 D(4,9,3,6)       =         0.043777	       2.508236
	 D(4,9,3,17)      =        -3.103466	    -177.815496
	 D(4,9,8,11)      =         1.068004	      61.192106
	 D(5,10,2,16)     =         3.119694	     178.745290
	 D(5,11,8,9)      =        -3.047596	    -174.614410
	 D(6,3,9,8)       =         3.121533	     178.850654
	 D(6,12,7,21)     =        -3.132731	    -179.492254
	 D(6,12,21,7)     =         0.013626	       0.780701
	 D(6,20,12,7)     =        -0.023757	      -1.361170
	 D(6,20,12,21)    =        -0.100351	      -5.749714
	 D(7,4,9,8)       =        -3.110019	    -178.190971
	 D(7,12,6,20)     =         3.126139	     179.114563
	 D(7,21,12,20)    =         0.094748	       5.428644
	 D(8,1,2,10)      =        -0.009119	      -0.522491
	 D(8,1,2,16)      =        -3.141494	    -179.994335
	 D(8,9,3,17)      =        -0.025710	      -1.473079
	 D(8,9,4,18)      =         0.035221	       2.018039
	 D(8,11,5,10)     =         0.033979	       1.946839
	 D(8,11,5,19)     =        -3.103004	    -177.789032
	 D(9,3,6,12)      =        -0.029585	      -1.695074
	 D(9,3,6,20)      =         3.128551	     179.252761
	 D(9,4,7,12)      =         0.004767	       0.273138
	 D(9,4,7,21)      =        -3.133612	    -179.542714
	 D(9,8,1,15)      =        -0.099770	      -5.716384
	 D(9,8,11,14)     =         0.115022	       6.590262
	 D(10,2,1,15)     =         3.125781	     179.094063
	 D(10,5,11,14)    =        -3.128769	    -179.265244
	 D(11,5,10,13)    =        -3.139600	    -179.885857
	 D(11,8,1,15)     =        -3.094172	    -177.282977
	 D(12,6,3,17)     =         3.117717	     178.632034
	 D(12,7,4,18)     =        -3.140511	    -179.938038
	 D(13,10,2,16)    =        -0.022547	      -1.291827
	 D(13,10,5,19)    =        -0.002586	      -0.148149
	 D(14,11,5,19)    =         0.017434	       0.998885
	 D(15,1,2,16)     =        -0.006594	      -0.377782
	 D(17,3,6,20)     =        -0.007333	      -0.420132
	 D(18,4,7,21)     =         0.004295	       0.246111
	 D(20,6,12,21)    =         3.118970	     178.703793
	 D(20,12,7,21)    =        -3.120234	    -178.776244

	Adding user-defined constraint: Fragment 1; Coordinate 59:
		Value =     1.294008; Fixed value    =     1.308997
		Force =     0.007494; Force constant =     0.500000
	Removing off-diagonal coupling between coordinate 59 and others.
	Taking RFO optimization step.
	Going to follow RFO solution 1.
	Using RFO vector 1.

	Determining step-restricting scale parameter for RS-RFO.
	Maximum step size allowed    0.10000

	 Iter      |step|        alpha        rfo_root  
	------------------------------------------------
	    0     0.12812       1.00000           1
	    1     0.11665       3.62137           1
	    2     0.10331       9.15247           1
	    3     0.10016      10.82863           1
	    4     0.10000      10.91841           1
	------------------------------------------------
	Norm of target step-size    0.10000
	Projected energy change by RFO approximation:        -0.0000832525

	Back-transformation to cartesian coordinates...
	Successfully converged to displaced geometry.

	--- Internal Coordinate Step in ANG or DEG, aJ/ANG or AJ/DEG ---
	 ---------------------------------------------------------------------------
	   Coordinate                Previous        Force       Change         New 
	   ----------                --------       ------       ------       ------
	    1 R(1,2)          =      1.378252     0.000007     0.000001     1.378253
	    2 R(1,8)          =      1.402491    -0.000172    -0.000055     1.402436
	    3 R(1,15)         =      1.083568    -0.000365    -0.000133     1.083435
	    4 R(2,10)         =      1.435612    -0.000303    -0.000047     1.435565
	    5 R(2,16)         =      1.081159    -0.000427    -0.000094     1.081065
	    6 R(3,6)          =      1.386231     0.000013    -0.000030     1.386201
	    7 R(3,9)          =      1.394100    -0.000787    -0.000149     1.393951
	    8 R(3,17)         =      1.080162    -0.000098    -0.000093     1.080070
	    9 R(4,7)          =      1.385203    -0.000019    -0.000034     1.385169
	   10 R(4,9)          =      1.394544    -0.000559    -0.000161     1.394383
	   11 R(4,18)         =      1.079912    -0.000386    -0.000132     1.079780
	   12 R(5,10)         =      1.434535     0.000504     0.000066     1.434601
	   13 R(5,11)         =      1.369764    -0.000919    -0.000174     1.369590
	   14 R(5,19)         =      1.079386    -0.000481    -0.000131     1.079255
	   15 R(6,12)         =      1.337223    -0.000660    -0.000119     1.337103
	   16 R(6,20)         =      1.082468    -0.000255    -0.000096     1.082372
	   17 R(7,12)         =      1.338170    -0.000565    -0.000122     1.338048
	   18 R(7,21)         =      1.082382    -0.000336    -0.000091     1.082291
	   19 R(8,9)          =      1.457602     0.001162     0.000069     1.457671
	   20 R(8,11)         =      1.390361    -0.000170    -0.000312     1.390048
	   21 R(10,13)        =      1.263936    -0.000172    -0.000003     1.263933
	   22 R(11,14)        =      1.373126    -0.001659    -0.000305     1.372821
	   23 B(1,2,10)       =    122.785297    -0.000001    -0.003588   122.781709
	   24 B(1,2,16)       =    120.072258    -0.000001    -0.008547   120.063711
	   25 B(1,8,9)        =    122.080614     0.000003     0.061727   122.142341
	   26 B(1,8,11)       =    114.944217     0.000004    -0.003544   114.940674
	   27 B(2,1,8)        =    122.534306    -0.000002    -0.004464   122.529842
	   28 B(2,1,15)       =    119.552591    -0.000000    -0.001149   119.551443
	   29 B(2,10,5)       =    113.584691    -0.000001    -0.006639   113.578052
	   30 B(2,10,13)      =    123.439204     0.000001     0.005210   123.444414
	   31 B(3,6,12)       =    123.861761    -0.000002    -0.003437   123.858324
	   32 B(3,6,20)       =    120.079244     0.000001     0.002615   120.081859
	   33 B(3,9,4)        =    115.789371     0.000001    -0.002506   115.786865
	   34 B(3,9,8)        =    122.040130     0.000004     0.047820   122.087949
	   35 B(4,7,12)       =    123.970544    -0.000003    -0.005888   123.964656
	   36 B(4,7,21)       =    120.023365     0.000001     0.009607   120.032973
	   37 B(4,9,8)        =    122.065329    -0.000004    -0.057920   122.007410
	   38 B(5,10,13)      =    122.976094    -0.000000    -0.002786   122.973307
	   39 B(5,11,8)       =    124.412476    -0.000002     0.009692   124.422168
	   40 B(5,11,14)      =    118.121893     0.000006     0.061398   118.183291
	   41 B(6,3,9)        =    120.199595     0.000001     0.001098   120.200693
	   42 B(6,3,17)       =    120.416596    -0.000003    -0.010309   120.406287
	   43 B(6,12,7)       =    116.015546     0.000003     0.003977   116.019524
	   44 B(7,4,9)        =    120.118910     0.000000     0.004524   120.123434
	   45 B(7,4,18)       =    120.452991    -0.000001    -0.009518   120.443473
	   46 B(8,1,15)       =    117.912038     0.000002     0.004528   117.916566
	   47 B(8,11,14)      =    117.455118    -0.000003    -0.072832   117.382286
	   48 B(9,3,17)       =    119.383010     0.000002     0.009605   119.392615
	   49 B(9,4,18)       =    119.427766     0.000001     0.004437   119.432203
	   50 B(9,8,11)       =    122.409600    -0.000005    -0.138983   122.270618
	   51 B(10,2,16)      =    117.140454     0.000002     0.011469   117.151924
	   52 B(10,5,11)      =    121.675173     0.000002    -0.006939   121.668234
	   53 B(10,5,19)      =    118.803882    -0.000002     0.001354   118.805235
	   54 B(11,5,19)      =    119.520431     0.000001     0.005582   119.526013
	   55 B(12,6,20)      =    116.052725     0.000002    -0.003847   116.048877
	   56 B(12,7,21)      =    116.005855     0.000001    -0.003748   116.002107
	   57 D(1,2,10,5)     =     -0.741094    -0.000002    -0.477883    -1.218976
	   58 D(1,2,10,13)    =    179.221789     0.000000     0.288154   179.509942
	   59 D(1,8,9,3)      =     74.141210    -0.000007    -0.247289    73.893921
	   60 D(1,8,9,4)      =   -109.745273    -0.000002    -0.473423  -110.218696
	   61 D(1,8,11,5)     =     -3.078644     0.000001    -0.286522    -3.365166
	   62 D(1,8,11,14)    =    178.126028     0.000003    -0.191226   177.934801
	   63 D(2,1,8,9)      =    173.906142     0.000001    -0.474220   173.431922
	   64 D(2,1,8,11)     =      2.339549    -0.000002     0.117160     2.456709
	   65 D(2,10,5,11)    =      0.077221     0.000000     0.313993     0.391214
	   66 D(2,10,5,19)    =    179.814929    -0.000000     0.313083   180.128013
	   67 D(3,6,12,7)     =      0.027518     0.000000     0.049080     0.076598
	   68 D(3,9,4,7)      =     -1.849562     0.000002    -0.079962    -1.929524
	   69 D(3,9,4,18)     =    178.359448     0.000003     0.052806   178.412254
	   70 D(3,9,8,11)     =   -114.921411    -0.000003    -0.868842  -115.790253
	   71 D(4,7,12,6)     =      0.685148    -0.000001    -0.060687     0.624461
	   72 D(4,9,3,6)      =      2.508236    -0.000003     0.069408     2.577644
	   73 D(4,9,3,17)     =   -177.815496    -0.000000     0.162550  -177.652946
	   74 D(4,9,8,11)     =     61.192106     0.000002    -1.094976    60.097130
	   75 D(5,10,2,16)    =    178.745290    -0.000001    -0.557646   178.187644
	   76 D(5,11,8,9)     =   -174.614410    -0.000003     0.286873  -174.327536
	   77 D(6,3,9,8)      =    178.850654     0.000001    -0.145738   178.704916
	   78 D(6,12,7,21)    =   -179.492254    -0.000001    -0.070926  -179.563180
	   79 D(7,4,9,8)      =   -178.190971    -0.000002     0.130764  -178.060208
	   80 D(7,12,6,20)    =    179.114563    -0.000001    -0.243744   178.870819
	   81 D(8,1,2,10)     =     -0.522491     0.000003     0.277252    -0.245239
	   82 D(8,1,2,16)     =   -179.994335     0.000003     0.359158  -179.635177
	   83 D(8,9,3,17)     =     -1.473079     0.000004    -0.052596    -1.525674
	   84 D(8,9,4,18)     =      2.018039    -0.000002     0.263532     2.281570
	   85 D(8,11,5,10)    =      1.946839     0.000000     0.061588     2.008428
	   86 D(8,11,5,19)    =   -177.789032     0.000001     0.062516  -177.726516
	   87 D(9,3,6,12)     =     -1.695074     0.000002    -0.057391    -1.752465
	   88 D(9,3,6,20)     =    179.252761     0.000003     0.246697   179.499457
	   89 D(9,4,7,12)     =      0.273138     0.000000     0.080282     0.353419
	   90 D(9,4,7,21)     =   -179.542714     0.000000     0.090935  -179.451779
	   91 D(9,8,1,15)     =     -5.716384     0.000004    -0.315336    -6.031720
	   92 D(9,8,11,14)    =      6.590262    -0.000001     0.382169     6.972431
	   93 D(10,2,1,15)    =    179.094063     0.000000     0.115883   179.209945
	   94 D(10,5,11,14)   =   -179.265244    -0.000002    -0.035908  -179.301152
	   95 D(11,5,10,13)   =   -179.885857    -0.000002    -0.447934  -180.333791
	   96 D(11,8,1,15)    =   -177.282977     0.000000     0.276044  -177.006933
	   97 D(12,6,3,17)    =    178.632034    -0.000001    -0.151551   178.480483
	   98 D(12,7,4,18)    =   -179.938038    -0.000001    -0.053813  -179.991851
	   99 D(13,10,2,16)   =     -1.291827     0.000001     0.208390    -1.083437
	  100 D(13,10,5,19)   =     -0.148149    -0.000002    -0.448844    -0.596993
	  101 D(14,11,5,19)   =      0.998885    -0.000002    -0.034980     0.963904
	  102 D(15,1,2,16)    =     -0.377782    -0.000000     0.197789    -0.179993
	  103 D(17,3,6,20)    =     -0.420132     0.000000     0.152537    -0.267594
	  104 D(18,4,7,21)    =      0.246111    -0.000001    -0.043160     0.202951
	  105 R(4,14)         =      3.112388    -0.001888    -0.018926     3.093463
	  106 R(1,X)          =     -1.319624     0.000503     0.002852    -1.316772
	  107 R(1,Y)          =      0.897609     0.001125     0.010029     0.907638
	  108 R(1,Z)          =     -0.742041     0.000307     0.000378    -0.741663
	  109 R(2,X)          =     -2.416330     0.000107     0.000965    -2.415365
	  110 R(2,Y)          =      1.401486     0.000531     0.004226     1.405712
	  111 R(2,Z)          =     -0.076517     0.000119     0.001635    -0.074882
	  112 R(3,X)          =      1.829377    -0.000790    -0.000938     1.828439
	  113 R(3,Y)          =      0.362375    -0.000533     0.000562     0.362938
	  114 R(3,Z)          =     -1.445068    -0.000778    -0.008352    -1.453420
	  115 R(4,X)          =      0.998041     0.000871     0.001479     0.999520
	  116 R(4,Y)          =     -1.755973     0.000378     0.004657    -1.751316
	  117 R(4,Z)          =     -0.811513     0.000924     0.007201    -0.804312
	  118 R(5,X)          =     -1.476834     0.000170    -0.000964    -1.477798
	  119 R(5,Y)          =      0.653187    -0.000625    -0.006711     0.646476
	  120 R(5,Z)          =      2.002965    -0.000237    -0.001548     2.001417
	  121 R(6,X)          =      2.863618    -0.000517    -0.001840     2.861779
	  122 R(6,Y)          =     -0.289754    -0.000352    -0.003189    -0.292943
	  123 R(6,Z)          =     -2.098297    -0.000557    -0.005956    -2.104252
	  124 R(7,X)          =      2.071729     0.000360     0.000337     2.072066
	  125 R(7,Y)          =     -2.323566     0.000170     0.000702    -2.322864
	  126 R(7,Z)          =     -1.477711     0.000316     0.008815    -1.468896
	  127 R(8,X)          =     -0.254626    -0.000994     0.002591    -0.252035
	  128 R(8,Y)          =      0.273333    -0.000736     0.007568     0.280901
	  129 R(8,Z)          =     -0.076429     0.000593    -0.001637    -0.078066
	  130 R(9,X)          =      0.837033     0.001340     0.000365     0.837398
	  131 R(9,Y)          =     -0.370841    -0.000134     0.004438    -0.366403
	  132 R(9,Z)          =     -0.796098     0.001240    -0.002342    -0.798439
	  133 R(10,X)         =     -2.565540     0.000193     0.001473    -2.564066
	  134 R(10,Y)         =      1.320233     0.000554     0.000261     1.320493
	  135 R(10,Z)         =      1.349006    -0.000177     0.001409     1.350415
	  136 R(11,X)         =     -0.411783    -0.000849    -0.000813    -0.412596
	  137 R(11,Y)         =      0.155456    -0.001178    -0.003381     0.152076
	  138 R(11,Z)         =      1.299983     0.000400    -0.003327     1.296655
	  139 R(12,X)         =      3.005082    -0.000455    -0.001030     3.004052
	  140 R(12,Y)         =     -1.619134     0.000296    -0.003154    -1.622288
	  141 R(12,Z)         =     -2.128346     0.000447     0.002968    -2.125378
	  142 R(13,X)         =     -3.558870    -0.000077    -0.002704    -3.561574
	  143 R(13,Y)         =      1.790481    -0.000529    -0.009757     1.780724
	  144 R(13,Z)         =      1.973261    -0.000137     0.002207     1.975469
	  145 R(14,X)         =      0.582993    -0.000936    -0.002373     0.580620
	  146 R(14,Y)         =     -0.483431     0.000290    -0.009930    -0.493360
	  147 R(14,Z)         =      1.998351    -0.001395    -0.007742     1.990609
	  148 R(15,X)         =     -1.267801     0.000613     0.003314    -1.264488
	  149 R(15,Y)         =      0.974487     0.001143     0.014455     0.988942
	  150 R(15,Z)         =     -1.821635     0.000680     0.000858    -1.820777
	  151 R(16,X)         =     -3.215269     0.000422    -0.001363    -3.216631
	  152 R(16,Y)         =      1.875253    -0.000031     0.001185     1.876438
	  153 R(16,Z)         =     -0.629824     0.000019     0.002591    -0.627233
	  154 R(17,X)         =      1.781190    -0.000485    -0.000189     1.781002
	  155 R(17,Y)         =      1.441440    -0.000616     0.000524     1.441964
	  156 R(17,Z)         =     -1.438089    -0.001045    -0.013733    -1.451822
	  157 R(18,X)         =      0.277577     0.000903     0.002138     0.279715
	  158 R(18,Y)         =     -2.379570     0.000428     0.007594    -2.371976
	  159 R(18,Z)         =     -0.303310     0.000210     0.011432    -0.291879
	  160 R(19,X)         =     -1.501335    -0.000040    -0.003126    -1.504461
	  161 R(19,Y)         =      0.547626    -0.000206    -0.014649     0.532977
	  162 R(19,Z)         =      3.076898    -0.000684    -0.002541     3.074356
	  163 R(20,X)         =      3.626485    -0.000516    -0.000638     3.625847
	  164 R(20,Y)         =      0.281256    -0.000471    -0.006158     0.275097
	  165 R(20,Z)         =     -2.611832    -0.000150    -0.007259    -2.619091
	  166 R(21,X)         =      2.191118     0.000179     0.000462     2.191579
	  167 R(21,Y)         =     -3.399206     0.000494     0.000727    -3.398479
	  168 R(21,Z)         =     -1.494939    -0.000093     0.014943    -1.479996
	 ---------------------------------------------------------------------------
	Successfully symmetrized geometry.
	 Forces used to impose fixed constraints are not included.
	  Forces zeroed: 59 

  ==> Convergence Check <==

  Measures of convergence in internal coordinates in au.
  Criteria marked as inactive (o), active & met (*), and active & unmet ( ).
  --------------------------------------------------------------------------------------------- ~
   Step     Total Energy     Delta E     MAX Force     RMS Force      MAX Disp      RMS Disp    ~
  --------------------------------------------------------------------------------------------- ~
    Convergence Criteria    1.00e-06 *    3.00e-04 *             o    1.20e-03 *             o  ~
  --------------------------------------------------------------------------------------------- ~
      1    -652.32741195   -6.52e+02      2.47e-04 *    8.11e-05 o    3.58e-02      7.72e-03 o  ~
  ---------------------------------------------------------------------------------------------

	Writing optimization data to binary file.
	
Fatal Error: PSIO Error
Error occurred in file: /scratch/psilocaluser/conda-builds/psi4_1495011512596/work/psi4/src/psi4/libpsio/error.cc on line: 129
The most recent 5 function calls were:

psi::PsiException::PsiException(std::__cxx11::basic_string<char, std::char_traits<char>, std::allocator<char> >, char const*, int)
psi::psio_error(unsigned int, unsigned int)
psi::PSIO::write(unsigned int, char const*, char*, unsigned long, psi::psio_address, psi::psio_address*)
psi::PSIO::write_entry(unsigned int, char const*, char*, unsigned long)
psi::psio_write_entry(unsigned int, char const*, char*, unsigned long)
