
    -----------------------------------------------------------------------
          Psi4: An Open-Source Ab Initio Electronic Structure Package
                               Psi4 1.1 release

                         Git: Rev {HEAD} add49b9 


    R. M. Parrish, L. A. Burns, D. G. A. Smith, A. C. Simmonett,
    A. E. DePrince III, E. G. Hohenstein, U. Bozkaya, A. Yu. Sokolov,
    R. Di Remigio, R. M. Richard, J. F. Gonthier, A. M. James,
    H. R. McAlexander, A. Kumar, M. Saitow, X. Wang, B. P. Pritchard,
    P. Verma, H. F. Schaefer III, K. Patkowski, R. A. King, E. F. Valeev,
    F. A. Evangelista, J. M. Turney, T. D. Crawford, and C. D. Sherrill,
    J. Chem. Theory Comput. in press (2017).
    (doi: 10.1021/acs.jctc.7b00174)

    -----------------------------------------------------------------------


    Psi4 started on: Sunday, 12 November 2017 03:47PM

    Process ID:   7261
    PSIDATADIR: /cbio/jclab/home/chayas/anaconda/envs/py35/share/psi4
    Memory:     500.0 MiB
    Threads:    8
    
  ==> Input File <==

--------------------------------------------------------------------------

memory 5 Gb

molecule phepyrOH_zwitterion {
  symmetry C1
  0 1 
  C      1.885   -1.036   -0.112
  C      2.878   -1.652   2.002
  C      0.807   -0.463   0.561
  C      1.800   -1.079   2.676
  C      4.517   -3.475   0.296
  C      4.641   -1.550   -1.148
  C      5.592   -4.021   -0.392
  C      5.712   -2.145   -1.799
  C      2.921   -1.631   0.608
  C      4.040   -2.226   -0.090
  C      0.764   -0.484   1.955
  N      6.152   -3.349   -1.407
  O      -0.227   0.042   2.574
  H      1.904   -1.011   -1.199
  H      3.678   -2.112   2.577
  H      0.011   -0.006   -0.025
  H      1.791   -1.108   3.764
  H      4.068   -4.025   1.117
  H      4.289   -0.574   -1.470
  H      6.027   -4.984   -0.163
  H      6.239   -1.695   -2.629
  H      6.941   -3.767   -1.898
  units Angstrom
}

dih_string = "1 9 10 5 225"
set optking fixed_dihedral = $dih_string

optimize('MP2/aug-cc-PVTZ')
--------------------------------------------------------------------------

  Memory set to   4.657 GiB by Python driver.
gradient() will perform analytic gradient computation.

*** tstart() called on gpu-2-7.local
*** at Sun Nov 12 15:47:48 2017

    SCF Algorithm Type (re)set to DF.

*** tstart() called on gpu-2-7.local
*** at Sun Nov 12 15:47:48 2017

   => Loading Basis Set <=

    Name: AUG-CC-PVTZ
    Role: ORBITAL
    Keyword: BASIS
    atoms 1-11  entry C          line   221 file /cbio/jclab/home/chayas/anaconda/envs/py35/share/psi4/basis/aug-cc-pvtz.gbs 
    atoms 12    entry N          line   267 file /cbio/jclab/home/chayas/anaconda/envs/py35/share/psi4/basis/aug-cc-pvtz.gbs 
    atoms 13    entry O          line   313 file /cbio/jclab/home/chayas/anaconda/envs/py35/share/psi4/basis/aug-cc-pvtz.gbs 
    atoms 14-22 entry H          line    34 file /cbio/jclab/home/chayas/anaconda/envs/py35/share/psi4/basis/aug-cc-pvtz.gbs 


         ---------------------------------------------------------
                                   SCF
            by Justin Turney, Rob Parrish, and Andy Simmonett
                              RHF Reference
                        8 Threads,   4768 MiB Core
         ---------------------------------------------------------

  ==> Geometry <==

    Molecular point group: c1
    Full point group: C1

    Geometry (in Angstrom), charge = 0, multiplicity = 1:

       Center              X                  Y                   Z               Mass       
    ------------   -----------------  -----------------  -----------------  -----------------
           C         -1.297478415662     0.734060198550    -0.557594615714    12.000000000000
           C         -0.304478415662     0.118060198550     1.556405384286    12.000000000000
           C         -2.375478415662     1.307060198550     0.115405384286    12.000000000000
           C         -1.382478415662     0.691060198550     2.230405384286    12.000000000000
           C          1.334521584338    -1.704939801450    -0.149594615714    12.000000000000
           C          1.458521584338     0.220060198550    -1.593594615714    12.000000000000
           C          2.409521584338    -2.250939801450    -0.837594615714    12.000000000000
           C          2.529521584338    -0.374939801450    -2.244594615714    12.000000000000
           C         -0.261478415662     0.139060198550     0.162405384286    12.000000000000
           C          0.857521584338    -0.455939801450    -0.535594615714    12.000000000000
           C         -2.418478415662     1.286060198550     1.509405384286    12.000000000000
           N          2.969521584338    -1.578939801450    -1.852594615714    14.003074004780
           O         -3.409478415662     1.812060198550     2.128405384286    15.994914619560
           H         -1.278478415662     0.759060198550    -1.644594615714     1.007825032070
           H          0.495521584338    -0.341939801450     2.131405384286     1.007825032070
           H         -3.171478415662     1.764060198550    -0.470594615714     1.007825032070
           H         -1.391478415662     0.662060198550     3.318405384286     1.007825032070
           H          0.885521584338    -2.254939801450     0.671405384286     1.007825032070
           H          1.106521584338     1.196060198550    -1.915594615714     1.007825032070
           H          2.844521584338    -3.213939801450    -0.608594615714     1.007825032070
           H          3.056521584338     0.075060198550    -3.074594615714     1.007825032070
           H          3.758521584338    -1.996939801450    -2.343594615714     1.007825032070

  Running in c1 symmetry.

  Rotational constants: A =      0.09648  B =      0.01358  C =      0.01235 [cm^-1]
  Rotational constants: A =   2892.54445  B =    407.08942  C =    370.24161 [MHz]
  Nuclear repulsion =  701.011038549992691

  Charge       = 0
  Multiplicity = 1
  Electrons    = 90
  Nalpha       = 45
  Nbeta        = 45

  ==> Algorithm <==

  SCF Algorithm Type is DF.
  DIIS enabled.
  MOM disabled.
  Fractional occupation disabled.
  Guess Type is SAD.
  Energy threshold   = 1.00e-10
  Density threshold  = 1.00e-10
  Integral threshold = 0.00e+00

  ==> Primary Basis <==

  Basis Set: AUG-CC-PVTZ
    Blend: AUG-CC-PVTZ
    Number of shells: 263
    Number of basis function: 805
    Number of Cartesian functions: 940
    Spherical Harmonics?: true
    Max angular momentum: 3

   => Loading Basis Set <=

    Name: (AUG-CC-PVTZ AUX)
    Role: JKFIT
    Keyword: DF_BASIS_SCF
    atoms 1-11  entry C          line   161 file /cbio/jclab/home/chayas/anaconda/envs/py35/share/psi4/basis/aug-cc-pvtz-jkfit.gbs 
    atoms 12    entry N          line   223 file /cbio/jclab/home/chayas/anaconda/envs/py35/share/psi4/basis/aug-cc-pvtz-jkfit.gbs 
    atoms 13    entry O          line   285 file /cbio/jclab/home/chayas/anaconda/envs/py35/share/psi4/basis/aug-cc-pvtz-jkfit.gbs 
    atoms 14-22 entry H          line    69 file /cbio/jclab/home/chayas/anaconda/envs/py35/share/psi4/basis/aug-cc-pvtz-jkfit.gbs 

  ==> Pre-Iterations <==

   -------------------------------------------------------
    Irrep   Nso     Nmo     Nalpha   Nbeta   Ndocc  Nsocc
   -------------------------------------------------------
     A        805     805       0       0       0       0
   -------------------------------------------------------
    Total     805     805      45      45      45       0
   -------------------------------------------------------

  ==> Integral Setup <==

  ==> DFJK: Density-Fitted J/K Matrices <==

    J tasked:                  Yes
    K tasked:                  Yes
    wK tasked:                  No
    OpenMP threads:              8
    Integrals threads:           8
    Memory (MB):              3576
    Algorithm:                Disk
    Integral Cache:           NONE
    Schwarz Cutoff:          1E-12
    Fitting Condition:       1E-12

   => Auxiliary Basis Set <=

  Basis Set: (AUG-CC-PVTZ AUX)
    Blend: AUG-CC-PVTZ-JKFIT
    Number of shells: 516
    Number of basis function: 1766
    Number of Cartesian functions: 2198
    Spherical Harmonics?: true
    Max angular momentum: 4

  Minimum eigenvalue in the overlap matrix is 6.7707342732E-07.
  Using Symmetric Orthogonalization.

  SCF Guess: Superposition of Atomic Densities via on-the-fly atomic UHF.

  ==> Iterations <==

                           Total Energy        Delta E     RMS |[F,P]|

   @DF-RHF iter   0:  -558.03517035589516   -5.58035e+02   2.09163e-02 
   @DF-RHF iter   1:  -550.72538296870016    7.30979e+00   2.58915e-03 
   @DF-RHF iter   2:  -550.91124767809674   -1.85865e-01   2.01178e-03 DIIS
   @DF-RHF iter   3:  -551.16342536071375   -2.52178e-01   6.56263e-04 DIIS
   @DF-RHF iter   4:  -551.20167215516540   -3.82468e-02   2.18042e-04 DIIS
   @DF-RHF iter   5:  -551.20688102025485   -5.20887e-03   6.72638e-05 DIIS
   @DF-RHF iter   6:  -551.20813402457861   -1.25300e-03   3.13332e-05 DIIS
   @DF-RHF iter   7:  -551.20837922051669   -2.45196e-04   1.45938e-05 DIIS
   @DF-RHF iter   8:  -551.20841507852163   -3.58580e-05   5.18618e-06 DIIS
   @DF-RHF iter   9:  -551.20842198921696   -6.91070e-06   2.77364e-06 DIIS
   @DF-RHF iter  10:  -551.20842412024388   -2.13103e-06   1.08792e-06 DIIS
   @DF-RHF iter  11:  -551.20842450535940   -3.85116e-07   6.21377e-07 DIIS
   @DF-RHF iter  12:  -551.20842457009553   -6.47361e-08   2.41793e-07 DIIS
   @DF-RHF iter  13:  -551.20842458571065   -1.56151e-08   1.02775e-07 DIIS
   @DF-RHF iter  14:  -551.20842458871721   -3.00656e-09   6.85633e-08 DIIS
   @DF-RHF iter  15:  -551.20842458949721   -7.80005e-10   1.65412e-08 DIIS
   @DF-RHF iter  16:  -551.20842458959442   -9.72022e-11   8.19144e-09 DIIS
   @DF-RHF iter  17:  -551.20842458960590   -1.14824e-11   2.80279e-09 DIIS
   @DF-RHF iter  18:  -551.20842458958543    2.04636e-11   1.34375e-09 DIIS
   @DF-RHF iter  19:  -551.20842458958657   -1.13687e-12   6.45024e-10 DIIS
   @DF-RHF iter  20:  -551.20842458961351   -2.69438e-11   2.44288e-10 DIIS
   @DF-RHF iter  21:  -551.20842458958896    2.45564e-11   9.43467e-11 DIIS

  ==> Post-Iterations <==

    Orbital Energies (a.u.)
    -----------------------

    Doubly Occupied:                                                      

       1A    -20.420537     2A    -15.707482     3A    -11.362460  
       4A    -11.362332     5A    -11.310198     6A    -11.290534  
       7A    -11.290421     8A    -11.236431     9A    -11.223891  
      10A    -11.223854    11A    -11.209684    12A    -11.181832  
      13A    -11.181785    14A     -1.390459    15A     -1.247073  
      16A     -1.182189    17A     -1.115823    18A     -1.105552  
      19A     -0.990237    20A     -0.989966    21A     -0.943003  
      22A     -0.903086    23A     -0.842841    24A     -0.808276  
      25A     -0.779720    26A     -0.740228    27A     -0.721173  
      28A     -0.694472    29A     -0.676441    30A     -0.659940  
      31A     -0.613988    32A     -0.613823    33A     -0.603452  
      34A     -0.587269    35A     -0.559131    36A     -0.530201  
      37A     -0.507157    38A     -0.480821    39A     -0.470547  
      40A     -0.459317    41A     -0.422677    42A     -0.391637  
      43A     -0.333454    44A     -0.318501    45A     -0.226360  

    Virtual:                                                              

      46A     -0.010747    47A      0.009490    48A      0.016030  
      49A      0.022089    50A      0.035254    51A      0.039415  
      52A      0.040268    53A      0.051609    54A      0.052206  
      55A      0.054774    56A      0.062423    57A      0.068581  
      58A      0.069195    59A      0.069581    60A      0.080278  
      61A      0.091177    62A      0.092582    63A      0.103281  
      64A      0.103820    65A      0.103982    66A      0.117332  
      67A      0.120270    68A      0.120482    69A      0.126457  
      70A      0.127716    71A      0.128887    72A      0.132079  
      73A      0.134849    74A      0.144704    75A      0.150369  
      76A      0.151487    77A      0.151800    78A      0.161019  
      79A      0.165180    80A      0.166064    81A      0.168574  
      82A      0.173228    83A      0.181498    84A      0.182108  
      85A      0.185802    86A      0.189990    87A      0.196311  
      88A      0.196813    89A      0.206866    90A      0.208839  
      91A      0.210462    92A      0.213099    93A      0.221490  
      94A      0.225959    95A      0.227337    96A      0.231255  
      97A      0.235844    98A      0.245956    99A      0.251909  
     100A      0.253449   101A      0.254200   102A      0.263385  
     103A      0.263973   104A      0.268085   105A      0.271066  
     106A      0.279506   107A      0.284182   108A      0.289207  
     109A      0.290171   110A      0.293186   111A      0.297223  
     112A      0.303200   113A      0.307363   114A      0.312127  
     115A      0.319325   116A      0.321386   117A      0.327145  
     118A      0.329849   119A      0.330541   120A      0.331547  
     121A      0.340891   122A      0.344450   123A      0.347283  
     124A      0.347343   125A      0.361140   126A      0.361480  
     127A      0.363255   128A      0.364436   129A      0.369789  
     130A      0.374196   131A      0.379529   132A      0.386029  
     133A      0.387894   134A      0.394323   135A      0.402109  
     136A      0.404164   137A      0.413759   138A      0.414437  
     139A      0.420242   140A      0.421978   141A      0.425433  
     142A      0.433654   143A      0.439274   144A      0.440852  
     145A      0.445983   146A      0.454018   147A      0.455716  
     148A      0.459923   149A      0.463867   150A      0.464427  
     151A      0.469456   152A      0.471579   153A      0.474816  
     154A      0.480283   155A      0.483288   156A      0.487828  
     157A      0.492859   158A      0.494614   159A      0.494864  
     160A      0.498675   161A      0.499247   162A      0.501542  
     163A      0.507595   164A      0.508432   165A      0.516024  
     166A      0.521508   167A      0.527944   168A      0.528923  
     169A      0.532786   170A      0.534887   171A      0.544264  
     172A      0.545339   173A      0.551446   174A      0.555912  
     175A      0.564370   176A      0.566328   177A      0.570222  
     178A      0.576486   179A      0.579195   180A      0.583761  
     181A      0.594180   182A      0.596524   183A      0.605156  
     184A      0.608090   185A      0.609030   186A      0.623908  
     187A      0.624295   188A      0.642799   189A      0.649075  
     190A      0.651207   191A      0.657346   192A      0.662244  
     193A      0.669424   194A      0.669768   195A      0.673840  
     196A      0.684175   197A      0.689865   198A      0.692910  
     199A      0.695116   200A      0.703334   201A      0.706173  
     202A      0.716843   203A      0.720508   204A      0.721508  
     205A      0.724425   206A      0.730670   207A      0.734764  
     208A      0.748095   209A      0.750146   210A      0.753486  
     211A      0.760361   212A      0.761222   213A      0.768311  
     214A      0.776489   215A      0.779181   216A      0.788527  
     217A      0.793271   218A      0.795322   219A      0.807614  
     220A      0.811057   221A      0.817536   222A      0.828252  
     223A      0.835939   224A      0.838965   225A      0.849437  
     226A      0.852166   227A      0.855490   228A      0.861275  
     229A      0.873186   230A      0.876962   231A      0.878634  
     232A      0.884659   233A      0.889659   234A      0.891917  
     235A      0.902566   236A      0.908068   237A      0.910412  
     238A      0.914835   239A      0.915017   240A      0.920084  
     241A      0.922695   242A      0.927072   243A      0.931599  
     244A      0.932057   245A      0.937801   246A      0.938169  
     247A      0.953064   248A      0.959530   249A      0.960923  
     250A      0.966356   251A      0.969386   252A      0.975515  
     253A      0.984845   254A      0.988705   255A      0.995581  
     256A      0.999923   257A      1.006780   258A      1.009602  
     259A      1.012469   260A      1.019136   261A      1.024207  
     262A      1.026119   263A      1.028262   264A      1.032665  
     265A      1.036586   266A      1.037121   267A      1.045359  
     268A      1.048101   269A      1.054928   270A      1.055977  
     271A      1.057565   272A      1.062198   273A      1.077172  
     274A      1.079290   275A      1.085932   276A      1.086467  
     277A      1.094085   278A      1.094752   279A      1.097746  
     280A      1.101428   281A      1.112248   282A      1.113856  
     283A      1.116398   284A      1.121472   285A      1.125889  
     286A      1.134923   287A      1.135436   288A      1.144148  
     289A      1.151603   290A      1.154479   291A      1.154897  
     292A      1.164099   293A      1.166524   294A      1.180634  
     295A      1.183560   296A      1.189547   297A      1.189593  
     298A      1.192327   299A      1.193755   300A      1.202436  
     301A      1.209953   302A      1.216682   303A      1.218584  
     304A      1.221497   305A      1.226364   306A      1.236271  
     307A      1.244117   308A      1.244449   309A      1.248329  
     310A      1.252386   311A      1.262268   312A      1.263373  
     313A      1.272478   314A      1.276445   315A      1.279609  
     316A      1.286251   317A      1.297956   318A      1.305818  
     319A      1.312430   320A      1.323220   321A      1.325693  
     322A      1.330282   323A      1.338160   324A      1.345552  
     325A      1.351741   326A      1.360450   327A      1.361672  
     328A      1.372416   329A      1.375414   330A      1.379993  
     331A      1.389052   332A      1.394789   333A      1.397296  
     334A      1.411564   335A      1.412635   336A      1.419124  
     337A      1.434893   338A      1.440933   339A      1.448502  
     340A      1.454158   341A      1.459423   342A      1.465197  
     343A      1.469530   344A      1.479943   345A      1.486956  
     346A      1.494764   347A      1.496661   348A      1.504329  
     349A      1.512902   350A      1.522050   351A      1.525743  
     352A      1.533263   353A      1.545868   354A      1.552458  
     355A      1.564634   356A      1.566309   357A      1.577903  
     358A      1.580178   359A      1.594878   360A      1.607420  
     361A      1.617259   362A      1.629414   363A      1.631676  
     364A      1.635337   365A      1.641798   366A      1.647212  
     367A      1.649959   368A      1.666121   369A      1.680603  
     370A      1.686377   371A      1.689764   372A      1.692847  
     373A      1.713022   374A      1.716863   375A      1.721318  
     376A      1.728029   377A      1.732596   378A      1.743598  
     379A      1.750062   380A      1.751731   381A      1.774085  
     382A      1.780567   383A      1.790212   384A      1.799468  
     385A      1.805901   386A      1.817922   387A      1.818788  
     388A      1.826552   389A      1.828501   390A      1.839851  
     391A      1.854024   392A      1.858417   393A      1.858787  
     394A      1.875613   395A      1.881899   396A      1.883869  
     397A      1.906763   398A      1.909051   399A      1.916420  
     400A      1.936172   401A      1.938170   402A      1.939711  
     403A      1.947426   404A      1.950630   405A      1.960823  
     406A      1.962158   407A      1.974996   408A      1.985086  
     409A      1.999718   410A      2.002816   411A      2.005911  
     412A      2.014183   413A      2.015858   414A      2.025425  
     415A      2.030631   416A      2.032925   417A      2.038281  
     418A      2.047315   419A      2.047668   420A      2.056183  
     421A      2.068428   422A      2.084393   423A      2.090642  
     424A      2.095648   425A      2.115710   426A      2.118150  
     427A      2.131559   428A      2.132009   429A      2.149965  
     430A      2.152603   431A      2.157885   432A      2.173548  
     433A      2.175264   434A      2.188285   435A      2.194060  
     436A      2.204123   437A      2.205005   438A      2.223990  
     439A      2.224651   440A      2.240938   441A      2.254330  
     442A      2.263900   443A      2.286076   444A      2.287239  
     445A      2.299518   446A      2.313636   447A      2.320522  
     448A      2.323490   449A      2.331070   450A      2.339631  
     451A      2.342811   452A      2.352940   453A      2.369875  
     454A      2.389466   455A      2.389767   456A      2.398445  
     457A      2.404998   458A      2.420334   459A      2.436701  
     460A      2.443349   461A      2.445388   462A      2.451480  
     463A      2.468370   464A      2.479367   465A      2.489429  
     466A      2.496438   467A      2.514699   468A      2.515205  
     469A      2.522417   470A      2.538497   471A      2.542391  
     472A      2.553930   473A      2.556330   474A      2.560828  
     475A      2.561503   476A      2.599388   477A      2.610364  
     478A      2.633826   479A      2.641292   480A      2.657000  
     481A      2.657557   482A      2.682093   483A      2.682138  
     484A      2.687050   485A      2.708200   486A      2.734105  
     487A      2.744129   488A      2.763672   489A      2.768884  
     490A      2.784396   491A      2.789309   492A      2.797147  
     493A      2.838164   494A      2.847278   495A      2.865336  
     496A      2.870248   497A      2.907146   498A      2.919269  
     499A      2.924021   500A      2.935889   501A      2.987904  
     502A      3.006144   503A      3.027489   504A      3.057136  
     505A      3.079605   506A      3.088304   507A      3.097947  
     508A      3.110191   509A      3.130396   510A      3.155718  
     511A      3.180697   512A      3.183725   513A      3.191991  
     514A      3.219573   515A      3.233219   516A      3.237088  
     517A      3.262066   518A      3.262862   519A      3.287232  
     520A      3.307456   521A      3.322400   522A      3.328147  
     523A      3.342677   524A      3.355625   525A      3.369516  
     526A      3.373066   527A      3.383745   528A      3.390683  
     529A      3.393440   530A      3.419006   531A      3.431637  
     532A      3.435712   533A      3.444392   534A      3.458214  
     535A      3.464352   536A      3.473052   537A      3.491370  
     538A      3.498464   539A      3.517606   540A      3.527667  
     541A      3.527995   542A      3.531837   543A      3.532010  
     544A      3.542679   545A      3.557207   546A      3.560587  
     547A      3.567746   548A      3.571311   549A      3.579752  
     550A      3.585290   551A      3.598117   552A      3.616233  
     553A      3.633052   554A      3.633320   555A      3.650656  
     556A      3.652890   557A      3.660990   558A      3.679534  
     559A      3.693631   560A      3.695995   561A      3.703893  
     562A      3.704717   563A      3.714664   564A      3.718827  
     565A      3.732280   566A      3.746827   567A      3.760379  
     568A      3.769263   569A      3.770179   570A      3.789110  
     571A      3.804606   572A      3.805399   573A      3.819028  
     574A      3.823015   575A      3.831590   576A      3.835603  
     577A      3.837292   578A      3.850817   579A      3.857752  
     580A      3.860501   581A      3.889827   582A      3.903597  
     583A      3.907598   584A      3.911964   585A      3.917577  
     586A      3.922973   587A      3.950039   588A      3.955368  
     589A      3.965465   590A      3.970797   591A      3.976255  
     592A      3.985178   593A      3.998733   594A      4.006362  
     595A      4.009200   596A      4.018949   597A      4.019605  
     598A      4.029513   599A      4.032864   600A      4.049235  
     601A      4.056016   602A      4.075406   603A      4.084740  
     604A      4.086253   605A      4.091639   606A      4.092664  
     607A      4.108505   608A      4.112891   609A      4.133541  
     610A      4.148771   611A      4.163057   612A      4.168371  
     613A      4.169875   614A      4.170408   615A      4.193307  
     616A      4.193824   617A      4.201999   618A      4.210899  
     619A      4.215017   620A      4.233190   621A      4.246955  
     622A      4.248959   623A      4.257158   624A      4.266661  
     625A      4.301121   626A      4.303708   627A      4.304777  
     628A      4.315514   629A      4.327470   630A      4.340995  
     631A      4.342180   632A      4.351960   633A      4.355843  
     634A      4.366898   635A      4.370322   636A      4.384581  
     637A      4.387024   638A      4.395331   639A      4.400860  
     640A      4.409298   641A      4.410129   642A      4.420177  
     643A      4.420728   644A      4.445526   645A      4.455117  
     646A      4.463957   647A      4.467440   648A      4.486706  
     649A      4.498852   650A      4.508922   651A      4.513008  
     652A      4.525936   653A      4.527643   654A      4.543011  
     655A      4.554651   656A      4.557308   657A      4.573580  
     658A      4.596269   659A      4.615940   660A      4.619134  
     661A      4.646955   662A      4.651520   663A      4.663444  
     664A      4.705839   665A      4.712394   666A      4.725425  
     667A      4.737574   668A      4.755138   669A      4.760109  
     670A      4.768898   671A      4.782605   672A      4.794094  
     673A      4.801461   674A      4.811711   675A      4.823217  
     676A      4.862733   677A      4.864349   678A      4.874923  
     679A      4.895192   680A      4.904669   681A      4.906316  
     682A      4.940028   683A      4.943238   684A      4.946223  
     685A      4.956574   686A      4.964355   687A      4.987547  
     688A      4.997348   689A      5.028558   690A      5.030580  
     691A      5.055091   692A      5.058469   693A      5.063342  
     694A      5.063844   695A      5.080433   696A      5.086669  
     697A      5.107539   698A      5.125130   699A      5.133655  
     700A      5.144161   701A      5.148783   702A      5.152757  
     703A      5.172962   704A      5.181701   705A      5.185047  
     706A      5.191932   707A      5.210546   708A      5.222277  
     709A      5.240880   710A      5.241499   711A      5.253304  
     712A      5.292989   713A      5.303481   714A      5.315661  
     715A      5.330462   716A      5.340978   717A      5.351438  
     718A      5.376354   719A      5.387291   720A      5.392387  
     721A      5.424276   722A      5.437051   723A      5.451473  
     724A      5.463906   725A      5.466320   726A      5.504383  
     727A      5.506241   728A      5.521107   729A      5.567555  
     730A      5.580498   731A      5.598673   732A      5.630909  
     733A      5.640358   734A      5.688593   735A      5.700512  
     736A      5.722197   737A      5.734900   738A      5.747817  
     739A      5.781369   740A      5.791309   741A      5.801081  
     742A      5.819085   743A      5.848700   744A      5.848748  
     745A      5.893844   746A      5.946526   747A      5.967158  
     748A      5.998135   749A      6.054711   750A      6.109017  
     751A      6.112507   752A      6.126914   753A      6.144075  
     754A      6.165255   755A      6.247628   756A      6.264341  
     757A      6.289927   758A      6.328767   759A      6.365065  
     760A      6.407719   761A      6.441617   762A      6.497603  
     763A      6.508122   764A      6.541489   765A      6.587472  
     766A      6.625831   767A      6.645105   768A      6.696448  
     769A      6.750987   770A      6.782035   771A      6.783429  
     772A      6.865827   773A      6.871967   774A      6.927316  
     775A      6.954569   776A      6.961043   777A      6.994553  
     778A      7.074082   779A      7.098673   780A      7.129794  
     781A      7.192594   782A      7.238939   783A      7.242054  
     784A      7.498679   785A      7.525505   786A      7.577334  
     787A      7.661428   788A      7.818972   789A      7.826534  
     790A      7.910911   791A      8.033349   792A      8.103056  
     793A     16.003928   794A     16.194079   795A     16.341411  
     796A     16.589994   797A     17.095176   798A     18.923572  
     799A     19.212792   800A     19.672924   801A     19.834901  
     802A     20.115239   803A     20.264524   804A     20.346067  
     805A     21.883452  

    Final Occupation by Irrep:
              A 
    DOCC [    45 ]

  Energy converged.

  @DF-RHF Final Energy:  -551.20842458958896

   => Energetics <=

    Nuclear Repulsion Energy =            701.0110385499926906
    One-Electron Energy =               -2138.6184214846302893
    Two-Electron Energy =                 886.3989583450486407
    DFT Exchange-Correlation Energy =       0.0000000000000000
    Empirical Dispersion Energy =           0.0000000000000000
    PCM Polarization Energy =               0.0000000000000000
    EFP Energy =                            0.0000000000000000
    Total Energy =                       -551.2084245895889580



Properties will be evaluated at   0.000000,   0.000000,   0.000000 Bohr

Properties computed using the SCF density matrix

  Nuclear Dipole Moment: (a.u.)
     X:     5.8864      Y:    -3.1286      Z:    -3.6746

  Electronic Dipole Moment: (a.u.)
     X:     0.2102      Y:    -0.1119      Z:    -0.1304

  Dipole Moment: (a.u.)
     X:     6.0966      Y:    -3.2405      Z:    -3.8050     Total:     7.8833

  Dipole Moment: (Debye)
     X:    15.4959      Y:    -8.2366      Z:    -9.6713     Total:    20.0374


*** tstop() called on gpu-2-7.local at Sun Nov 12 15:56:14 2017
Module time:
	user time   =    1197.34 seconds =      19.96 minutes
	system time =      52.64 seconds =       0.88 minutes
	total time  =        506 seconds =       8.43 minutes
Total time:
	user time   =    1197.35 seconds =      19.96 minutes
	system time =      52.64 seconds =       0.88 minutes
	total time  =        506 seconds =       8.43 minutes

  //>>>>>>>>>>>>>>>>>>>>>>>>>>>>>>>>>>>//
  //               DFMP2               //
  //<<<<<<<<<<<<<<<<<<<<<<<<<<<<<<<<<<<//

   => Loading Basis Set <=

    Name: (AUG-CC-PVTZ AUX)
    Role: RIFIT
    Keyword: DF_BASIS_MP2
    atoms 1-11  entry C          line   147 file /cbio/jclab/home/chayas/anaconda/envs/py35/share/psi4/basis/aug-cc-pvtz-ri.gbs 
    atoms 12    entry N          line   205 file /cbio/jclab/home/chayas/anaconda/envs/py35/share/psi4/basis/aug-cc-pvtz-ri.gbs 
    atoms 13    entry O          line   263 file /cbio/jclab/home/chayas/anaconda/envs/py35/share/psi4/basis/aug-cc-pvtz-ri.gbs 
    atoms 14-22 entry H          line    29 file /cbio/jclab/home/chayas/anaconda/envs/py35/share/psi4/basis/aug-cc-pvtz-ri.gbs 

	 --------------------------------------------------------
	                          DF-MP2                         
	      2nd-Order Density-Fitted Moller-Plesset Theory     
	              RMP2 Wavefunction,   8 Threads             
	                                                         
	        Rob Parrish, Justin Turney, Andy Simmonett,      
	           Ed Hohenstein, and C. David Sherrill          
	 --------------------------------------------------------

   => Auxiliary Basis Set <=

  Basis Set: (AUG-CC-PVTZ AUX)
    Blend: AUG-CC-PVTZ-RI
    Number of shells: 490
    Number of basis function: 1792
    Number of Cartesian functions: 2263
    Spherical Harmonics?: true
    Max angular momentum: 4

	 --------------------------------------------------------
	                 NBF =   805, NAUX =  1792
	 --------------------------------------------------------
	   CLASS    FOCC     OCC    AOCC    AVIR     VIR    FVIR
	   PAIRS       0      45      45     760     760       0
	 --------------------------------------------------------


         ------------------------------------------------------------
                                     CPHF                           
                                  Rob Parrish                       
         ------------------------------------------------------------

  ==> Geometry <==

    Molecular point group: c1
    Full point group: C1

    Geometry (in Angstrom), charge = 0, multiplicity = 1:

       Center              X                  Y                   Z               Mass       
    ------------   -----------------  -----------------  -----------------  -----------------
           C         -1.297478415662     0.734060198550    -0.557594615714    12.000000000000
           C         -0.304478415662     0.118060198550     1.556405384286    12.000000000000
           C         -2.375478415662     1.307060198550     0.115405384286    12.000000000000
           C         -1.382478415662     0.691060198550     2.230405384286    12.000000000000
           C          1.334521584338    -1.704939801450    -0.149594615714    12.000000000000
           C          1.458521584338     0.220060198550    -1.593594615714    12.000000000000
           C          2.409521584338    -2.250939801450    -0.837594615714    12.000000000000
           C          2.529521584338    -0.374939801450    -2.244594615714    12.000000000000
           C         -0.261478415662     0.139060198550     0.162405384286    12.000000000000
           C          0.857521584338    -0.455939801450    -0.535594615714    12.000000000000
           C         -2.418478415662     1.286060198550     1.509405384286    12.000000000000
           N          2.969521584338    -1.578939801450    -1.852594615714    14.003074004780
           O         -3.409478415662     1.812060198550     2.128405384286    15.994914619560
           H         -1.278478415662     0.759060198550    -1.644594615714     1.007825032070
           H          0.495521584338    -0.341939801450     2.131405384286     1.007825032070
           H         -3.171478415662     1.764060198550    -0.470594615714     1.007825032070
           H         -1.391478415662     0.662060198550     3.318405384286     1.007825032070
           H          0.885521584338    -2.254939801450     0.671405384286     1.007825032070
           H          1.106521584338     1.196060198550    -1.915594615714     1.007825032070
           H          2.844521584338    -3.213939801450    -0.608594615714     1.007825032070
           H          3.056521584338     0.075060198550    -3.074594615714     1.007825032070
           H          3.758521584338    -1.996939801450    -2.343594615714     1.007825032070

  Nuclear repulsion =  701.011038549992691
  Reference energy  = -551.208424589588958

  ==> Basis Set <==

  Basis Set: AUG-CC-PVTZ
    Blend: AUG-CC-PVTZ
    Number of shells: 263
    Number of basis function: 805
    Number of Cartesian functions: 940
    Spherical Harmonics?: true
    Max angular momentum: 3

  ==> CGRSolver (by Rob Parrish) <==

   Number of roots    =         1
   Preconditioning    =    JACOBI
   Convergence cutoff =     1E-06
   Maximum iterations =       100

  ==> CPHFRHamiltonian (by Rob Parrish) <== 

  ==> DFJK: Density-Fitted J/K Matrices <==

    J tasked:                  Yes
    K tasked:                  Yes
    wK tasked:                  No
    OpenMP threads:              8
    Integrals threads:           8
    Memory (MB):              3576
    Algorithm:                Disk
    Integral Cache:           NONE
    Schwarz Cutoff:          1E-12
    Fitting Condition:       1E-12

   => Auxiliary Basis Set <=

  Basis Set: (AUG-CC-PVTZ AUX)
    Blend: AUG-CC-PVTZ-JKFIT
    Number of shells: 516
    Number of basis function: 1766
    Number of Cartesian functions: 2198
    Spherical Harmonics?: true
    Max angular momentum: 4

  ==> CPHF Iterations <==

  => Iterations <=

             Iter  Converged  Remaining    Residual
  CGR           1          0          1   1.637E-01
  CGR           2          0          1   6.639E-02
  CGR           3          0          1   3.300E-02
  CGR           4          0          1   9.638E-03
  CGR           5          0          1   3.559E-03
  CGR           6          0          1   1.462E-03
  CGR           7          0          1   6.165E-04
  CGR           8          0          1   3.635E-04
  CGR           9          0          1   1.587E-04
  CGR          10          0          1   4.901E-05
  CGR          11          0          1   2.081E-05
  CGR          12          0          1   5.705E-06
  CGR          13          0          1   2.347E-06
  CGR          14          1          0   7.458E-07

    CGRSolver converged.

  ==> DFCorrGrad: Density-Fitted Correlated Gradients <==

    OpenMP threads:              8
    Integrals threads:           8
    Memory (MB):              3576
    Schwarz Cutoff:          0E+00
    Fitting Condition:       1E-12

   => Auxiliary Basis Set <=

  Basis Set: (AUG-CC-PVTZ AUX)
    Blend: AUG-CC-PVTZ-JKFIT
    Number of shells: 516
    Number of basis function: 1766
    Number of Cartesian functions: 2198
    Spherical Harmonics?: true
    Max angular momentum: 4

	-----------------------------------------------------------
	 ==================> DF-MP2 Energies <==================== 
	-----------------------------------------------------------
	 Reference Energy          =    -551.2084245895889580 [Eh]
	 Singles Energy            =      -0.0000000000000004 [Eh]
	 Same-Spin Energy          =      -0.6066323778324753 [Eh]
	 Opposite-Spin Energy      =      -1.8386303810871270 [Eh]
	 Correlation Energy        =      -2.4452627589196028 [Eh]
	 Total Energy              =    -553.6536873485085835 [Eh]
	-----------------------------------------------------------
	 ================> DF-SCS-MP2 Energies <================== 
	-----------------------------------------------------------
	 SCS Same-Spin Scale       =       0.3333333333333333 [-]
	 SCS Opposite-Spin Scale   =       1.2000000000000000 [-]
	 SCS Same-Spin Energy      =      -0.2022107926108251 [Eh]
	 SCS Opposite-Spin Energy  =      -2.2063564573045524 [Eh]
	 SCS Correlation Energy    =      -2.4085672499153779 [Eh]
	 SCS Total Energy          =    -553.6169918395042941 [Eh]
	-----------------------------------------------------------


  -Total Gradient:
     Atom            X                  Y                   Z
    ------   -----------------  -----------------  -----------------
       1        0.024351944832    -0.028836198607    -0.002421913266
       2        0.025263848136     0.002485772794    -0.028598912116
       3       -0.027397761269     0.013726941884     0.051868185867
       4       -0.052854772377     0.028798454530    -0.000847970401
       5       -0.035703201421     0.020392158599     0.005124523937
       6       -0.022855606091     0.010438840575     0.031781502581
       7        0.018829625014     0.005668447649    -0.026435171030
       8        0.019266333095    -0.025553448335     0.002377880984
       9       -0.035356689031     0.018728048337     0.022097376343
      10        0.047455304529    -0.025401685540    -0.029519149690
      11        0.065257989458    -0.034502363445    -0.041284993975
      12       -0.018128496431     0.009299622332     0.011505150855
      13       -0.019033788938     0.010043000895     0.011963967691
      14       -0.001100969046     0.001839254495    -0.003562501793
      15        0.001243218947    -0.001885006416     0.003340139061
      16       -0.001847356320     0.003269693180    -0.008895406603
      17        0.004176438228    -0.004498013301     0.007087591686
      18       -0.001335825348    -0.002730270462     0.005193606607
      19       -0.002631716319     0.005262318441    -0.002988136334
      20        0.002813155439    -0.001634339852     0.000180448827
      21        0.001481386076    -0.000723779146    -0.002928069293
      22        0.008106938819    -0.004187448604    -0.005038149943


*** tstop() called on gpu-2-7.local at Sun Nov 12 16:26:35 2017
Module time:
	user time   =    5113.50 seconds =      85.22 minutes
	system time =     107.70 seconds =       1.79 minutes
	total time  =       2327 seconds =      38.78 minutes
Total time:
	user time   =    5113.51 seconds =      85.23 minutes
	system time =     107.70 seconds =       1.79 minutes
	total time  =       2327 seconds =      38.78 minutes

			-----------------------------------------
			 OPTKING 2.0: for geometry optimizations 
			  - R.A. King,  Bethel University        
			-----------------------------------------

	Internal coordinates to be generated automatically.
	Detected frag 1 with atoms:  1 2 3 4 5 6 7 8 9 10 11 12 13 14 15 16 17 18 19 20
	 21 22
	---Fragment 1 Bond Connectivity---
	 1 : 3 9 14
	 2 : 4 9 15
	 3 : 1 11 16
	 4 : 2 11 17
	 5 : 7 10 18
	 6 : 8 10 19
	 7 : 5 12 20
	 8 : 6 12 21
	 9 : 1 2 10
	 10 : 5 6 9
	 11 : 3 4 13
	 12 : 7 8 22
	 13 : 11
	 14 : 1
	 15 : 2
	 16 : 3
	 17 : 4
	 18 : 5
	 19 : 6
	 20 : 7
	 21 : 8
	 22 : 12

	Assuming in current code that numbering for constraints corresponds to unified fragment.
	Fixed dihedral atom list: 
	     1     9    10     5
	---Fragment 1 Geometry and Gradient---
	 C          -2.4518788689        1.3871727403       -1.0537011169
	 C          -0.5753808190        0.2231014425        2.9411799280
	 C          -4.4890036402        2.4699858145        0.2180845706
	 C          -2.6125055902        1.3059145166        4.2148553416
	 C           2.5218803128       -3.2218692978       -0.2826928547
	 C           2.7562063533        0.4158535080       -3.0114573905
	 C           4.5533359057       -4.2536597664       -1.5828244341
	 C           4.7801030416       -0.7085335411       -4.2416691030
	 C          -0.4941225953        0.2627856912        0.3069016988
	 C           1.6204809474       -0.8616013578       -1.0121271419
	 C          -4.5702618639        2.4303015657        2.8523627998
	 N           5.6115825401       -2.9837638051       -3.5008964590
	 O          -6.4429804616        3.4242975116        4.0221032761
	 H          -2.4159740724        1.4344158936       -3.1078334233
	 H           0.9364000873       -0.6461725787        4.0277724545
	 H          -5.9932256420        3.3335906572       -0.8892949433
	 H          -2.6295131254        1.2511124587        6.2708773742
	 H           1.6733932792       -4.2612186709        1.2687723004
	 H           2.0910227545        2.2602262137       -3.6199492053
	 H           5.3753667735       -6.0734660323       -1.1500771496
	 H           5.7759887137        0.1418432187       -5.8101417933
	 H           7.1025764589       -3.7736693286       -4.4287519902
	             0.0243519448       -0.0288361986       -0.0024219133
	             0.0252638481        0.0024857728       -0.0285989121
	            -0.0273977613        0.0137269419        0.0518681859
	            -0.0528547724        0.0287984545       -0.0008479704
	            -0.0357032014        0.0203921586        0.0051245239
	            -0.0228556061        0.0104388406        0.0317815026
	             0.0188296250        0.0056684476       -0.0264351710
	             0.0192663331       -0.0255534483        0.0023778810
	            -0.0353566890        0.0187280483        0.0220973763
	             0.0474553045       -0.0254016855       -0.0295191497
	             0.0652579895       -0.0345023634       -0.0412849940
	            -0.0181284964        0.0092996223        0.0115051509
	            -0.0190337889        0.0100430009        0.0119639677
	            -0.0011009690        0.0018392545       -0.0035625018
	             0.0012432189       -0.0018850064        0.0033401391
	            -0.0018473563        0.0032696932       -0.0088954066
	             0.0041764382       -0.0044980133        0.0070875917
	            -0.0013358253       -0.0027302705        0.0051936066
	            -0.0026317163        0.0052623184       -0.0029881363
	             0.0028131554       -0.0016343399        0.0001804488
	             0.0014813861       -0.0007237791       -0.0029280693
	             0.0081069388       -0.0041874486       -0.0050381499

	Previous optimization step data not found.  Starting new optimization.

	---Fragment 1 Intrafragment Coordinates---
	 - Coordinate -           - BOHR/RAD -       - ANG/DEG -
	 R(1,3)           =         2.634350	       1.394038
	 R(1,9)           =         2.635962	       1.394891
	 R(1,14)          =         2.054989	       1.087453
	 R(2,4)           =         2.635263	       1.394521
	 R(2,9)           =         2.635830	       1.394821
	 R(2,15)          =         2.054702	       1.087302
	 R(3,11)          =         2.635830	       1.394821
	 R(3,16)          =         2.057860	       1.088972
	 R(4,11)          =         2.636938	       1.395407
	 R(4,17)          =         2.056823	       1.088424
	 R(5,7)           =         2.623308	       1.388195
	 R(5,10)          =         2.629726	       1.391591
	 R(5,18)          =         2.051151	       1.085422
	 R(6,8)           =         2.621798	       1.387396
	 R(6,10)          =         2.630415	       1.391956
	 R(6,19)          =         2.052911	       1.086354
	 R(7,12)          =         2.532098	       1.339929
	 R(7,20)          =         2.043208	       1.081219
	 R(8,12)          =         2.533135	       1.340478
	 R(8,21)          =         2.043290	       1.081263
	 R(9,10)          =         2.734160	       1.446855
	 R(11,13)         =         2.421445	       1.281373
	 R(12,22)         =         1.925598	       1.018983
	 B(1,3,11)        =         2.094553	     120.009056
	 B(1,3,16)        =         2.069123	     118.552025
	 B(1,9,2)         =         2.093692	     119.959722
	 B(1,9,10)        =         2.095337	     120.053983
	 B(2,4,11)        =         2.093699	     119.960108
	 B(2,4,17)        =         2.069829	     118.592446
	 B(2,9,10)        =         2.094156	     119.986294
	 B(3,1,9)         =         2.094940	     120.031219
	 B(3,1,14)        =         2.079025	     119.119344
	 B(3,11,4)        =         2.094306	     119.994870
	 B(3,11,13)       =         2.094918	     120.029973
	 B(4,2,9)         =         2.095181	     120.045019
	 B(4,2,15)        =         2.079455	     119.143974
	 B(4,11,13)       =         2.093961	     119.975136
	 B(5,7,12)        =         2.096486	     120.119827
	 B(5,7,20)        =         2.161442	     123.841492
	 B(5,10,6)        =         2.092916	     119.915273
	 B(5,10,9)        =         2.094839	     120.025454
	 B(6,8,12)        =         2.095974	     120.090455
	 B(6,8,21)        =         2.162705	     123.913882
	 B(6,10,9)        =         2.095430	     120.059271
	 B(7,5,10)        =         2.072571	     118.749561
	 B(7,5,18)        =         2.089676	     119.729632
	 B(7,12,8)        =         2.135061	     122.329971
	 B(7,12,22)       =         2.074738	     118.873758
	 B(8,6,10)        =         2.073362	     118.794901
	 B(8,6,19)        =         2.090178	     119.758379
	 B(8,12,22)       =         2.073385	     118.796233
	 B(9,1,14)        =         2.109221	     120.849435
	 B(9,2,15)        =         2.108550	     120.811005
	 B(10,5,18)       =         2.120938	     121.520802
	 B(10,6,19)       =         2.119645	     121.446715
	 B(11,3,16)       =         2.119509	     121.438903
	 B(11,4,17)       =         2.119657	     121.447411
	 B(12,7,20)       =         2.025256	     116.038634
	 B(12,8,21)       =         2.024506	     115.995655
	 D(1,3,11,4)      =        -0.000325	      -0.018609
	 D(1,3,11,13)     =        -3.141004	    -179.966279
	 D(1,9,2,4)       =         0.000325	       0.018608
	 D(1,9,2,15)      =        -3.141527	    -179.996257
	 D(1,9,10,5)      =        -2.356382	    -135.010748
	 D(1,9,10,6)      =         0.785509	      45.006337
	 D(2,4,11,3)      =         0.000301	       0.017261
	 D(2,4,11,13)     =         3.140981	     179.964960
	 D(2,9,1,3)       =        -0.000348	      -0.019945
	 D(2,9,1,14)      =         3.141027	     179.967567
	 D(2,9,10,5)      =         0.785428	      45.001692
	 D(2,9,10,6)      =        -2.355867	    -134.981224
	 D(3,1,9,10)      =         3.141462	     179.992491
	 D(3,11,4,17)     =         3.140700	     179.948827
	 D(4,2,9,10)      =        -3.141485	    -179.993820
	 D(4,11,3,16)     =         3.140472	     179.935781
	 D(5,7,12,8)      =        -0.000259	      -0.014864
	 D(5,7,12,22)     =         3.140082	     179.913428
	 D(5,10,6,8)      =         0.000536	       0.030728
	 D(5,10,6,19)     =        -3.141505	    -179.995003
	 D(6,8,12,7)      =         0.000582	       0.033341
	 D(6,8,12,22)     =        -3.139760	    -179.895005
	 D(6,10,5,7)      =        -0.000226	      -0.012941
	 D(6,10,5,18)     =        -3.141393	    -179.988571
	 D(7,5,10,9)      =        -3.141521	    -179.995881
	 D(7,12,8,21)     =        -3.141539	    -179.996954
	 D(8,6,10,9)      =        -3.141354	    -179.986338
	 D(8,12,7,20)     =         3.139995	     179.908476
	 D(9,1,3,11)      =         0.000348	       0.019955
	 D(9,1,3,16)      =        -3.140471	    -179.935743
	 D(9,2,4,11)      =        -0.000301	      -0.017270
	 D(9,2,4,17)      =        -3.140734	    -179.950778
	 D(9,10,5,18)     =         0.000497	       0.028488
	 D(9,10,6,19)     =        -0.000211	      -0.012068
	 D(10,5,7,12)     =         0.000078	       0.004444
	 D(10,5,7,20)     =        -3.140068	    -179.912628
	 D(10,6,8,12)     =        -0.000710	      -0.040680
	 D(10,6,8,21)     =         3.141455	     179.992131
	 D(10,9,1,14)     =        -0.000349	      -0.019997
	 D(10,9,2,15)     =        -0.000152	      -0.008685
	 D(11,3,1,14)     =        -3.141030	    -179.967773
	 D(11,4,2,15)     =         3.141546	     179.997347
	 D(12,7,5,18)     =         3.141253	     179.980521
	 D(12,8,6,19)     =         3.141324	     179.984606
	 D(13,11,3,16)    =        -0.000207	      -0.011889
	 D(13,11,4,17)    =        -0.001806	      -0.103475
	 D(14,1,3,16)     =         0.001336	       0.076530
	 D(15,2,4,17)     =         0.001114	       0.063839
	 D(18,5,7,20)     =         0.001107	       0.063450
	 D(19,6,8,21)     =         0.000304	       0.017417
	 D(20,7,12,22)    =        -0.002849	      -0.163232
	 D(21,8,12,22)    =         0.001304	       0.074701

	Current energy   :      -553.6536873485

	Generating empirical Hessian (Schlegel '84) for each fragment.
	Adding user-defined constraint: Fragment 1; Coordinate 64:
		Value =    -2.356382; Fixed value    =    -2.356194
		Force =     0.000094; Force constant =     0.500000
	Removing off-diagonal coupling between coordinate 64 and others.
	Taking RFO optimization step.
	Going to follow RFO solution 1.
	Using RFO vector 1.

	Determining step-restricting scale parameter for RS-RFO.
	Maximum step size allowed    0.10000

	 Iter      |step|        alpha        rfo_root  
	------------------------------------------------
	    0     0.40128       1.00000           1
	    1     0.26661       2.98278           1
	    2     0.19099       8.28275           1
	    3     0.14224      20.95564           1
	    4     0.11406      39.77828           1
	    5     0.10238      53.43900           1
	    6     0.10009      56.77853           1
	    7     0.10000      56.91307           1
	------------------------------------------------
	Norm of target step-size    0.10000
	Projected energy change by RFO approximation:        -0.0090012009

	Back-transformation to cartesian coordinates...
	Could not converge backtransformation.
	Using first guess instead.

	--- Internal Coordinate Step in ANG or DEG, aJ/ANG or AJ/DEG ---
	 ---------------------------------------------------------------------------
	   Coordinate                Previous        Force       Change         New 
	   ----------                --------       ------       ------       ------
	    1 R(1,3)          =      1.394038    -0.167550    -0.010914     1.383124
	    2 R(1,9)          =      1.394891     0.128602     0.008236     1.403127
	    3 R(1,14)         =      1.087453    -0.029527    -0.002166     1.085288
	    4 R(2,4)          =      1.394521    -0.170539    -0.011136     1.383386
	    5 R(2,9)          =      1.394821     0.129590     0.008322     1.403143
	    6 R(2,15)         =      1.087302    -0.028660    -0.002106     1.085196
	    7 R(3,11)         =      1.394821     0.274595     0.018217     1.413038
	    8 R(3,16)         =      1.088972    -0.061866    -0.004575     1.084398
	    9 R(4,11)         =      1.395407     0.271200     0.017988     1.413396
	   10 R(4,17)         =      1.088424    -0.059074    -0.004355     1.084069
	   11 R(5,7)          =      1.388195    -0.175648    -0.011332     1.376863
	   12 R(5,10)         =      1.391591     0.160682     0.010434     1.402025
	   13 R(5,18)         =      1.085422    -0.048314    -0.003549     1.081874
	   14 R(6,8)          =      1.387396    -0.171233    -0.011033     1.376362
	   15 R(6,10)         =      1.391956     0.158201     0.010310     1.402266
	   16 R(6,19)         =      1.086354    -0.053275    -0.003918     1.082435
	   17 R(7,12)         =      1.339929     0.133810     0.007945     1.347874
	   18 R(7,20)         =      1.081219    -0.021631    -0.001573     1.079646
	   19 R(8,12)         =      1.340478     0.131256     0.007795     1.348273
	   20 R(8,21)         =      1.081263    -0.021986    -0.001592     1.079670
	   21 R(9,10)         =      1.446855    -0.183996    -0.013056     1.433799
	   22 R(11,13)        =      1.281373    -0.202859    -0.010464     1.270910
	   23 R(12,22)        =      1.018983    -0.085869    -0.005722     1.013261
	   24 B(1,3,11)       =    120.009056     0.000470     0.486857   120.495913
	   25 B(1,3,16)       =    118.552025     0.000221     0.258774   118.810799
	   26 B(1,9,2)        =    119.959722    -0.000220    -0.273197   119.686525
	   27 B(1,9,10)       =    120.053983     0.000102     0.129622   120.183605
	   28 B(2,4,11)       =    119.960108     0.000485     0.500708   120.460816
	   29 B(2,4,17)       =    118.592446     0.000211     0.249369   118.841814
	   30 B(2,9,10)       =    119.986294     0.000118     0.143241   120.129535
	   31 B(3,1,9)        =    120.031219     0.000277     0.246981   120.278200
	   32 B(3,1,14)       =    119.119344     0.000007     0.037889   119.157234
	   33 B(3,11,4)       =    119.994870    -0.001292    -1.208694   118.786177
	   34 B(3,11,13)      =    120.029973     0.000638     0.596760   120.626733
	   35 B(4,2,9)        =    120.045019     0.000280     0.246966   120.291985
	   36 B(4,2,15)       =    119.143974     0.000001     0.031468   119.175442
	   37 B(4,11,13)      =    119.975136     0.000653     0.611906   120.587042
	   38 B(5,7,12)       =    120.119827    -0.000126    -0.129228   119.990598
	   39 B(5,7,20)       =    123.841492    -0.000056    -0.067367   123.774124
	   40 B(5,10,6)       =    119.915273    -0.000908    -0.902063   119.013210
	   41 B(5,10,9)       =    120.025454     0.000460     0.456877   120.482331
	   42 B(6,8,12)       =    120.090455    -0.000121    -0.124157   119.966298
	   43 B(6,8,21)       =    123.913882    -0.000065    -0.077243   123.836639
	   44 B(6,10,9)       =    120.059271     0.000449     0.444870   120.504142
	   45 B(7,5,10)       =    118.749561     0.000593     0.589396   119.338957
	   46 B(7,5,18)       =    119.729632    -0.000263    -0.260149   119.469483
	   47 B(7,12,8)       =    122.329971    -0.000019    -0.010627   122.319344
	   48 B(7,12,22)      =    118.873758     0.000003    -0.001242   118.872516
	   49 B(8,6,10)       =    118.794901     0.000581     0.576616   119.371517
	   50 B(8,6,19)       =    119.758379    -0.000261    -0.259436   119.498942
	   51 B(8,12,22)      =    118.796233     0.000015     0.011893   118.808126
	   52 B(9,1,14)       =    120.849435    -0.000285    -0.285024   120.564411
	   53 B(9,2,15)       =    120.811005    -0.000281    -0.278637   120.532368
	   54 B(10,5,18)      =    121.520802    -0.000330    -0.329292   121.191510
	   55 B(10,6,19)      =    121.446715    -0.000319    -0.317199   121.129516
	   56 B(11,3,16)      =    121.438903    -0.000690    -0.745636   120.693267
	   57 B(11,4,17)      =    121.447411    -0.000695    -0.750062   120.697349
	   58 B(12,7,20)      =    116.038634     0.000182     0.196399   116.235033
	   59 B(12,8,21)      =    115.995655     0.000186     0.201329   116.196984
	   60 D(1,3,11,4)     =     -0.018609    -0.000016    -0.106395    -0.125004
	   61 D(1,3,11,13)    =   -179.966279    -0.000013    -0.078999  -180.045278
	   62 D(1,9,2,4)      =      0.018608    -0.000026    -0.186233    -0.167625
	   63 D(1,9,2,15)     =   -179.996257     0.000004    -0.005138  -180.001395
	   64 D(1,9,10,5)     =   -135.010748    -0.000100    -0.448685  -135.459433
	   65 D(1,9,10,6)     =     45.006337    -0.000126    -0.672769    44.333568
	   66 D(2,4,11,3)     =      0.017261    -0.000011    -0.060922    -0.043660
	   67 D(2,4,11,13)    =    179.964960    -0.000014    -0.088314   179.876646
	   68 D(2,9,1,3)      =     -0.019945    -0.000001     0.018812    -0.001133
	   69 D(2,9,1,14)     =    179.967567     0.000025     0.175595   180.143162
	   70 D(2,9,10,5)     =     45.001692    -0.000126    -0.672257    44.329434
	   71 D(2,9,10,6)     =   -134.981224    -0.000152    -0.896341  -135.877565
	   72 D(3,1,9,10)     =    179.992491    -0.000027    -0.203820   179.788671
	   73 D(3,11,4,17)    =    179.948827    -0.000010    -0.044123   179.904704
	   74 D(4,2,9,10)     =   -179.993820     0.000000     0.036276  -179.957544
	   75 D(4,11,3,16)    =    179.935781    -0.000017    -0.113195   179.822586
	   76 D(5,7,12,8)     =     -0.014864    -0.000001    -0.011581    -0.026445
	   77 D(5,7,12,22)    =    179.913428     0.000003     0.017189   179.930617
	   78 D(5,10,6,8)     =      0.030728    -0.000011    -0.094236    -0.063508
	   79 D(5,10,6,19)    =   -179.995003     0.000002    -0.011298  -180.006301
	   80 D(6,8,12,7)     =      0.033341     0.000003     0.026378     0.059719
	   81 D(6,8,12,22)    =   -179.895005     0.000000    -0.002365  -179.897369
	   82 D(6,10,5,7)     =     -0.012941     0.000014     0.108753     0.095812
	   83 D(6,10,5,18)    =   -179.988571     0.000024     0.165601  -179.822970
	   84 D(7,5,10,9)     =   -179.995881    -0.000012    -0.112249  -180.108130
	   85 D(7,12,8,21)    =   -179.996954    -0.000009    -0.041076  -180.038029
	   86 D(8,6,10,9)     =   -179.986338     0.000015     0.126817  -179.859521
	   87 D(8,12,7,20)    =    179.908476    -0.000016    -0.108091   179.800385
	   88 D(9,1,3,11)     =      0.019955     0.000022     0.127133     0.147088
	   89 D(9,1,3,16)     =   -179.935743     0.000024     0.134265  -179.801478
	   90 D(9,2,4,11)     =     -0.017270     0.000032     0.206555     0.189285
	   91 D(9,2,4,17)     =   -179.950778     0.000030     0.190752  -179.760026
	   92 D(9,10,5,18)    =      0.028488    -0.000003    -0.055401    -0.026912
	   93 D(9,10,6,19)    =     -0.012068     0.000029     0.209755     0.197687
	   94 D(10,5,7,12)    =      0.004444    -0.000008    -0.056741    -0.052297
	   95 D(10,5,7,20)    =   -179.912628     0.000009     0.047199  -179.865429
	   96 D(10,6,8,12)    =     -0.040680     0.000003     0.027671    -0.013009
	   97 D(10,6,8,21)    =    179.992131     0.000016     0.100452   180.092583
	   98 D(10,9,1,14)    =     -0.019997    -0.000001    -0.047037    -0.067034
	   99 D(10,9,2,15)    =     -0.008685     0.000030     0.217371     0.208686
	  100 D(11,3,1,14)    =   -179.967773    -0.000004    -0.027414  -179.995187
	  101 D(11,4,2,15)    =    179.997347     0.000003     0.027952   180.025299
	  102 D(12,7,5,18)    =    179.980521    -0.000018    -0.112621   179.867901
	  103 D(12,8,6,19)    =    179.984606    -0.000011    -0.053878   179.930728
	  104 D(13,11,3,16)   =     -0.011889    -0.000015    -0.085799    -0.097687
	  105 D(13,11,4,17)   =     -0.103475    -0.000012    -0.071515    -0.174990
	  106 D(14,1,3,16)    =      0.076530    -0.000002    -0.020282     0.056248
	  107 D(15,2,4,17)    =      0.063839     0.000001     0.012148     0.075988
	  108 D(18,5,7,20)    =      0.063450    -0.000001    -0.008680     0.054769
	  109 D(19,6,8,21)    =      0.017417     0.000002     0.018903     0.036320
	  110 D(20,7,12,22)   =     -0.163232    -0.000013    -0.079322    -0.242554
	  111 D(21,8,12,22)   =      0.074701    -0.000012    -0.069819     0.004882
	 ---------------------------------------------------------------------------
	Successfully symmetrized geometry.
	 Forces used to impose fixed constraints are not included.
	  Forces zeroed: 64 

  ==> Convergence Check <==

  Measures of convergence in internal coordinates in au.
  Criteria marked as inactive (o), active & met (*), and active & unmet ( ).
  --------------------------------------------------------------------------------------------- ~
   Step     Total Energy     Delta E     MAX Force     RMS Force      MAX Disp      RMS Disp    ~
  --------------------------------------------------------------------------------------------- ~
    Convergence Criteria    1.00e-06 *    3.00e-04 *             o    1.20e-03 *             o  ~
  --------------------------------------------------------------------------------------------- ~
      1    -553.65368735   -5.54e+02      3.33e-02      8.75e-03 o    3.44e-02      9.49e-03 o  ~
  ---------------------------------------------------------------------------------------------

	Writing optimization data to binary file.
	Structure for next step:
	Cartesian Geometry (in Angstrom)
	    C    -1.2965802583   0.7438635907  -0.5605027029
	    C    -0.3073996508   0.1125821342   1.5633340180
	    C    -2.3694534306   1.3098291840   0.1040709151
	    C    -1.3762438879   0.6801172687   2.2335812794
	    C     1.3438762413  -1.7058116722  -0.1455304143
	    C     1.4603615680   0.2183513004  -1.6026264152
	    C     2.4085491059  -2.2514492678  -0.8270744014
	    C     2.5215971816  -0.3709335154  -2.2513912906
	    C    -0.2558324657   0.1401662034   0.1614099651
	    C     0.8531731968  -0.4499178283  -0.5297384587
	    C    -2.4298230645   1.2902645254   1.5156828875
	    N     2.9675331126  -1.5793591406  -1.8530350284
	    O    -3.4140515224   1.8103218560   2.1289087196
	    H    -1.2723743341   0.7712032846  -1.6451761290
	    H     0.4899772903  -0.3507271697   2.1353340522
	    H    -3.1621962866   1.7671760545  -0.4775742351
	    H    -1.3901835257   0.6489384598   3.3171117882
	    H     0.9002797108  -2.2535368645   0.6752437823
	    H     1.1092584165   1.1891839440  -1.9280137931
	    H     2.8415889299  -3.2125170762  -0.5937052944
	    H     3.0424843729   0.0788361788  -3.0832996700
	    H     3.7509341554  -1.9962570817  -2.3420911199
			--------------------------
			 OPTKING Finished Execution 
			--------------------------

    Structure for next step:
    Molecular point group: c1
    Full point group: C1

    Geometry (in Angstrom), charge = 0, multiplicity = 1:

    C           -1.296188371158     0.743508006133    -0.560883210995
    C           -0.307007763609     0.112226549580     1.562953509922
    C           -2.369061543446     1.309473599408     0.103690406998
    C           -1.375852000721     0.679761684091     2.233200771308
    C            1.344268128477    -1.706167256729    -0.145910922428
    C            1.460753455222     0.217995715868    -1.603006923358
    C            2.408940993102    -2.251804852329    -0.827454909555
    C            2.521989068813    -0.371289100016    -2.251771798762
    C           -0.255440578503     0.139810618777     0.161029457013
    C            0.853565083958    -0.450273412842    -0.530118966792
    C           -2.429431177361     1.289908940832     1.515302379352
    N            2.967924999805    -1.579714725166    -1.853415536524
    O           -3.413659635229     1.809966271427     2.128528211475
    H           -1.271982446880     0.770847699982    -1.645556637091
    H            0.490369177519    -0.351082754284     2.134953544048
    H           -3.161804399402     1.766820469925    -0.477954743247
    H           -1.389791638564     0.648582875229     3.316731280110
    H            0.900671598000    -2.253892449046     0.674863274181
    H            1.109650303677     1.188828359438    -1.928394301193
    H            2.841980817100    -3.212872660793    -0.594085802512
    H            3.042876260068     0.078480594195    -3.083680178109
    H            3.751326042591    -1.996612666277    -2.342471628030

gradient() will perform analytic gradient computation.

*** tstart() called on gpu-2-7.local
*** at Sun Nov 12 16:26:36 2017

    SCF Algorithm Type (re)set to DF.

*** tstart() called on gpu-2-7.local
*** at Sun Nov 12 16:26:36 2017

   => Loading Basis Set <=

    Name: AUG-CC-PVTZ
    Role: ORBITAL
    Keyword: BASIS
    atoms 1-11  entry C          line   221 file /cbio/jclab/home/chayas/anaconda/envs/py35/share/psi4/basis/aug-cc-pvtz.gbs 
    atoms 12    entry N          line   267 file /cbio/jclab/home/chayas/anaconda/envs/py35/share/psi4/basis/aug-cc-pvtz.gbs 
    atoms 13    entry O          line   313 file /cbio/jclab/home/chayas/anaconda/envs/py35/share/psi4/basis/aug-cc-pvtz.gbs 
    atoms 14-22 entry H          line    34 file /cbio/jclab/home/chayas/anaconda/envs/py35/share/psi4/basis/aug-cc-pvtz.gbs 


         ---------------------------------------------------------
                                   SCF
            by Justin Turney, Rob Parrish, and Andy Simmonett
                              RHF Reference
                        8 Threads,   4768 MiB Core
         ---------------------------------------------------------

  ==> Geometry <==

    Molecular point group: c1
    Full point group: C1

    Geometry (in Angstrom), charge = 0, multiplicity = 1:

       Center              X                  Y                   Z               Mass       
    ------------   -----------------  -----------------  -----------------  -----------------
           C         -1.296188371158     0.743508006133    -0.560883210995    12.000000000000
           C         -0.307007763609     0.112226549580     1.562953509922    12.000000000000
           C         -2.369061543446     1.309473599408     0.103690406998    12.000000000000
           C         -1.375852000721     0.679761684091     2.233200771308    12.000000000000
           C          1.344268128477    -1.706167256729    -0.145910922428    12.000000000000
           C          1.460753455222     0.217995715868    -1.603006923358    12.000000000000
           C          2.408940993102    -2.251804852329    -0.827454909555    12.000000000000
           C          2.521989068813    -0.371289100016    -2.251771798762    12.000000000000
           C         -0.255440578503     0.139810618777     0.161029457013    12.000000000000
           C          0.853565083958    -0.450273412842    -0.530118966792    12.000000000000
           C         -2.429431177361     1.289908940832     1.515302379352    12.000000000000
           N          2.967924999805    -1.579714725166    -1.853415536524    14.003074004780
           O         -3.413659635229     1.809966271427     2.128528211475    15.994914619560
           H         -1.271982446880     0.770847699982    -1.645556637091     1.007825032070
           H          0.490369177519    -0.351082754284     2.134953544048     1.007825032070
           H         -3.161804399402     1.766820469925    -0.477954743247     1.007825032070
           H         -1.389791638564     0.648582875229     3.316731280110     1.007825032070
           H          0.900671598000    -2.253892449046     0.674863274181     1.007825032070
           H          1.109650303677     1.188828359438    -1.928394301193     1.007825032070
           H          2.841980817100    -3.212872660793    -0.594085802512     1.007825032070
           H          3.042876260068     0.078480594195    -3.083680178109     1.007825032070
           H          3.751326042591    -1.996612666277    -2.342471628030     1.007825032070

  Running in c1 symmetry.

  Rotational constants: A =      0.09566  B =      0.01359  C =      0.01233 [cm^-1]
  Rotational constants: A =   2867.93420  B =    407.33013  C =    369.78963 [MHz]
  Nuclear repulsion =  700.362136894436389

  Charge       = 0
  Multiplicity = 1
  Electrons    = 90
  Nalpha       = 45
  Nbeta        = 45

  ==> Algorithm <==

  SCF Algorithm Type is DF.
  DIIS enabled.
  MOM disabled.
  Fractional occupation disabled.
  Guess Type is READ.
  Energy threshold   = 1.00e-10
  Density threshold  = 1.00e-10
  Integral threshold = 0.00e+00

  ==> Primary Basis <==

  Basis Set: AUG-CC-PVTZ
    Blend: AUG-CC-PVTZ
    Number of shells: 263
    Number of basis function: 805
    Number of Cartesian functions: 940
    Spherical Harmonics?: true
    Max angular momentum: 3

   => Loading Basis Set <=

    Name: (AUG-CC-PVTZ AUX)
    Role: JKFIT
    Keyword: DF_BASIS_SCF
    atoms 1-11  entry C          line   161 file /cbio/jclab/home/chayas/anaconda/envs/py35/share/psi4/basis/aug-cc-pvtz-jkfit.gbs 
    atoms 12    entry N          line   223 file /cbio/jclab/home/chayas/anaconda/envs/py35/share/psi4/basis/aug-cc-pvtz-jkfit.gbs 
    atoms 13    entry O          line   285 file /cbio/jclab/home/chayas/anaconda/envs/py35/share/psi4/basis/aug-cc-pvtz-jkfit.gbs 
    atoms 14-22 entry H          line    69 file /cbio/jclab/home/chayas/anaconda/envs/py35/share/psi4/basis/aug-cc-pvtz-jkfit.gbs 

  Reading orbitals from file 180, no projection.

  ==> Pre-Iterations <==

   -------------------------------------------------------
    Irrep   Nso     Nmo     Nalpha   Nbeta   Ndocc  Nsocc
   -------------------------------------------------------
     A        805     805       0       0       0       0
   -------------------------------------------------------
    Total     805     805      45      45      45       0
   -------------------------------------------------------

  ==> Integral Setup <==

  ==> DFJK: Density-Fitted J/K Matrices <==

    J tasked:                  Yes
    K tasked:                  Yes
    wK tasked:                  No
    OpenMP threads:              8
    Integrals threads:           8
    Memory (MB):              3576
    Algorithm:                Disk
    Integral Cache:           NONE
    Schwarz Cutoff:          1E-12
    Fitting Condition:       1E-12

   => Auxiliary Basis Set <=

  Basis Set: (AUG-CC-PVTZ AUX)
    Blend: AUG-CC-PVTZ-JKFIT
    Number of shells: 516
    Number of basis function: 1766
    Number of Cartesian functions: 2198
    Spherical Harmonics?: true
    Max angular momentum: 4

  Minimum eigenvalue in the overlap matrix is 6.8519126147E-07.
  Using Symmetric Orthogonalization.

  SCF Guess: Orbitals guess was supplied from a previous computation.

  ==> Iterations <==

                           Total Energy        Delta E     RMS |[F,P]|

   @DF-RHF iter   0:  -551.26764847868787   -5.51268e+02   5.88817e-04 
   @DF-RHF iter   1:  -551.21767308644019    4.99754e-02   1.04456e-04 
   @DF-RHF iter   2:  -551.21802424680766   -3.51160e-04   7.60902e-05 DIIS
   @DF-RHF iter   3:  -551.21825878688855   -2.34540e-04   1.23638e-05 DIIS
   @DF-RHF iter   4:  -551.21829029599871   -3.15091e-05   7.68091e-06 DIIS
   @DF-RHF iter   5:  -551.21830732184196   -1.70258e-05   4.33809e-06 DIIS
   @DF-RHF iter   6:  -551.21831393897230   -6.61713e-06   1.90052e-06 DIIS
   @DF-RHF iter   7:  -551.21831520716671   -1.26819e-06   6.81186e-07 DIIS
   @DF-RHF iter   8:  -551.21831528305211   -7.58854e-08   1.80097e-07 DIIS
   @DF-RHF iter   9:  -551.21831528821315   -5.16104e-09   8.88996e-08 DIIS
   @DF-RHF iter  10:  -551.21831528924747   -1.03432e-09   2.86035e-08 DIIS
   @DF-RHF iter  11:  -551.21831528938071   -1.33241e-10   1.32080e-08 DIIS
   @DF-RHF iter  12:  -551.21831528938515   -4.43379e-12   5.46659e-09 DIIS
   @DF-RHF iter  13:  -551.21831528938162    3.52429e-12   2.66984e-09 DIIS
   @DF-RHF iter  14:  -551.21831528941891   -3.72893e-11   8.55138e-10 DIIS
   @DF-RHF iter  15:  -551.21831528942221   -3.29692e-12   3.37816e-10 DIIS
   @DF-RHF iter  16:  -551.21831528940447    1.77351e-11   1.13411e-10 DIIS
   @DF-RHF iter  17:  -551.21831528942596   -2.14868e-11   6.68345e-11 DIIS

  ==> Post-Iterations <==

    Orbital Energies (a.u.)
    -----------------------

    Doubly Occupied:                                                      

       1A    -20.433686     2A    -15.697362     3A    -11.355871  
       4A    -11.355815     5A    -11.308059     6A    -11.284216  
       7A    -11.284160     8A    -11.247489     9A    -11.226211  
      10A    -11.226143    11A    -11.211100    12A    -11.185327  
      13A    -11.185287    14A     -1.379042    15A     -1.261336  
      16A     -1.177552    17A     -1.111487    18A     -1.105550  
      19A     -0.994706    20A     -0.991162    21A     -0.934515  
      22A     -0.899914    23A     -0.836060    24A     -0.807866  
      25A     -0.782683    26A     -0.733708    27A     -0.720345  
      28A     -0.690253    29A     -0.674048    30A     -0.651687  
      31A     -0.616045    32A     -0.614805    33A     -0.606503  
      34A     -0.581496    35A     -0.563176    36A     -0.535705  
      37A     -0.508062    38A     -0.482791    39A     -0.482335  
      40A     -0.458415    41A     -0.421295    42A     -0.394531  
      43A     -0.342568    44A     -0.324621    45A     -0.229071  

    Virtual:                                                              

      46A     -0.007986    47A      0.011198    48A      0.018455  
      49A      0.023552    50A      0.036366    51A      0.040332  
      52A      0.041221    53A      0.052367    54A      0.055599  
      55A      0.058238    56A      0.062344    57A      0.069018  
      58A      0.070569    59A      0.071257    60A      0.082178  
      61A      0.092703    62A      0.093727    63A      0.104774  
      64A      0.104917    65A      0.105381    66A      0.117808  
      67A      0.120116    68A      0.120851    69A      0.126825  
      70A      0.128639    71A      0.129320    72A      0.131651  
      73A      0.135785    74A      0.145509    75A      0.150620  
      76A      0.151688    77A      0.151839    78A      0.161354  
      79A      0.164306    80A      0.166165    81A      0.167738  
      82A      0.172288    83A      0.181178    84A      0.182045  
      85A      0.185217    86A      0.190568    87A      0.196365  
      88A      0.196506    89A      0.207011    90A      0.208795  
      91A      0.211939    92A      0.214982    93A      0.221966  
      94A      0.227168    95A      0.227648    96A      0.232485  
      97A      0.234955    98A      0.248694    99A      0.252440  
     100A      0.253488   101A      0.254965   102A      0.259750  
     103A      0.265351   104A      0.269376   105A      0.270906  
     106A      0.282169   107A      0.284232   108A      0.289597  
     109A      0.292587   110A      0.293960   111A      0.297587  
     112A      0.303380   113A      0.305178   114A      0.312355  
     115A      0.321581   116A      0.322069   117A      0.327758  
     118A      0.328462   119A      0.330815   120A      0.332772  
     121A      0.340707   122A      0.346454   123A      0.347948  
     124A      0.348036   125A      0.360721   126A      0.361911  
     127A      0.363831   128A      0.363933   129A      0.370108  
     130A      0.373679   131A      0.380373   132A      0.386938  
     133A      0.388553   134A      0.396583   135A      0.402615  
     136A      0.406110   137A      0.415503   138A      0.415785  
     139A      0.422226   140A      0.423720   141A      0.427286  
     142A      0.435188   143A      0.440398   144A      0.441140  
     145A      0.446919   146A      0.455231   147A      0.457541  
     148A      0.460635   149A      0.463818   150A      0.464694  
     151A      0.470596   152A      0.472724   153A      0.475399  
     154A      0.480436   155A      0.484695   156A      0.488599  
     157A      0.491867   158A      0.493907   159A      0.494363  
     160A      0.498395   161A      0.499279   162A      0.503743  
     163A      0.507905   164A      0.509838   165A      0.516922  
     166A      0.523104   167A      0.527388   168A      0.529054  
     169A      0.532849   170A      0.533992   171A      0.543682  
     172A      0.544200   173A      0.550597   174A      0.555149  
     175A      0.564499   176A      0.567155   177A      0.569521  
     178A      0.577050   179A      0.579081   180A      0.585269  
     181A      0.591852   182A      0.597393   183A      0.605276  
     184A      0.606462   185A      0.608213   186A      0.624108  
     187A      0.625728   188A      0.643775   189A      0.648775  
     190A      0.651111   191A      0.657097   192A      0.661960  
     193A      0.670378   194A      0.670851   195A      0.674259  
     196A      0.686352   197A      0.690962   198A      0.692602  
     199A      0.696169   200A      0.701669   201A      0.705104  
     202A      0.716839   203A      0.718642   204A      0.721172  
     205A      0.725587   206A      0.733045   207A      0.737666  
     208A      0.742998   209A      0.748442   210A      0.753041  
     211A      0.762179   212A      0.762312   213A      0.771561  
     214A      0.776698   215A      0.776976   216A      0.788731  
     217A      0.793516   218A      0.795154   219A      0.810385  
     220A      0.814338   221A      0.815388   222A      0.827592  
     223A      0.836728   224A      0.841375   225A      0.851644  
     226A      0.852295   227A      0.856200   228A      0.863930  
     229A      0.873585   230A      0.877914   231A      0.878247  
     232A      0.884648   233A      0.889728   234A      0.892764  
     235A      0.903372   236A      0.908099   237A      0.908190  
     238A      0.914520   239A      0.914913   240A      0.921749  
     241A      0.922192   242A      0.927086   243A      0.931966  
     244A      0.932235   245A      0.937753   246A      0.938826  
     247A      0.953540   248A      0.958384   249A      0.960704  
     250A      0.963849   251A      0.970343   252A      0.974182  
     253A      0.987472   254A      0.987678   255A      0.995868  
     256A      1.000125   257A      1.005733   258A      1.009099  
     259A      1.013769   260A      1.020039   261A      1.024187  
     262A      1.027387   263A      1.028150   264A      1.032354  
     265A      1.038356   266A      1.039703   267A      1.045085  
     268A      1.046130   269A      1.053715   270A      1.055189  
     271A      1.058004   272A      1.062599   273A      1.075414  
     274A      1.077776   275A      1.085140   276A      1.086082  
     277A      1.093114   278A      1.098051   279A      1.099779  
     280A      1.102684   281A      1.110095   282A      1.115284  
     283A      1.118385   284A      1.123200   285A      1.126093  
     286A      1.135026   287A      1.137193   288A      1.143334  
     289A      1.153505   290A      1.154604   291A      1.155992  
     292A      1.166250   293A      1.167075   294A      1.180907  
     295A      1.183328   296A      1.188400   297A      1.190701  
     298A      1.191867   299A      1.193386   300A      1.201208  
     301A      1.209749   302A      1.216132   303A      1.218677  
     304A      1.221515   305A      1.225609   306A      1.237297  
     307A      1.243735   308A      1.243898   309A      1.248804  
     310A      1.253323   311A      1.264168   312A      1.265146  
     313A      1.270786   314A      1.277819   315A      1.278244  
     316A      1.287571   317A      1.295939   318A      1.305852  
[...]

   => Auxiliary Basis Set <=

  Basis Set: (AUG-CC-PVTZ AUX)
    Blend: AUG-CC-PVTZ-RI
    Number of shells: 490
    Number of basis function: 1792
    Number of Cartesian functions: 2263
    Spherical Harmonics?: true
    Max angular momentum: 4

	 --------------------------------------------------------
	                 NBF =   805, NAUX =  1792
	 --------------------------------------------------------
	   CLASS    FOCC     OCC    AOCC    AVIR     VIR    FVIR
	   PAIRS       0      45      45     760     760       0
	 --------------------------------------------------------


         ------------------------------------------------------------
                                     CPHF                           
                                  Rob Parrish                       
         ------------------------------------------------------------

  ==> Geometry <==

    Molecular point group: c1
    Full point group: C1

    Geometry (in Angstrom), charge = 0, multiplicity = 1:

       Center              X                  Y                   Z               Mass       
    ------------   -----------------  -----------------  -----------------  -----------------
           C         -1.178186105298     0.921782044518    -0.523755251377    12.000000000000
           C         -0.343229471208     0.086374576956     1.599569846830    12.000000000000
           C         -2.314987262688     1.349264498263     0.086154805787    12.000000000000
           C         -1.448924001721     0.557948809192     2.233148042399    12.000000000000
           C          1.454702446003    -1.590720743537    -0.062762687678    12.000000000000
           C          1.465458722909     0.188439336919    -1.675028414557    12.000000000000
           C          2.425127465080    -2.217265139501    -0.777412044174    12.000000000000
           C          2.440632032279    -0.462207882475    -2.360344699655    12.000000000000
           C         -0.132624740426     0.292111234170     0.206669601774    12.000000000000
           C          0.940538390936    -0.319145585965    -0.449423692474    12.000000000000
           C         -2.518957600271     1.225270458024     1.516646501849    12.000000000000
           N          2.924682238223    -1.651071428438    -1.909757471704    14.003074004780
           O         -3.540676390058     1.643068486515     2.083670790854    15.994914619560
           H         -1.086181105796     1.010218122513    -1.598333033107     1.007825032070
           H          0.432369246692    -0.400451691773     2.176365226570     1.007825032070
           H         -3.124354717786     1.777738604548    -0.486307209201     1.007825032070
           H         -1.570427732891     0.448608591372     3.301191019455     1.007825032070
           H          1.053703764854    -2.093477477467     0.802518180937     1.007825032070
           H          1.119526652705     1.135375824496    -2.057364021540     1.007825032070
           H          2.811811918248    -3.188292596359    -0.515582079648     1.007825032070
           H          2.878884483053    -0.078046742989    -3.266966255050     1.007825032070
           H          3.640176659301    -2.127048738676    -2.430837643689     1.007825032070

  Nuclear repulsion =  698.818935180131575
  Reference energy  = -551.237968711757162

  ==> Basis Set <==

  Basis Set: AUG-CC-PVTZ
    Blend: AUG-CC-PVTZ
    Number of shells: 263
    Number of basis function: 805
    Number of Cartesian functions: 940
    Spherical Harmonics?: true
    Max angular momentum: 3

  ==> CGRSolver (by Rob Parrish) <==

   Number of roots    =         1
   Preconditioning    =    JACOBI
   Convergence cutoff =     1E-06
   Maximum iterations =       100

  ==> CPHFRHamiltonian (by Rob Parrish) <== 

  ==> DFJK: Density-Fitted J/K Matrices <==

    J tasked:                  Yes
    K tasked:                  Yes
    wK tasked:                  No
    OpenMP threads:              8
    Integrals threads:           8
    Memory (MB):              3576
    Algorithm:                Disk
    Integral Cache:           NONE
    Schwarz Cutoff:          1E-12
    Fitting Condition:       1E-12

   => Auxiliary Basis Set <=

  Basis Set: (AUG-CC-PVTZ AUX)
    Blend: AUG-CC-PVTZ-JKFIT
    Number of shells: 516
    Number of basis function: 1766
    Number of Cartesian functions: 2198
    Spherical Harmonics?: true
    Max angular momentum: 4

  ==> CPHF Iterations <==

  => Iterations <=

             Iter  Converged  Remaining    Residual
  CGR           1          0          1   1.551E-01
  CGR           2          0          1   5.868E-02
  CGR           3          0          1   2.867E-02
  CGR           4          0          1   8.118E-03
  CGR           5          0          1   2.775E-03
  CGR           6          0          1   1.282E-03
  CGR           7          0          1   5.404E-04
  CGR           8          0          1   2.744E-04
  CGR           9          0          1   1.258E-04
  CGR          10          0          1   3.838E-05
  CGR          11          0          1   1.348E-05
  CGR          12          0          1   3.248E-06
  CGR          13          0          1   1.091E-06
  CGR          14          1          0   4.267E-07

    CGRSolver converged.

  ==> DFCorrGrad: Density-Fitted Correlated Gradients <==

    OpenMP threads:              8
    Integrals threads:           8
    Memory (MB):              3576
    Schwarz Cutoff:          0E+00
    Fitting Condition:       1E-12

   => Auxiliary Basis Set <=

  Basis Set: (AUG-CC-PVTZ AUX)
    Blend: AUG-CC-PVTZ-JKFIT
    Number of shells: 516
    Number of basis function: 1766
    Number of Cartesian functions: 2198
    Spherical Harmonics?: true
    Max angular momentum: 4

	-----------------------------------------------------------
	 ==================> DF-MP2 Energies <==================== 
	-----------------------------------------------------------
	 Reference Energy          =    -551.2379687117571621 [Eh]
	 Singles Energy            =      -0.0000000000000001 [Eh]
	 Same-Spin Energy          =      -0.6006537316040080 [Eh]
	 Opposite-Spin Energy      =      -1.8355750558211206 [Eh]
	 Correlation Energy        =      -2.4362287874251285 [Eh]
	 Total Energy              =    -553.6741974991822417 [Eh]
	-----------------------------------------------------------
	 ================> DF-SCS-MP2 Energies <================== 
	-----------------------------------------------------------
	 SCS Same-Spin Scale       =       0.3333333333333333 [-]
	 SCS Opposite-Spin Scale   =       1.2000000000000000 [-]
	 SCS Same-Spin Energy      =      -0.2002179105346693 [Eh]
	 SCS Opposite-Spin Energy  =      -2.2026900669853444 [Eh]
	 SCS Correlation Energy    =      -2.4029079775200137 [Eh]
	 SCS Total Energy          =    -553.6408766892772064 [Eh]
	-----------------------------------------------------------


  -Total Gradient:
     Atom            X                  Y                   Z
    ------   -----------------  -----------------  -----------------
       1       -0.005797749235    -0.009894128578    -0.000204226870
       2        0.000643249135     0.000929129826     0.000650268156
       3        0.000066215331     0.000044797996    -0.000382983690
       4        0.000108879505     0.000107279901    -0.000013274585
       5       -0.007371947453    -0.005340018068    -0.007428088334
       6        0.000917681650     0.000603217535     0.000134555141
       7       -0.000118784015    -0.000148323598     0.000201841905
       8        0.000025924568    -0.000016304286     0.000090467516
       9        0.004194189537     0.010846539992    -0.004359197977
      10        0.007709586702     0.002875713480     0.011190760649
      11       -0.000161878051     0.000042398645     0.000273368864
      12       -0.000006208419     0.000053260083    -0.000202500729
      13       -0.000187432171    -0.000032282501     0.000129280942
      14        0.000019708526    -0.000083164078    -0.000108618948
      15       -0.000125773514    -0.000173631058    -0.000077458590
      16       -0.000006980277     0.000160918445     0.000099125350
      17       -0.000124411798     0.000036196901     0.000298853844
      18       -0.000035669915    -0.000024522976     0.000050729159
      19       -0.000062383431    -0.000052870313    -0.000046284708
      20        0.000088927095     0.000028548550     0.000033451480
      21        0.000112430853     0.000071944531    -0.000217611829
      22        0.000112425365    -0.000034700425    -0.000112456756


*** tstop() called on gpu-2-7.local at Mon Nov 13 01:54:52 2017
Module time:
	user time   =    4882.88 seconds =      81.38 minutes
	system time =      98.91 seconds =       1.65 minutes
	total time  =       2270 seconds =      37.83 minutes
Total time:
	user time   =   80115.45 seconds =    1335.26 minutes
	system time =    1582.59 seconds =      26.38 minutes
	total time  =      36424 seconds =     607.07 minutes

			-----------------------------------------
			 OPTKING 2.0: for geometry optimizations 
			  - R.A. King,  Bethel University        
			-----------------------------------------

	Previous internal coordinate definitions found.
	---Fragment 1 Geometry and Gradient---
	 C          -2.2264490726        1.7419156184       -0.9897539858
	 C          -0.6486097013        0.1632242953        3.0227489409
	 C          -4.3746919276        2.5497403825        0.1628089880
	 C          -2.7380695506        1.0543704455        4.2200382143
	 C           2.7489892278       -3.0060265592       -0.1186042911
	 C           2.7693156453        0.3560987394       -3.1653449683
	 C           4.5828267463       -4.1900238777       -1.4690958559
	 C           4.6121261322       -0.8734463143       -4.4604050616
	 C          -0.2506244379        0.5520102329        0.3905489473
	 C           1.7773599763       -0.6030977540       -0.8492876964
	 C          -4.7601400049        2.3154256044        2.8660465289
	 N           5.5268484560       -3.1200728256       -3.6089186018
	 O          -6.6909087024        3.1049494571        3.9375671458
	 H          -2.0525848207        1.9090355860       -3.0204117017
	 H           0.8170594645       -0.7567440269        4.1127342434
	 H          -5.9041747586        3.3594390985       -0.9189874418
	 H          -2.9676783267        0.8477473786        6.2383469391
	 H           1.9912115408       -3.9560990978        1.5165395786
	 H           2.1155987721        2.1455493662       -3.8878545564
	 H           5.3135544627       -6.0249998386       -0.9743089296
	 H           5.4403032412       -0.1474869698       -6.1736715074
	 H           6.8789369614       -4.0195395874       -4.5936174201
	            -0.0057977492       -0.0098941286       -0.0002042269
	             0.0006432491        0.0009291298        0.0006502682
	             0.0000662153        0.0000447980       -0.0003829837
	             0.0001088795        0.0001072799       -0.0000132746
	            -0.0073719475       -0.0053400181       -0.0074280883
	             0.0009176817        0.0006032175        0.0001345551
	            -0.0001187840       -0.0001483236        0.0002018419
	             0.0000259246       -0.0000163043        0.0000904675
	             0.0041941895        0.0108465400       -0.0043591980
	             0.0077095867        0.0028757135        0.0111907606
	            -0.0001618781        0.0000423986        0.0002733689
	            -0.0000062084        0.0000532601       -0.0002025007
	            -0.0001874322       -0.0000322825        0.0001292809
	             0.0000197085       -0.0000831641       -0.0001086189
	            -0.0001257735       -0.0001736311       -0.0000774586
	            -0.0000069803        0.0001609184        0.0000991254
	            -0.0001244118        0.0000361969        0.0002988538
	            -0.0000356699       -0.0000245230        0.0000507292
	            -0.0000623834       -0.0000528703       -0.0000462847
	             0.0000889271        0.0000285485        0.0000334515
	             0.0001124309        0.0000719445       -0.0002176118
	             0.0001124254       -0.0000347004       -0.0001124568

	---Fragment 1 Intrafragment Coordinates---
	 - Coordinate -           - BOHR/RAD -       - ANG/DEG -
	 R(1,3)           =         2.568254	       1.359062
	 R(1,9)           =         2.687935	       1.422394
	 R(1,14)          =         2.044928	       1.082129
	 R(2,4)           =         2.567778	       1.358810
	 R(2,9)           =         2.690358	       1.423676
	 R(2,15)          =         2.045140	       1.082241
	 R(3,11)          =         2.740614	       1.450271
	 R(3,16)          =         2.040885	       1.079990
	 R(4,11)          =         2.740862	       1.450402
	 R(4,17)          =         2.041809	       1.080479
	 R(5,7)           =         2.566834	       1.358310
	 R(5,10)          =         2.692959	       1.425053
	 R(5,18)          =         2.037292	       1.078089
	 R(6,8)           =         2.566108	       1.357926
	 R(6,10)          =         2.695952	       1.426636
	 R(6,19)          =         2.037523	       1.078211
	 R(7,12)          =         2.571928	       1.361006
	 R(7,20)          =         2.036152	       1.077485
	 R(8,12)          =         2.570812	       1.360415
	 R(8,21)          =         2.036707	       1.077779
	 R(9,10)          =         2.642762	       1.398489
	 R(11,13)         =         2.345074	       1.240960
	 R(12,22)         =         1.899162	       1.004993
	 B(1,3,11)        =         2.133414	     122.235624
	 B(1,3,16)        =         2.110375	     120.915592
	 B(1,9,2)         =         2.046147	     117.235607
	 B(1,9,10)        =         2.113730	     121.107810
	 B(2,4,11)        =         2.128995	     121.982412
	 B(2,4,17)        =         2.114482	     121.150902
	 B(2,9,10)        =         2.105234	     120.621019
	 B(3,1,9)         =         2.121924	     121.577280
	 B(3,1,14)        =         2.084095	     119.409837
	 B(3,11,4)        =         2.007376	     115.014171
	 B(3,11,13)       =         2.138507	     122.527430
	 B(4,2,9)         =         2.125177	     121.763665
	 B(4,2,15)        =         2.083768	     119.391128
	 B(4,11,13)       =         2.137189	     122.451897
	 B(5,7,12)        =         2.103747	     120.535800
	 B(5,7,20)        =         2.146276	     122.972565
	 B(5,10,6)        =         2.001835	     114.696707
	 B(5,10,9)        =         2.140743	     122.655564
	 B(6,8,12)        =         2.102601	     120.470169
	 B(6,8,21)        =         2.148090	     123.076490
	 B(6,10,9)        =         2.129249	     121.996977
	 B(7,5,10)        =         2.125398	     121.776318
	 B(7,5,18)        =         2.063381	     118.223037
	 B(7,12,8)        =         2.104259	     120.565164
	 B(7,12,22)       =         2.089401	     119.713841
	 B(8,6,10)        =         2.126238	     121.824456
	 B(8,6,19)        =         2.062645	     118.180845
	 B(8,12,22)       =         2.089176	     119.700970
	 B(9,1,14)        =         2.075577	     118.921780
	 B(9,2,15)        =         2.071944	     118.713659
	 B(10,5,18)       =         2.094033	     119.979233
	 B(10,6,19)       =         2.093306	     119.937614
	 B(11,3,16)       =         2.039077	     116.830493
	 B(11,4,17)       =         2.039706	     116.866526
	 B(12,7,20)       =         2.032371	     116.446262
	 B(12,8,21)       =         2.032443	     116.450396
	 D(1,3,11,4)      =        -0.047224	      -2.705728
	 D(1,3,11,13)     =         3.110202	     178.201430
	 D(1,9,2,4)       =        -0.084723	      -4.854246
	 D(1,9,2,15)      =         3.130112	     179.342197
	 D(1,9,10,5)      =        -2.378127	    -136.256629
	 D(1,9,10,6)      =         0.593474	      34.003584
	 D(2,4,11,3)      =        -0.001722	      -0.098669
	 D(2,4,11,13)     =         3.124051	     178.994934
	 D(2,9,1,3)       =         0.035595	       2.039441
	 D(2,9,1,14)      =        -3.045050	    -174.468541
	 D(2,9,10,5)      =         0.554722	      31.783226
	 D(2,9,10,6)      =        -2.756862	    -157.956561
	 D(3,1,9,10)      =         2.975247	     170.469102
	 D(3,11,4,17)     =        -3.140801	    -179.954613
	 D(4,2,9,10)      =        -3.025412	    -173.343313
	 D(4,11,3,16)     =         3.067430	     175.750787
	 D(5,7,12,8)      =        -0.024625	      -1.410892
	 D(5,7,12,22)     =        -3.137724	    -179.778351
	 D(5,10,6,8)      =        -0.070447	      -4.036305
	 D(5,10,6,19)     =         3.119986	     178.762010
	 D(6,8,12,7)      =         0.018180	       1.041634
	 D(6,8,12,22)     =         3.131283	     179.409303
	 D(6,10,5,7)      =         0.063989	       3.666298
	 D(6,10,5,18)     =        -3.047699	    -174.620267
	 D(7,5,10,9)      =         3.047001	     174.580312
	 D(7,12,8,21)     =        -3.133979	    -179.563749
	 D(8,6,10,9)      =        -3.054618	    -175.016722
	 D(8,12,7,20)     =         3.075462	     176.210969
	 D(9,1,3,11)      =         0.029970	       1.717151
	 D(9,1,3,16)      =        -3.083603	    -176.677422
	 D(9,2,4,11)      =         0.068141	       3.904203
	 D(9,2,4,17)      =        -3.076072	    -176.245955
	 D(9,10,5,18)     =        -0.064686	      -3.706253
	 D(9,10,6,19)     =         0.135814	       7.781593
	 D(10,5,7,12)     =        -0.019192	      -1.099599
	 D(10,5,7,20)     =        -3.116485	    -178.561419
	 D(10,6,8,12)     =         0.032088	       1.838503
	 D(10,6,8,21)     =        -3.098215	    -177.514659
	 D(10,9,1,14)     =        -0.105398	      -6.038879
	 D(10,9,2,15)     =         0.189423	      10.853130
	 D(11,3,1,14)     =         3.110325	     178.208471
	 D(11,4,2,15)     =         3.136009	     179.680055
	 D(12,7,5,18)     =         3.093002	     177.215963
	 D(12,8,6,19)     =         3.125667	     179.087501
	 D(13,11,3,16)    =        -0.058330	      -3.342054
	 D(13,11,4,17)    =        -0.015027	      -0.861011
	 D(14,1,3,16)     =        -0.003248	      -0.186103
	 D(15,2,4,17)     =        -0.008205	      -0.470103
	 D(18,5,7,20)     =        -0.004291	      -0.245857
	 D(19,6,8,21)     =        -0.004637	      -0.265661
	 D(20,7,12,22)    =        -0.037638	      -2.156491
	 D(21,8,12,22)    =        -0.020876	      -1.196080

	Current energy   :      -553.6741974992

	Energy change for the previous step:
		Projected    :         0.0000136604
		Actual       :         0.0000584488

	Performing BFGS update.
	Previous computed or guess Hessian on step 1.
	Steps to be used in Hessian update: 15 14
	Adding user-defined constraint: Fragment 1; Coordinate 64:
		Value =    -2.378127; Fixed value    =    -2.356190
		Force =     0.019195; Force constant =     0.875000
	Removing off-diagonal coupling between coordinate 64 and others.
	Taking RFO optimization step.
	Going to follow RFO solution 1.
	Using RFO vector 1.

	Determining step-restricting scale parameter for RS-RFO.
	Maximum step size allowed    0.10000

	 Iter      |step|        alpha        rfo_root  
	------------------------------------------------
	    0     0.18516       1.00000           1
	    1     0.13730      13.99664           1
	    2     0.11146      30.94256           1
	    3     0.10165      41.54991           1
	    4     0.10004      43.61792           1
	    5     0.10000      43.67431           1
	------------------------------------------------
	Norm of target step-size    0.10000
	Projected energy change by RFO approximation:        -0.0002195296

	Back-transformation to cartesian coordinates...
	The INTCO_EXCEPTion handler:
	TORS::compute_val: unable to compute torsion value
	Dynamic level is 0.
	exc.g_really_quit() is 0.

  **** Optimization has failed! (in 16 steps) ****
			--------------------------
			 OPTKING Finished Execution 
			--------------------------
	Cleaning optimization helper files.

*** Psi4 exiting successfully. Buy a developer a beer!
