
    -----------------------------------------------------------------------
          Psi4: An Open-Source Ab Initio Electronic Structure Package
                               Psi4 1.1 release

                         Git: Rev {HEAD} add49b9 


    R. M. Parrish, L. A. Burns, D. G. A. Smith, A. C. Simmonett,
    A. E. DePrince III, E. G. Hohenstein, U. Bozkaya, A. Yu. Sokolov,
    R. Di Remigio, R. M. Richard, J. F. Gonthier, A. M. James,
    H. R. McAlexander, A. Kumar, M. Saitow, X. Wang, B. P. Pritchard,
    P. Verma, H. F. Schaefer III, K. Patkowski, R. A. King, E. F. Valeev,
    F. A. Evangelista, J. M. Turney, T. D. Crawford, and C. D. Sherrill,
    J. Chem. Theory Comput. in press (2017).
    (doi: 10.1021/acs.jctc.7b00174)

    -----------------------------------------------------------------------


    Psi4 started on: Saturday, 11 November 2017 09:40AM

    Process ID:   6119
    PSIDATADIR: /cbio/jclab/home/chayas/anaconda/envs/py35/share/psi4
    Memory:     500.0 MiB
    Threads:    8
    
  ==> Input File <==

--------------------------------------------------------------------------

molecule phepyr {
  symmetry C1
  0 1 
  C      1.885   -1.036   -0.112
  C      0.807   -0.463   0.561
  C      2.921   -1.631   0.608
  C      0.764   -0.484   1.955
  C      2.878   -1.652   2.002
  C      1.445   -2.278   4.793
  C      2.023   0.056   4.846
  C      1.417   -2.247   6.178
  C      1.969   -0.017   6.228
  C      1.800   -1.079   2.676
  C      1.755   -1.101   4.122
  N      1.671   -1.143   6.915
  H      1.917   -1.021   -1.198
  H      -0.001   -0.002   0.000
  H      3.760   -2.079   0.084
  H      -0.084   -0.033   2.466
  H      3.693   -2.120   2.550
  H      1.231   -3.201   4.263
  H      2.268   0.993   4.356
  H      1.182   -3.140   6.748
  H      2.168   0.857   6.839
  units Angstrom
}

dih_string = "4 10 11 6 105"
set optking fixed_dihedral = $dih_string

optimize('MP2/aug-cc-PVTZ')
--------------------------------------------------------------------------
gradient() will perform analytic gradient computation.

*** tstart() called on gpu-2-10.local
*** at Sat Nov 11 09:40:32 2017

    SCF Algorithm Type (re)set to DF.

*** tstart() called on gpu-2-10.local
*** at Sat Nov 11 09:40:32 2017

   => Loading Basis Set <=

    Name: AUG-CC-PVTZ
    Role: ORBITAL
    Keyword: BASIS
    atoms 1-11  entry C          line   221 file /cbio/jclab/home/chayas/anaconda/envs/py35/share/psi4/basis/aug-cc-pvtz.gbs 
    atoms 12    entry N          line   267 file /cbio/jclab/home/chayas/anaconda/envs/py35/share/psi4/basis/aug-cc-pvtz.gbs 
    atoms 13-21 entry H          line    34 file /cbio/jclab/home/chayas/anaconda/envs/py35/share/psi4/basis/aug-cc-pvtz.gbs 


         ---------------------------------------------------------
                                   SCF
            by Justin Turney, Rob Parrish, and Andy Simmonett
                              RHF Reference
                        8 Threads,    500 MiB Core
         ---------------------------------------------------------

  ==> Geometry <==

    Molecular point group: c1
    Full point group: C1

    Geometry (in Angstrom), charge = 0, multiplicity = 1:

       Center              X                  Y                   Z               Mass       
    ------------   -----------------  -----------------  -----------------  -----------------
           C          0.107601624486     0.053881747172    -3.526042728723    12.000000000000
           C         -0.970398375514     0.626881747172    -2.853042728723    12.000000000000
           C          1.143601624486    -0.541118252828    -2.806042728723    12.000000000000
           C         -1.013398375514     0.605881747172    -1.459042728723    12.000000000000
           C          1.100601624486    -0.562118252828    -1.412042728723    12.000000000000
           C         -0.332398375514    -1.188118252828     1.378957271277    12.000000000000
           C          0.245601624486     1.145881747172     1.431957271277    12.000000000000
           C         -0.360398375514    -1.157118252828     2.763957271277    12.000000000000
           C          0.191601624486     1.072881747172     2.813957271277    12.000000000000
           C          0.022601624486     0.010881747172    -0.738042728723    12.000000000000
           C         -0.022398375514    -0.011118252828     0.707957271277    12.000000000000
           N         -0.106398375514    -0.053118252828     3.500957271277    14.003074004780
           H          0.139601624486     0.068881747172    -4.612042728723     1.007825032070
           H         -1.778398375514     1.087881747172    -3.414042728723     1.007825032070
           H          1.982601624486    -0.989118252828    -3.330042728723     1.007825032070
           H         -1.861398375514     1.056881747172    -0.948042728723     1.007825032070
           H          1.915601624486    -1.030118252828    -0.864042728723     1.007825032070
           H         -0.546398375514    -2.111118252828     0.848957271277     1.007825032070
           H          0.490601624486     2.082881747172     0.941957271277     1.007825032070
           H         -0.595398375514    -2.050118252828     3.333957271277     1.007825032070
           H          0.390601624486     1.946881747172     3.424957271277     1.007825032070

  Running in c1 symmetry.

  Rotational constants: A =      0.09741  B =      0.01784  C =      0.01703 [cm^-1]
  Rotational constants: A =   2920.26419  B =    534.91060  C =    510.61327 [MHz]
  Nuclear repulsion =  605.612736872420214

  Charge       = 0
  Multiplicity = 1
  Electrons    = 82
  Nalpha       = 41
  Nbeta        = 41

  ==> Algorithm <==

  SCF Algorithm Type is DF.
  DIIS enabled.
  MOM disabled.
  Fractional occupation disabled.
  Guess Type is SAD.
  Energy threshold   = 1.00e-10
  Density threshold  = 1.00e-10
  Integral threshold = 0.00e+00

  ==> Primary Basis <==

  Basis Set: AUG-CC-PVTZ
    Blend: AUG-CC-PVTZ
    Number of shells: 249
    Number of basis function: 759
    Number of Cartesian functions: 885
    Spherical Harmonics?: true
    Max angular momentum: 3

   => Loading Basis Set <=

    Name: (AUG-CC-PVTZ AUX)
    Role: JKFIT
    Keyword: DF_BASIS_SCF
    atoms 1-11  entry C          line   161 file /cbio/jclab/home/chayas/anaconda/envs/py35/share/psi4/basis/aug-cc-pvtz-jkfit.gbs 
    atoms 12    entry N          line   223 file /cbio/jclab/home/chayas/anaconda/envs/py35/share/psi4/basis/aug-cc-pvtz-jkfit.gbs 
    atoms 13-21 entry H          line    69 file /cbio/jclab/home/chayas/anaconda/envs/py35/share/psi4/basis/aug-cc-pvtz-jkfit.gbs 

  ==> Pre-Iterations <==

   -------------------------------------------------------
    Irrep   Nso     Nmo     Nalpha   Nbeta   Ndocc  Nsocc
   -------------------------------------------------------
     A        759     759       0       0       0       0
   -------------------------------------------------------
    Total     759     759      41      41      41       0
   -------------------------------------------------------

  ==> Integral Setup <==

  ==> DFJK: Density-Fitted J/K Matrices <==

    J tasked:                  Yes
    K tasked:                  Yes
    wK tasked:                  No
    OpenMP threads:              8
    Integrals threads:           8
    Memory (MB):               375
    Algorithm:                Disk
    Integral Cache:           NONE
    Schwarz Cutoff:          1E-12
    Fitting Condition:       1E-12

   => Auxiliary Basis Set <=

  Basis Set: (AUG-CC-PVTZ AUX)
    Blend: AUG-CC-PVTZ-JKFIT
    Number of shells: 486
    Number of basis function: 1662
    Number of Cartesian functions: 2067
    Spherical Harmonics?: true
    Max angular momentum: 4

  Minimum eigenvalue in the overlap matrix is 4.6023201464E-07.
  Using Symmetric Orthogonalization.

  SCF Guess: Superposition of Atomic Densities via on-the-fly atomic UHF.

  ==> Iterations <==

                           Total Energy        Delta E     RMS |[F,P]|

   @DF-RHF iter   0:  -482.80228194392021   -4.82802e+02   1.79159e-02 
   @DF-RHF iter   1:  -476.07353764725462    6.72874e+00   1.21615e-03 
   @DF-RHF iter   2:  -476.33470000090176   -2.61162e-01   9.00665e-04 DIIS
   @DF-RHF iter   3:  -476.37721924101555   -4.25192e-02   3.18918e-04 DIIS
   @DF-RHF iter   4:  -476.39336736323924   -1.61481e-02   1.36540e-04 DIIS
   @DF-RHF iter   5:  -476.39497936041181   -1.61200e-03   5.59318e-05 DIIS
   @DF-RHF iter   6:  -476.39527734271661   -2.97982e-04   1.73119e-05 DIIS
   @DF-RHF iter   7:  -476.39530553336226   -2.81906e-05   3.21624e-06 DIIS
   @DF-RHF iter   8:  -476.39530776522901   -2.23187e-06   1.36258e-06 DIIS
   @DF-RHF iter   9:  -476.39530832404836   -5.58819e-07   7.76438e-07 DIIS
   @DF-RHF iter  10:  -476.39530850212651   -1.78078e-07   2.76884e-07 DIIS
   @DF-RHF iter  11:  -476.39530855122814   -4.91016e-08   1.37478e-07 DIIS
   @DF-RHF iter  12:  -476.39530855708392   -5.85578e-09   4.51496e-08 DIIS
   @DF-RHF iter  13:  -476.39530855740816   -3.24235e-10   1.38511e-08 DIIS
   @DF-RHF iter  14:  -476.39530855745670   -4.85443e-11   3.76667e-09 DIIS
   @DF-RHF iter  15:  -476.39530855746239   -5.68434e-12   1.45788e-09 DIIS
   @DF-RHF iter  16:  -476.39530855746432   -1.93268e-12   7.51379e-10 DIIS
   @DF-RHF iter  17:  -476.39530855748541   -2.10889e-11   3.35454e-10 DIIS
   @DF-RHF iter  18:  -476.39530855746267    2.27374e-11   1.52626e-10 DIIS
   @DF-RHF iter  19:  -476.39530855748319   -2.05205e-11   7.93801e-11 DIIS

  ==> Post-Iterations <==

    Orbital Energies (a.u.)
    -----------------------

    Doubly Occupied:                                                      

       1A    -15.565772     2A    -11.275485     3A    -11.275420  
       4A    -11.263406     5A    -11.250627     6A    -11.245407  
       7A    -11.245268     8A    -11.243967     9A    -11.243904  
      10A    -11.242212    11A    -11.239105    12A    -11.239049  
      13A     -1.251033    14A     -1.172880    15A     -1.106793  
      16A     -1.035663    17A     -1.023999    18A     -1.015872  
      19A     -0.881016    20A     -0.857518    21A     -0.835282  
      22A     -0.805403    23A     -0.729179    24A     -0.684756  
      25A     -0.667901    26A     -0.655278    27A     -0.637093  
      28A     -0.631861    29A     -0.599860    30A     -0.595562  
      31A     -0.578739    32A     -0.538055    33A     -0.527232  
      34A     -0.506254    35A     -0.504903    36A     -0.502408  
      37A     -0.419389    38A     -0.379668    39A     -0.353535  
      40A     -0.343395    41A     -0.339037  

    Virtual:                                                              

      42A      0.025168    43A      0.032046    44A      0.032627  
      45A      0.035749    46A      0.043326    47A      0.048240  
      48A      0.050373    49A      0.052618    50A      0.060268  
      51A      0.084486    52A      0.086205    53A      0.092761  
      54A      0.092838    55A      0.094160    56A      0.097927  
      57A      0.101557    58A      0.103263    59A      0.108361  
      60A      0.112012    61A      0.114045    62A      0.115787  
      63A      0.118625    64A      0.123002    65A      0.126499  
      66A      0.127043    67A      0.128063    68A      0.131043  
      69A      0.138678    70A      0.140181    71A      0.141688  
      72A      0.144152    73A      0.144414    74A      0.148664  
      75A      0.156527    76A      0.157591    77A      0.159701  
      78A      0.171351    79A      0.174306    80A      0.176128  
      81A      0.190062    82A      0.192609    83A      0.196166  
      84A      0.203697    85A      0.211902    86A      0.227986  
      87A      0.228205    88A      0.234441    89A      0.238218  
      90A      0.244278    91A      0.244809    92A      0.247321  
      93A      0.253210    94A      0.256844    95A      0.262006  
      96A      0.263968    97A      0.264857    98A      0.270531  
      99A      0.272431   100A      0.275287   101A      0.278647  
     102A      0.290825   103A      0.293576   104A      0.297738  
     105A      0.304477   106A      0.306893   107A      0.308193  
     108A      0.313426   109A      0.314011   110A      0.317945  
     111A      0.320288   112A      0.326256   113A      0.327341  
     114A      0.329804   115A      0.342173   116A      0.345540  
     117A      0.351686   118A      0.355117   119A      0.359204  
     120A      0.361126   121A      0.361396   122A      0.374471  
     123A      0.381669   124A      0.392758   125A      0.397863  
     126A      0.399770   127A      0.403688   128A      0.413303  
     129A      0.416273   130A      0.417974   131A      0.420548  
     132A      0.427402   133A      0.437183   134A      0.438938  
     135A      0.442671   136A      0.446402   137A      0.447483  
     138A      0.450325   139A      0.456073   140A      0.462673  
     141A      0.463809   142A      0.468896   143A      0.475214  
     144A      0.475518   145A      0.479206   146A      0.482077  
     147A      0.485370   148A      0.489768   149A      0.490954  
     150A      0.493538   151A      0.495759   152A      0.499853  
     153A      0.505539   154A      0.509285   155A      0.512287  
     156A      0.518576   157A      0.522015   158A      0.522789  
     159A      0.525184   160A      0.529961   161A      0.539504  
     162A      0.539788   163A      0.541325   164A      0.542618  
     165A      0.546881   166A      0.553052   167A      0.561289  
     168A      0.563430   169A      0.569449   170A      0.571603  
     171A      0.580820   172A      0.586498   173A      0.591525  
     174A      0.601952   175A      0.606501   176A      0.612261  
     177A      0.614144   178A      0.624573   179A      0.633221  
     180A      0.634291   181A      0.637043   182A      0.638142  
     183A      0.660120   184A      0.660815   185A      0.662554  
     186A      0.671428   187A      0.671694   188A      0.676432  
     189A      0.687296   190A      0.691297   191A      0.695297  
     192A      0.700449   193A      0.706680   194A      0.715705  
     195A      0.722459   196A      0.725183   197A      0.731331  
     198A      0.738012   199A      0.746069   200A      0.747759  
     201A      0.756707   202A      0.758536   203A      0.766713  
     204A      0.775475   205A      0.781142   206A      0.782204  
     207A      0.789685   208A      0.790917   209A      0.797280  
     210A      0.809102   211A      0.810494   212A      0.812824  
     213A      0.826451   214A      0.843910   215A      0.851929  
     216A      0.862014   217A      0.862669   218A      0.866788  
     219A      0.871919   220A      0.879652   221A      0.883791  
     222A      0.886473   223A      0.887575   224A      0.890772  
     225A      0.898160   226A      0.904224   227A      0.905334  
     228A      0.910782   229A      0.916082   230A      0.916561  
     231A      0.918364   232A      0.921751   233A      0.929477  
     234A      0.933283   235A      0.938676   236A      0.950199  
     237A      0.951237   238A      0.952075   239A      0.956717  
     240A      0.969343   241A      0.970175   242A      0.978418  
     243A      0.981191   244A      0.985138   245A      0.990345  
     246A      0.991350   247A      0.996728   248A      1.003553  
     249A      1.007812   250A      1.011470   251A      1.022702  
     252A      1.023087   253A      1.025984   254A      1.032695  
     255A      1.043796   256A      1.045214   257A      1.054319  
     258A      1.057572   259A      1.059613   260A      1.061213  
     261A      1.068934   262A      1.083992   263A      1.084919  
     264A      1.087439   265A      1.089408   266A      1.090785  
     267A      1.098480   268A      1.104518   269A      1.109593  
     270A      1.113723   271A      1.116709   272A      1.122844  
     273A      1.127032   274A      1.134098   275A      1.137198  
     276A      1.143363   277A      1.154778   278A      1.159316  
     279A      1.165165   280A      1.174331   281A      1.176637  
     282A      1.177602   283A      1.182133   284A      1.183908  
     285A      1.189785   286A      1.194143   287A      1.198818  
     288A      1.202826   289A      1.205293   290A      1.210939  
     291A      1.216717   292A      1.223675   293A      1.230094  
     294A      1.238403   295A      1.241953   296A      1.243513  
     297A      1.257266   298A      1.257672   299A      1.259493  
     300A      1.270613   301A      1.277605   302A      1.282560  
     303A      1.286461   304A      1.287051   305A      1.300182  
     306A      1.310339   307A      1.312798   308A      1.319383  
     309A      1.322033   310A      1.334331   311A      1.335208  
     312A      1.343107   313A      1.346357   314A      1.377736  
     315A      1.381046   316A      1.382847   317A      1.385977  
     318A      1.393795   319A      1.402131   320A      1.420298  
     321A      1.421727   322A      1.431689   323A      1.432716  
     324A      1.433930   325A      1.443922   326A      1.450608  
     327A      1.454809   328A      1.466215   329A      1.480940  
     330A      1.489497   331A      1.500848   332A      1.505482  
     333A      1.516694   334A      1.526101   335A      1.539008  
     336A      1.549532   337A      1.562352   338A      1.562762  
     339A      1.567831   340A      1.570185   341A      1.572824  
     342A      1.577994   343A      1.584988   344A      1.602592  
     345A      1.611503   346A      1.618366   347A      1.623866  
     348A      1.628899   349A      1.636787   350A      1.658084  
     351A      1.669131   352A      1.674421   353A      1.686569  
     354A      1.697055   355A      1.705684   356A      1.706425  
     357A      1.713672   358A      1.721807   359A      1.724795  
     360A      1.727527   361A      1.735766   362A      1.742159  
     363A      1.751807   364A      1.752867   365A      1.759944  
     366A      1.772600   367A      1.774446   368A      1.787316  
     369A      1.792854   370A      1.804618   371A      1.818001  
     372A      1.828104   373A      1.836106   374A      1.839838  
     375A      1.841467   376A      1.849969   377A      1.857305  
     378A      1.881512   379A      1.885908   380A      1.887084  
     381A      1.905021   382A      1.910822   383A      1.916934  
     384A      1.924965   385A      1.931271   386A      1.938443  
     387A      1.953557   388A      1.960054   389A      1.970942  
     390A      1.976428   391A      1.987875   392A      1.992656  
     393A      1.999050   394A      2.002236   395A      2.014905  
     396A      2.025823   397A      2.027756   398A      2.041400  
     399A      2.042149   400A      2.048976   401A      2.051408  
     402A      2.062642   403A      2.078566   404A      2.080023  
     405A      2.088255   406A      2.091467   407A      2.106505  
     408A      2.106833   409A      2.118086   410A      2.129080  
     411A      2.139791   412A      2.148160   413A      2.149229  
     414A      2.150368   415A      2.168824   416A      2.171681  
     417A      2.172760   418A      2.187837   419A      2.191494  
     420A      2.207503   421A      2.211845   422A      2.217353  
     423A      2.229946   424A      2.230455   425A      2.234946  
     426A      2.257627   427A      2.260729   428A      2.279127  
     429A      2.296013   430A      2.297613   431A      2.312771  
     432A      2.320415   433A      2.329729   434A      2.343099  
     435A      2.353816   436A      2.362807   437A      2.364449  
     438A      2.380615   439A      2.381744   440A      2.387447  
     441A      2.393637   442A      2.416391   443A      2.431513  
     444A      2.437377   445A      2.467658   446A      2.472143  
     447A      2.479315   448A      2.486414   449A      2.513861  
     450A      2.518738   451A      2.532595   452A      2.560236  
     453A      2.566754   454A      2.576359   455A      2.585978  
     456A      2.586064   457A      2.596415   458A      2.605587  
     459A      2.613289   460A      2.621906   461A      2.636680  
     462A      2.668468   463A      2.680251   464A      2.714974  
     465A      2.725626   466A      2.741058   467A      2.763418  
     468A      2.784539   469A      2.813257   470A      2.829913  
     471A      2.831453   472A      2.862426   473A      2.870226  
     474A      2.886144   475A      2.890361   476A      2.959771  
     477A      2.969705   478A      3.002342   479A      3.052823  
     480A      3.063448   481A      3.080305   482A      3.129006  
     483A      3.152657   484A      3.160640   485A      3.174088  
     486A      3.200946   487A      3.204167   488A      3.222471  
     489A      3.228692   490A      3.257867   491A      3.264432  
     492A      3.271621   493A      3.309459   494A      3.326492  
     495A      3.341578   496A      3.342547   497A      3.355378  
     498A      3.375694   499A      3.389147   500A      3.396995  
     501A      3.401842   502A      3.420560   503A      3.431349  
     504A      3.434124   505A      3.440119   506A      3.445528  
     507A      3.448369   508A      3.457049   509A      3.464286  
     510A      3.471003   511A      3.481559   512A      3.496388  
     513A      3.520885   514A      3.526057   515A      3.527546  
     516A      3.542097   517A      3.542484   518A      3.544549  
     519A      3.554337   520A      3.565440   521A      3.568105  
     522A      3.579641   523A      3.583743   524A      3.599178  
     525A      3.604011   526A      3.605980   527A      3.615989  
     528A      3.619781   529A      3.622640   530A      3.650835  
     531A      3.651741   532A      3.665645   533A      3.680393  
     534A      3.686475   535A      3.689381   536A      3.709465  
     537A      3.711475   538A      3.717188   539A      3.732136  
     540A      3.741495   541A      3.748959   542A      3.770805  
     543A      3.795502   544A      3.805899   545A      3.810667  
     546A      3.817612   547A      3.822668   548A      3.838160  
     549A      3.843150   550A      3.856589   551A      3.866268  
     552A      3.870331   553A      3.872676   554A      3.876488  
     555A      3.893782   556A      3.900063   557A      3.910683  
     558A      3.915432   559A      3.925406   560A      3.933500  
     561A      3.948834   562A      3.951164   563A      3.962983  
     564A      3.968450   565A      3.969492   566A      3.996957  
     567A      3.998075   568A      4.005943   569A      4.010858  
     570A      4.011744   571A      4.031892   572A      4.041810  
     573A      4.049137   574A      4.053247   575A      4.056739  
     576A      4.074374   577A      4.093543   578A      4.093729  
     579A      4.099192   580A      4.101857   581A      4.116673  
     582A      4.125143   583A      4.135756   584A      4.152611  
     585A      4.164919   586A      4.167669   587A      4.177263  
     588A      4.177786   589A      4.200793   590A      4.206988  
     591A      4.209702   592A      4.218115   593A      4.223355  
     594A      4.235752   595A      4.246086   596A      4.254266  
     597A      4.255005   598A      4.284073   599A      4.285570  
     600A      4.286677   601A      4.304114   602A      4.304809  
     603A      4.323573   604A      4.329051   605A      4.348949  
     606A      4.359035   607A      4.384282   608A      4.393256  
     609A      4.400081   610A      4.407398   611A      4.408103  
     612A      4.420943   613A      4.424215   614A      4.430435  
     615A      4.446133   616A      4.446459   617A      4.449002  
     618A      4.462695   619A      4.463305   620A      4.470161  
     621A      4.485812   622A      4.494558   623A      4.506317  
     624A      4.521041   625A      4.527065   626A      4.551639  
     627A      4.558689   628A      4.576286   629A      4.584456  
     630A      4.621453   631A      4.631115   632A      4.644305  
     633A      4.665020   634A      4.670360   635A      4.695161  
     636A      4.696996   637A      4.713480   638A      4.732307  
     639A      4.738632   640A      4.746831   641A      4.770731  
     642A      4.773471   643A      4.798764   644A      4.821143  
     645A      4.831940   646A      4.859036   647A      4.877191  
     648A      4.905552   649A      4.909350   650A      4.920804  
     651A      4.942916   652A      4.948689   653A      4.952362  
     654A      4.965585   655A      4.979418   656A      4.997871  
     657A      5.005816   658A      5.021167   659A      5.027473  
     660A      5.035086   661A      5.044641   662A      5.062823  
     663A      5.071358   664A      5.081457   665A      5.088592  
     666A      5.101054   667A      5.116436   668A      5.126859  
     669A      5.134943   670A      5.153245   671A      5.154370  
     672A      5.162662   673A      5.163253   674A      5.170515  
     675A      5.171654   676A      5.179848   677A      5.201379  
     678A      5.205316   679A      5.234643   680A      5.251683  
     681A      5.278512   682A      5.288099   683A      5.316404  
     684A      5.336516   685A      5.356260   686A      5.362706  
     687A      5.363968   688A      5.375760   689A      5.381517  
     690A      5.383798   691A      5.425827   692A      5.439964  
     693A      5.455590   694A      5.466273   695A      5.479837  
     696A      5.483663   697A      5.516423   698A      5.540413  
     699A      5.552051   700A      5.560044   701A      5.595346  
     702A      5.649706   703A      5.664426   704A      5.721064  
     705A      5.746948   706A      5.777665   707A      5.781032  
     708A      5.790097   709A      5.800338   710A      5.819607  
     711A      5.840111   712A      5.857738   713A      5.884480  
     714A      5.887052   715A      5.910276   716A      5.966707  
     717A      6.028702   718A      6.079750   719A      6.141437  
     720A      6.171473   721A      6.190923   722A      6.222154  
     723A      6.235214   724A      6.255271   725A      6.257681  
     726A      6.321895   727A      6.335519   728A      6.346162  
     729A      6.393903   730A      6.474672   731A      6.504148  
     732A      6.560469   733A      6.607658   734A      6.611067  
     735A      6.692483   736A      6.704315   737A      6.740991  
     738A      6.808350   739A      6.876177   740A      6.885333  
     741A      6.932048   742A      7.024551   743A      7.049144  
     744A      7.068230   745A      7.176954   746A      7.335090  
     747A      7.410706   748A     15.614598   749A     16.143217  
     750A     16.538327   751A     16.728891   752A     18.456305  
     753A     18.782092   754A     19.066277   755A     19.289770  
     756A     20.018808   757A     20.020495   758A     20.101944  
     759A     21.870083  

    Final Occupation by Irrep:
              A 
    DOCC [    41 ]

  Energy converged.

  @DF-RHF Final Energy:  -476.39530855748319

   => Energetics <=

    Nuclear Repulsion Energy =            605.6127368724202142
    One-Electron Energy =               -1844.9977191204729934
    Two-Electron Energy =                 762.9896736905697026
    DFT Exchange-Correlation Energy =       0.0000000000000000
    Empirical Dispersion Energy =           0.0000000000000000
    PCM Polarization Energy =               0.0000000000000000
    EFP Energy =                            0.0000000000000000
    Total Energy =                       -476.3953085574831903



Properties will be evaluated at   0.000000,   0.000000,   0.000000 Bohr

Properties computed using the SCF density matrix

  Nuclear Dipole Moment: (a.u.)
     X:     0.1291      Y:     0.0592      Z:    -4.3398

  Electronic Dipole Moment: (a.u.)
     X:    -0.0980      Y:    -0.0457      Z:     3.2899

  Dipole Moment: (a.u.)
     X:     0.0312      Y:     0.0134      Z:    -1.0499     Total:     1.0504

  Dipole Moment: (Debye)
     X:     0.0792      Y:     0.0342      Z:    -2.6685     Total:     2.6698


*** tstop() called on gpu-2-10.local at Sat Nov 11 09:46:34 2017
Module time:
	user time   =    1269.29 seconds =      21.15 minutes
	system time =      38.81 seconds =       0.65 minutes
	total time  =        362 seconds =       6.03 minutes
Total time:
	user time   =    1269.30 seconds =      21.15 minutes
	system time =      38.81 seconds =       0.65 minutes
	total time  =        362 seconds =       6.03 minutes

  //>>>>>>>>>>>>>>>>>>>>>>>>>>>>>>>>>>>//
  //               DFMP2               //
  //<<<<<<<<<<<<<<<<<<<<<<<<<<<<<<<<<<<//

   => Loading Basis Set <=

    Name: (AUG-CC-PVTZ AUX)
    Role: RIFIT
    Keyword: DF_BASIS_MP2
    atoms 1-11  entry C          line   147 file /cbio/jclab/home/chayas/anaconda/envs/py35/share/psi4/basis/aug-cc-pvtz-ri.gbs 
    atoms 12    entry N          line   205 file /cbio/jclab/home/chayas/anaconda/envs/py35/share/psi4/basis/aug-cc-pvtz-ri.gbs 
    atoms 13-21 entry H          line    29 file /cbio/jclab/home/chayas/anaconda/envs/py35/share/psi4/basis/aug-cc-pvtz-ri.gbs 

	 --------------------------------------------------------
	                          DF-MP2                         
	      2nd-Order Density-Fitted Moller-Plesset Theory     
	              RMP2 Wavefunction,   8 Threads             
	                                                         
	        Rob Parrish, Justin Turney, Andy Simmonett,      
	           Ed Hohenstein, and C. David Sherrill          
	 --------------------------------------------------------

   => Auxiliary Basis Set <=

  Basis Set: (AUG-CC-PVTZ AUX)
    Blend: AUG-CC-PVTZ-RI
    Number of shells: 462
    Number of basis function: 1686
    Number of Cartesian functions: 2127
    Spherical Harmonics?: true
    Max angular momentum: 4

	 --------------------------------------------------------
	                 NBF =   759, NAUX =  1686
	 --------------------------------------------------------
	   CLASS    FOCC     OCC    AOCC    AVIR     VIR    FVIR
	   PAIRS       0      41      41     718     718       0
	 --------------------------------------------------------


         ------------------------------------------------------------
                                     CPHF                           
                                  Rob Parrish                       
         ------------------------------------------------------------

  ==> Geometry <==

    Molecular point group: c1
    Full point group: C1

    Geometry (in Angstrom), charge = 0, multiplicity = 1:

       Center              X                  Y                   Z               Mass       
    ------------   -----------------  -----------------  -----------------  -----------------
           C          0.107601624486     0.053881747172    -3.526042728723    12.000000000000
           C         -0.970398375514     0.626881747172    -2.853042728723    12.000000000000
           C          1.143601624486    -0.541118252828    -2.806042728723    12.000000000000
           C         -1.013398375514     0.605881747172    -1.459042728723    12.000000000000
           C          1.100601624486    -0.562118252828    -1.412042728723    12.000000000000
           C         -0.332398375514    -1.188118252828     1.378957271277    12.000000000000
           C          0.245601624486     1.145881747172     1.431957271277    12.000000000000
           C         -0.360398375514    -1.157118252828     2.763957271277    12.000000000000
           C          0.191601624486     1.072881747172     2.813957271277    12.000000000000
           C          0.022601624486     0.010881747172    -0.738042728723    12.000000000000
           C         -0.022398375514    -0.011118252828     0.707957271277    12.000000000000
           N         -0.106398375514    -0.053118252828     3.500957271277    14.003074004780
           H          0.139601624486     0.068881747172    -4.612042728723     1.007825032070
           H         -1.778398375514     1.087881747172    -3.414042728723     1.007825032070
           H          1.982601624486    -0.989118252828    -3.330042728723     1.007825032070
           H         -1.861398375514     1.056881747172    -0.948042728723     1.007825032070
           H          1.915601624486    -1.030118252828    -0.864042728723     1.007825032070
           H         -0.546398375514    -2.111118252828     0.848957271277     1.007825032070
           H          0.490601624486     2.082881747172     0.941957271277     1.007825032070
           H         -0.595398375514    -2.050118252828     3.333957271277     1.007825032070
           H          0.390601624486     1.946881747172     3.424957271277     1.007825032070

  Nuclear repulsion =  605.612736872420214
  Reference energy  = -476.395308557483190

  ==> Basis Set <==

  Basis Set: AUG-CC-PVTZ
    Blend: AUG-CC-PVTZ
    Number of shells: 249
    Number of basis function: 759
    Number of Cartesian functions: 885
    Spherical Harmonics?: true
    Max angular momentum: 3

  ==> CGRSolver (by Rob Parrish) <==

   Number of roots    =         1
   Preconditioning    =    JACOBI
   Convergence cutoff =     1E-06
   Maximum iterations =       100

  ==> CPHFRHamiltonian (by Rob Parrish) <== 

  ==> DFJK: Density-Fitted J/K Matrices <==

    J tasked:                  Yes
    K tasked:                  Yes
    wK tasked:                  No
    OpenMP threads:              8
    Integrals threads:           8
    Memory (MB):               375
    Algorithm:                Disk
    Integral Cache:           NONE
    Schwarz Cutoff:          1E-12
    Fitting Condition:       1E-12

   => Auxiliary Basis Set <=

  Basis Set: (AUG-CC-PVTZ AUX)
    Blend: AUG-CC-PVTZ-JKFIT
    Number of shells: 486
    Number of basis function: 1662
    Number of Cartesian functions: 2067
    Spherical Harmonics?: true
    Max angular momentum: 4

  ==> CPHF Iterations <==

  => Iterations <=

             Iter  Converged  Remaining    Residual
  CGR           1          0          1   8.163E-02
  CGR           2          0          1   3.015E-02
  CGR           3          0          1   2.054E-02
  CGR           4          0          1   8.868E-03
  CGR           5          0          1   2.440E-03
  CGR           6          0          1   8.205E-04
  CGR           7          0          1   3.207E-04
  CGR           8          0          1   8.746E-05
  CGR           9          0          1   3.745E-05
  CGR          10          0          1   1.112E-05
  CGR          11          0          1   4.535E-06
  CGR          12          0          1   2.280E-06
  CGR          13          1          0   7.378E-07

    CGRSolver converged.

  ==> DFCorrGrad: Density-Fitted Correlated Gradients <==

    OpenMP threads:              8
    Integrals threads:           8
    Memory (MB):               375
    Schwarz Cutoff:          0E+00
    Fitting Condition:       1E-12

   => Auxiliary Basis Set <=

  Basis Set: (AUG-CC-PVTZ AUX)
    Blend: AUG-CC-PVTZ-JKFIT
    Number of shells: 486
    Number of basis function: 1662
    Number of Cartesian functions: 2067
    Spherical Harmonics?: true
    Max angular momentum: 4

	-----------------------------------------------------------
	 ==================> DF-MP2 Energies <==================== 
	-----------------------------------------------------------
	 Reference Energy          =    -476.3953085574831903 [Eh]
	 Singles Energy            =      -0.0000000000000003 [Eh]
	 Same-Spin Energy          =      -0.5342626825166903 [Eh]
	 Opposite-Spin Energy      =      -1.6423570625408319 [Eh]
	 Correlation Energy        =      -2.1766197450575224 [Eh]
	 Total Energy              =    -478.5719283025406980 [Eh]
	-----------------------------------------------------------
	 ================> DF-SCS-MP2 Energies <================== 
	-----------------------------------------------------------
	 SCS Same-Spin Scale       =       0.3333333333333333 [-]
	 SCS Opposite-Spin Scale   =       1.2000000000000000 [-]
	 SCS Same-Spin Energy      =      -0.1780875608388968 [Eh]
	 SCS Opposite-Spin Energy  =      -1.9708284750489982 [Eh]
	 SCS Correlation Energy    =      -2.1489160358878956 [Eh]
	 SCS Total Energy          =    -478.5442245933710979 [Eh]
	-----------------------------------------------------------


  -Total Gradient:
     Atom            X                  Y                   Z
    ------   -----------------  -----------------  -----------------
       1       -0.000422127483     0.000413752765    -0.000060647863
       2       -0.001276369283     0.000726104562    -0.000639849942
       3        0.002191147088    -0.001034142679    -0.000400429795
       4        0.000248031260    -0.002056378201     0.007770988075
       5       -0.001300970387     0.002196490458     0.007998891306
       6       -0.002095679446    -0.002608992935    -0.006776655791
       7        0.002450408134     0.003599013051    -0.005822527637
       8       -0.001808045623    -0.007464836865    -0.011781870607
       9        0.002990745308     0.008225900125    -0.011916378144
      10        0.000214231294    -0.000598184997     0.013091810902
      11       -0.000118482575    -0.000449398220    -0.002652015121
      12       -0.000732319711    -0.000473805771     0.016982728462
      13        0.000089860196     0.000030564682    -0.005132571848
      14       -0.003517246278     0.002039397793    -0.002527945433
      15        0.003388426941    -0.002037255434    -0.002234977593
      16       -0.005498681049     0.003265311886     0.000098913065
      17        0.005436365070    -0.003252478432     0.000320045959
      18       -0.001002597796    -0.005249088465    -0.000194436573
      19        0.000970993214     0.005039276041    -0.000077321307
      20       -0.000347113416    -0.002110670815     0.001935147889
      21        0.000139424535     0.001799421446     0.002019101998


*** tstop() called on gpu-2-10.local at Sat Nov 11 10:12:22 2017
Module time:
	user time   =    6041.89 seconds =     100.70 minutes
	system time =      97.44 seconds =       1.62 minutes
	total time  =       1910 seconds =      31.83 minutes
Total time:
	user time   =    6041.90 seconds =     100.70 minutes
	system time =      97.44 seconds =       1.62 minutes
	total time  =       1910 seconds =      31.83 minutes

			-----------------------------------------
			 OPTKING 2.0: for geometry optimizations 
			  - R.A. King,  Bethel University        
			-----------------------------------------

	Internal coordinates to be generated automatically.
	Detected frag 1 with atoms:  1 2 3 4 5 6 7 8 9 10 11 12 13 14 15 16 17 18 19 20
	 21
	---Fragment 1 Bond Connectivity---
	 1 : 2 3 13
	 2 : 1 4 14
	 3 : 1 5 15
	 4 : 2 10 16
	 5 : 3 10 17
	 6 : 8 11 18
	 7 : 9 11 19
	 8 : 6 12 20
	 9 : 7 12 21
	 10 : 4 5 11
	 11 : 6 7 10
	 12 : 8 9
	 13 : 1
	 14 : 2
	 15 : 3
	 16 : 4
	 17 : 5
	 18 : 6
	 19 : 7
	 20 : 8
	 21 : 9

	Assuming in current code that numbering for constraints corresponds to unified fragment.
	Fixed dihedral atom list: 
	     4    10    11     6
	---Fragment 1 Geometry and Gradient---
	 C           0.2033376017        0.1018217457       -6.6632550901
	 C          -1.8337871695        1.1846348199       -5.3914694027
	 C           2.1610938754       -1.0225653034       -5.3026522745
	 C          -1.9150453932        1.1449505711       -2.7571911735
	 C           2.0798356517       -1.0622495521       -2.6683740452
	 C          -0.6281418967       -2.2452181113        2.6058515917
	 C           0.4641198081        2.1654026828        2.7060070767
	 C          -0.6810542285       -2.1866366012        5.2231222857
	 C           0.3620745969        2.0274526751        5.3176085924
	 C           0.0427108804        0.0205635220       -1.3946986317
	 C          -0.0423267955       -0.0210104529        1.3378453565
	 N          -0.2010637907       -0.1003789505        6.6158504456
	 H           0.2638088380        0.1301676377       -8.7154976705
	 H          -3.3606858849        2.0557985671       -6.4516057633
	 H           3.7465741009       -1.8691626109       -6.2928687681
	 H          -3.5175331539        1.9972170570       -1.7915411196
	 H           3.6199624500       -1.9466413823       -1.6328041244
	 H          -1.0325432892       -3.9894353320        1.6042967412
	 H           0.9271027106        3.9360760693        1.7800412716
	 H          -1.1251398697       -3.8741620379        6.3002661815
	 H           0.7381300973        3.6790733153        6.4722312595
	            -0.0004221275        0.0004137528       -0.0000606479
	            -0.0012763693        0.0007261046       -0.0006398499
	             0.0021911471       -0.0010341427       -0.0004004298
	             0.0002480313       -0.0020563782        0.0077709881
	            -0.0013009704        0.0021964905        0.0079988913
	            -0.0020956794       -0.0026089929       -0.0067766558
	             0.0024504081        0.0035990131       -0.0058225276
	            -0.0018080456       -0.0074648369       -0.0117818706
	             0.0029907453        0.0082259001       -0.0119163781
	             0.0002142313       -0.0005981850        0.0130918109
	            -0.0001184826       -0.0004493982       -0.0026520151
	            -0.0007323197       -0.0004738058        0.0169827285
	             0.0000898602        0.0000305647       -0.0051325718
	            -0.0035172463        0.0020393978       -0.0025279454
	             0.0033884269       -0.0020372554       -0.0022349776
	            -0.0054986810        0.0032653119        0.0000989131
	             0.0054363651       -0.0032524784        0.0003200460
	            -0.0010025978       -0.0052490885       -0.0001944366
	             0.0009709932        0.0050392760       -0.0000773213
	            -0.0003471134       -0.0021106708        0.0019351479
	             0.0001394245        0.0017994214        0.0020191020

	Previous optimization step data not found.  Starting new optimization.

	---Fragment 1 Intrafragment Coordinates---
	 - Coordinate -           - BOHR/RAD -       - ANG/DEG -
	 R(1,2)           =         2.634350	       1.394038
	 R(1,3)           =         2.635962	       1.394891
	 R(1,13)          =         2.053329	       1.086575
	 R(2,4)           =         2.635830	       1.394821
	 R(2,14)          =         2.052860	       1.086327
	 R(3,5)           =         2.635830	       1.394821
	 R(3,15)          =         2.052073	       1.085910
	 R(4,10)          =         2.636938	       1.395407
	 R(4,16)          =         2.055920	       1.087946
	 R(5,10)          =         2.635263	       1.394521
	 R(5,17)          =         2.055856	       1.087912
	 R(6,8)           =         2.618461	       1.385630
	 R(6,11)          =         2.626427	       1.389845
	 R(6,18)          =         2.051572	       1.085645
	 R(7,9)           =         2.617232	       1.384980
	 R(7,11)          =         2.628451	       1.390917
	 R(7,19)          =         2.051109	       1.085400
	 R(8,12)          =         2.553929	       1.351481
	 R(8,20)          =         2.050657	       1.085161
	 R(9,12)          =         2.555430	       1.352275
	 R(9,21)          =         2.049981	       1.084803
	 R(10,11)         =         2.734183	       1.446867
	 B(1,2,4)         =         2.094553	     120.009056
	 B(1,2,14)        =         2.094726	     120.018942
	 B(1,3,5)         =         2.093692	     119.959722
	 B(1,3,15)        =         2.095250	     120.048965
	 B(2,1,3)         =         2.094940	     120.031219
	 B(2,1,13)        =         2.093950	     119.974480
	 B(2,4,10)        =         2.094306	     119.994870
	 B(2,4,16)        =         2.079681	     119.156970
	 B(3,1,13)        =         2.094293	     119.994160
	 B(3,5,10)        =         2.095181	     120.045019
	 B(3,5,17)        =         2.079222	     119.130634
	 B(4,2,14)        =         2.093904	     119.971849
	 B(4,10,5)        =         2.093699	     119.960108
	 B(4,10,11)       =         2.094138	     119.985297
	 B(5,3,15)        =         2.094242	     119.991253
	 B(5,10,11)       =         2.095348	     120.054595
	 B(6,8,12)        =         2.164648	     124.025212
	 B(6,8,20)        =         2.107137	     120.730084
	 B(6,11,7)        =         2.089912	     119.743160
	 B(6,11,10)       =         2.097067	     120.153075
	 B(7,9,12)        =         2.164483	     124.015722
	 B(7,9,21)        =         2.108780	     120.824207
	 B(7,11,10)       =         2.096206	     120.103745
	 B(8,6,11)        =         2.057969	     117.912913
	 B(8,6,18)        =         2.097868	     120.198989
	 B(8,12,9)        =         2.031486	     116.395555
	 B(9,7,11)        =         2.057872	     117.907372
	 B(9,7,19)        =         2.099921	     120.316601
	 B(10,4,16)       =         2.109198	     120.848149
	 B(10,5,17)       =         2.108782	     120.824331
	 B(11,6,18)       =         2.127347	     121.888001
	 B(11,7,19)       =         2.125393	     121.776027
	 B(12,8,20)       =         2.011399	     115.244698
	 B(12,9,21)       =         2.009919	     115.159900
	 D(1,2,4,10)      =        -0.000325	      -0.018609
	 D(1,2,4,16)      =        -3.141283	    -179.982244
	 D(1,3,5,10)      =         0.000325	       0.018608
	 D(1,3,5,17)      =         3.141117	     179.972749
	 D(2,1,3,5)       =        -0.000348	      -0.019945
	 D(2,1,3,15)      =         3.139689	     179.890913
	 D(2,4,10,5)      =         0.000301	       0.017261
	 D(2,4,10,11)     =        -3.141289	    -179.982587
	 D(3,1,2,4)       =         0.000348	       0.019955
	 D(3,1,2,14)      =        -3.138767	    -179.838124
	 D(3,5,10,4)      =        -0.000301	      -0.017270
	 D(3,5,10,11)     =         3.141289	     179.982578
	 D(4,2,1,13)      =         3.139559	     179.883471
	 D(4,10,5,17)     =        -3.141080	    -179.970623
	 D(4,10,11,6)     =         1.832689	     105.005370
	 D(4,10,11,7)     =        -1.309798	     -75.045892
	 D(5,3,1,13)      =        -3.139558	    -179.883434
	 D(5,10,4,16)     =         3.141248	     179.980271
	 D(5,10,11,6)     =        -1.308901	     -74.994477
	 D(5,10,11,7)     =         1.831797	     104.954260
	 D(6,8,12,9)      =        -0.001515	      -0.086794
	 D(6,11,7,9)      =         0.000644	       0.036877
	 D(6,11,7,19)     =        -3.140945	    -179.962913
	 D(7,9,12,8)      =         0.001283	       0.073528
	 D(7,11,6,8)      =        -0.000851	      -0.048758
	 D(7,11,6,18)     =        -3.140476	    -179.936032
	 D(8,6,11,10)     =         3.139850	     179.900165
	 D(8,12,9,21)     =         3.140271	     179.924253
	 D(9,7,11,10)     =        -3.140058	    -179.912071
	 D(9,12,8,20)     =         3.139599	     179.885784
	 D(10,4,2,14)     =         3.138792	     179.839537
	 D(10,5,3,15)     =        -3.139713	    -179.892302
	 D(10,11,6,18)    =         0.000225	       0.012891
	 D(10,11,7,19)    =         0.001538	       0.088139
	 D(11,6,8,12)     =         0.001337	       0.076620
	 D(11,6,8,20)     =        -3.139752	    -179.894525
	 D(11,7,9,12)     =        -0.000889	      -0.050949
	 D(11,7,9,21)     =        -3.139736	    -179.893611
	 D(11,10,4,16)    =        -0.000342	      -0.019577
	 D(11,10,5,17)    =         0.000510	       0.029225
	 D(12,8,6,18)     =         3.140997	     179.965877
	 D(12,9,7,19)     =         3.140700	     179.948845
	 D(13,1,2,14)     =         0.000443	       0.025392
	 D(13,1,3,15)     =         0.000479	       0.027424
	 D(14,2,4,16)     =        -0.002166	      -0.124098
	 D(15,3,5,17)     =         0.001079	       0.061840
	 D(18,6,8,20)     =        -0.000092	      -0.005269
	 D(19,7,9,21)     =         0.001853	       0.106182

	Current energy   :      -478.5719283025

	Generating empirical Hessian (Schlegel '84) for each fragment.
	Adding user-defined constraint: Fragment 1; Coordinate 71:
		Value =     1.832689; Fixed value    =     1.832596
		Force =    -0.000047; Force constant =     0.500000
	Removing off-diagonal coupling between coordinate 71 and others.
	Taking RFO optimization step.
	Going to follow RFO solution 1.
	Using RFO vector 1.

	Determining step-restricting scale parameter for RS-RFO.
	Maximum step size allowed    0.10000

	 Iter      |step|        alpha        rfo_root  
	------------------------------------------------
	    0     0.14004       1.00000           1
	    1     0.11877       4.60444           1
	    2     0.10639      10.27566           1
	    3     0.10090      14.42609           1
	    4     0.10002      15.21158           1
	    5     0.10000      15.22969           1
	------------------------------------------------
	Norm of target step-size    0.10000
	Projected energy change by RFO approximation:        -0.0035897882

	Back-transformation to cartesian coordinates...
	Could not converge backtransformation.
	Using first guess instead.

	--- Internal Coordinate Step in ANG or DEG, aJ/ANG or AJ/DEG ---
	 ---------------------------------------------------------------------------
	   Coordinate                Previous        Force       Change         New 
	   ----------                --------       ------       ------       ------
	    1 R(1,2)          =      1.394038    -0.048420    -0.006040     1.387998
	    2 R(1,3)          =      1.394891    -0.053968    -0.006751     1.388141
	    3 R(1,13)         =      1.086575    -0.042289    -0.006666     1.079909
	    4 R(2,4)          =      1.394821    -0.045368    -0.005597     1.389224
	    5 R(2,14)         =      1.086327    -0.039439    -0.006209     1.080117
	    6 R(3,5)          =      1.394821    -0.045307    -0.005593     1.389228
	    7 R(3,15)         =      1.085910    -0.037378    -0.005878     1.080033
	    8 R(4,10)         =      1.395407    -0.027120    -0.003238     1.392169
	    9 R(4,16)         =      1.087946    -0.046846    -0.007338     1.080608
	   10 R(5,10)         =      1.394521    -0.021853    -0.002547     1.391974
	   11 R(5,17)         =      1.087912    -0.046408    -0.007290     1.080622
	   12 R(6,8)          =      1.385630     0.009643     0.001151     1.386781
	   13 R(6,11)         =      1.389845    -0.015311    -0.001241     1.388605
	   14 R(6,18)         =      1.085645    -0.039177    -0.006146     1.079499
	   15 R(7,9)          =      1.384980     0.012018     0.001415     1.386395
	   16 R(7,11)         =      1.390917    -0.020472    -0.001815     1.389102
	   17 R(7,19)         =      1.085400    -0.037934    -0.005956     1.079444
	   18 R(8,12)         =      1.351481    -0.118785    -0.013018     1.338463
	   19 R(8,20)         =      1.085161    -0.023304    -0.003649     1.081512
	   20 R(9,12)         =      1.352275    -0.121571    -0.013363     1.338913
	   21 R(9,21)         =      1.084803    -0.021524    -0.003367     1.081436
	   22 R(10,11)        =      1.446867     0.150701     0.021906     1.468774
	   23 B(1,2,4)        =    120.009056     0.000030     0.050788   120.059844
	   24 B(1,2,14)       =    120.018942    -0.000010    -0.006969   120.011973
	   25 B(1,3,5)        =    119.959722     0.000039     0.073846   120.033567
	   26 B(1,3,15)       =    120.048965    -0.000016    -0.024249   120.024716
	   27 B(2,1,3)        =    120.031219    -0.000047    -0.181107   119.850112
	   28 B(2,1,13)       =    119.974480     0.000026     0.100080   120.074560
	   29 B(2,4,10)       =    119.994870     0.000157     0.433459   120.428329
	   30 B(2,4,16)       =    119.156970     0.000150     0.587143   119.744113
	   31 B(3,1,13)       =    119.994160     0.000021     0.081054   120.075215
	   32 B(3,5,10)       =    120.045019     0.000148     0.410679   120.455698
	   33 B(3,5,17)       =    119.130634     0.000153     0.594412   119.725046
	   34 B(4,2,14)       =    119.971849    -0.000020    -0.043838   119.928011
	   35 B(4,10,5)       =    119.960108    -0.000327    -0.787827   119.172281
	   36 B(4,10,11)      =    119.985297     0.000171     0.410278   120.395575
	   37 B(5,3,15)       =    119.991253    -0.000023    -0.049549   119.941704
	   38 B(5,10,11)      =    120.054595     0.000157     0.376907   120.431502
	   39 B(6,8,12)       =    124.025212    -0.000011    -0.134109   123.891103
	   40 B(6,8,20)       =    120.730084    -0.000035    -0.076030   120.654054
	   41 B(6,11,7)       =    119.743160    -0.000870    -2.003501   117.739659
	   42 B(6,11,10)      =    120.153075     0.000433     0.996581   121.149656
	   43 B(7,9,12)       =    124.015722    -0.000009    -0.135002   123.880721
	   44 B(7,9,21)       =    120.824207    -0.000048    -0.116354   120.707853
	   45 B(7,11,10)      =    120.103745     0.000437     1.006438   121.110183
	   46 B(8,6,11)       =    117.912913     0.000380     1.111294   119.024207
	   47 B(8,6,18)       =    120.198989    -0.000000     0.109790   120.308780
	   48 B(8,12,9)       =    116.395555     0.000125     0.039591   116.435146
	   49 B(9,7,11)       =    117.907372     0.000385     1.121591   119.028963
	   50 B(9,7,19)       =    120.316601    -0.000017     0.054820   120.371420
	   51 B(10,4,16)      =    120.848149    -0.000307    -1.020698   119.827452
	   52 B(10,5,17)      =    120.824331    -0.000302    -1.005162   119.819169
	   53 B(11,6,18)      =    121.888001    -0.000379    -1.220991   120.667010
	   54 B(11,7,19)      =    121.776027    -0.000368    -1.176523   120.599504
	   55 B(12,8,20)      =    115.244698     0.000046     0.210040   115.454738
	   56 B(12,9,21)      =    115.159900     0.000057     0.251525   115.411426
	   57 D(1,2,4,10)     =     -0.018609    -0.000000     0.009661    -0.008948
	   58 D(1,2,4,16)     =   -179.982244     0.000002     0.092237  -179.890007
	   59 D(1,3,5,10)     =      0.018608    -0.000002    -0.118455    -0.099847
	   60 D(1,3,5,17)     =    179.972749     0.000001     0.035272   180.008021
	   61 D(2,1,3,5)      =     -0.019945     0.000001     0.008879    -0.011066
	   62 D(2,1,3,15)     =    179.890913     0.000002     0.057411   179.948324
	   63 D(2,4,10,5)     =      0.017261    -0.000001    -0.117583    -0.100321
	   64 D(2,4,10,11)    =   -179.982587     0.000002     0.172543  -179.810044
	   65 D(3,1,2,4)      =      0.019955     0.000001     0.045194     0.065148
	   66 D(3,1,2,14)     =   -179.838124     0.000001     0.054005  -179.784119
	   67 D(3,5,10,4)     =     -0.017270     0.000002     0.171949     0.154679
	   68 D(3,5,10,11)    =    179.982578    -0.000001    -0.118284   179.864294
	   69 D(4,2,1,13)     =    179.883471     0.000001     0.059118   179.942589
	   70 D(4,10,5,17)    =   -179.970623    -0.000001     0.017332  -179.953291
	   71 D(4,10,11,6)    =    105.005370     0.000011     0.146483   105.151854
	   72 D(4,10,11,7)    =    -75.045892     0.000015     0.461088   -74.584804
	   73 D(5,3,1,13)     =   -179.883434    -0.000000    -0.005072  -179.888505
	   74 D(5,10,4,16)    =    179.980271    -0.000003    -0.199633   179.780638
	   75 D(5,10,11,6)    =    -74.994477     0.000014     0.440286   -74.554191
	   76 D(5,10,11,7)    =    104.954260     0.000018     0.754891   105.709151
	   77 D(6,8,12,9)     =     -0.086794     0.000001     0.062142    -0.024652
	   78 D(6,11,7,9)     =      0.036877     0.000001     0.111267     0.148144
	   79 D(6,11,7,19)    =   -179.962913    -0.000002    -0.010528  -179.973441
	   80 D(7,9,12,8)     =      0.073528    -0.000001    -0.069420     0.004109
	   81 D(7,11,6,8)     =     -0.048758    -0.000001    -0.118045    -0.166802
	   82 D(7,11,6,18)    =   -179.936032    -0.000004    -0.252617  -180.188649
	   83 D(8,6,11,10)    =    179.900165     0.000002     0.187777   180.087942
	   84 D(8,12,9,21)    =    179.924253     0.000003     0.087825   180.012078
	   85 D(9,7,11,10)    =   -179.912071    -0.000003    -0.194423  -180.106494
	   86 D(9,12,8,20)    =    179.885784     0.000004     0.207181   180.092966
	   87 D(10,4,2,14)    =    179.839537    -0.000000     0.000910   179.840447
	   88 D(10,5,3,15)    =   -179.892302    -0.000003    -0.166969  -180.059271
	   89 D(10,11,6,18)   =      0.012891    -0.000001     0.053204     0.066095
	   90 D(10,11,7,19)   =      0.088139    -0.000005    -0.316219    -0.228080
	   91 D(11,6,8,12)    =      0.076620     0.000000     0.032633     0.109253
	   92 D(11,6,8,20)    =   -179.894525    -0.000003    -0.119672  -180.014198
	   93 D(11,7,9,12)    =     -0.050949     0.000000    -0.017890    -0.068838
	   94 D(11,7,9,21)    =   -179.893611    -0.000004    -0.183599  -180.077210
	   95 D(11,10,4,16)   =     -0.019577    -0.000000     0.090493     0.070916
	   96 D(11,10,5,17)   =      0.029225    -0.000004    -0.272900    -0.243675
	   97 D(12,8,6,18)    =    179.965877     0.000003     0.165143   180.131019
	   98 D(12,9,7,19)    =    179.948845     0.000003     0.103618   180.052463
	   99 D(13,1,2,14)    =      0.025392     0.000001     0.067929     0.093321
	  100 D(13,1,3,15)    =      0.027424     0.000001     0.043461     0.070885
	  101 D(14,2,4,16)    =     -0.124098     0.000002     0.083486    -0.040612
	  102 D(15,3,5,17)    =      0.061840    -0.000000    -0.013243     0.048597
	  103 D(18,6,8,20)    =     -0.005269     0.000000     0.012838     0.007569
	  104 D(19,7,9,21)    =      0.106182    -0.000001    -0.062092     0.044090
	 ---------------------------------------------------------------------------
	Successfully symmetrized geometry.
	 Forces used to impose fixed constraints are not included.
	  Forces zeroed: 71 

  ==> Convergence Check <==

  Measures of convergence in internal coordinates in au.
  Criteria marked as inactive (o), active & met (*), and active & unmet ( ).
  --------------------------------------------------------------------------------------------- ~
   Step     Total Energy     Delta E     MAX Force     RMS Force      MAX Disp      RMS Disp    ~
  --------------------------------------------------------------------------------------------- ~
    Convergence Criteria    1.00e-06 *    3.00e-04 *             o    1.20e-03 *             o  ~
  --------------------------------------------------------------------------------------------- ~
      1    -478.57192830   -4.79e+02      1.83e-02      3.80e-03 o    4.14e-02      9.81e-03 o  ~
  ---------------------------------------------------------------------------------------------

	Writing optimization data to binary file.
	Structure for next step:
	Cartesian Geometry (in Angstrom)
	    C     0.1068847213   0.0525655212  -3.5443404647
	    C    -0.9627322071   0.6264987287  -2.8712433806
	    C     1.1358634522  -0.5420086710  -2.8269714075
	    C    -1.0024358603   0.6069635096  -1.4827245243
	    C     1.0944124197  -0.5618695510  -1.4385040630
	    C    -0.3238529255  -1.1757578499   1.4020966326
	    C     0.2380858318   1.1339513744   1.4562982536
	    C    -0.3556097299  -1.1479471780   2.7882351780
	    C     0.1819008922   1.0629840431   2.8397350456
	    C     0.0262824760   0.0136123474  -0.7562209658
	    C    -0.0184643947  -0.0103052970   0.7116759913
	    N    -0.1094326044  -0.0536782072   3.5186148761
	    H     0.1375362707   0.0667979393  -4.6237203874
	    H    -1.7665038636   1.0867616977  -3.4269077227
	    H     1.9690999222  -0.9901779606  -3.3478664516
	    H    -1.8384914649   1.0537318413  -0.9639539441
	    H     1.8981851144  -1.0259494460  -0.8850393726
	    H    -0.5342756320  -2.0914918698   0.8706161148
	    H     0.4797777738   2.0652531300   0.9669501563
	    H    -0.5906404175  -2.0402045987   3.3524201098
	    H     0.3780443397   1.9367871869   3.4459530230
			--------------------------
			 OPTKING Finished Execution 
			--------------------------

    Structure for next step:
    Molecular point group: c1
    Full point group: C1

    Geometry (in Angstrom), charge = 0, multiplicity = 1:

    C            0.106591996094     0.052471546139    -3.544083980285
    C           -0.963024932362     0.626404753599    -2.870986896154
    C            1.135570726993    -0.542102646127    -2.826714923040
    C           -1.002728585505     0.606869534564    -1.482468039852
    C            1.094119694433    -0.561963526107    -1.438247578508
    C           -0.324145650718    -1.175851824981     1.402353117042
    C            0.237793106565     1.133857399357     1.456554738082
    C           -0.355902455149    -1.148041153088     2.788491662487
    C            0.181608166994     1.062890068047     2.839991530026
    C            0.025989750746     0.013518372349    -0.755964481297
    C           -0.018757119945    -0.010399272088     0.711932475775
    N           -0.109725329605    -0.053772182267     3.518871360529
    H            0.137243545475     0.066703964194    -4.623463902947
    H           -1.766796588801     1.086667722600    -3.426651238204
    H            1.968807196975    -0.990271935683    -3.347609967166
    H           -1.838784190157     1.053637866239    -0.963697459619
    H            1.897892389206    -1.026043421097    -0.884782888180
    H           -0.534568357276    -2.091585844837     0.870872599272
    H            0.479485048526     2.065159154931     0.967206640771
    H           -0.590933142728    -2.040298573747     3.352676594262
    H            0.377751614443     1.936693211863     3.446209507427

gradient() will perform analytic gradient computation.

*** tstart() called on gpu-2-10.local
*** at Sat Nov 11 10:12:24 2017

    SCF Algorithm Type (re)set to DF.

*** tstart() called on gpu-2-10.local
*** at Sat Nov 11 10:12:24 2017

   => Loading Basis Set <=

    Name: AUG-CC-PVTZ
    Role: ORBITAL
    Keyword: BASIS
    atoms 1-11  entry C          line   221 file /cbio/jclab/home/chayas/anaconda/envs/py35/share/psi4/basis/aug-cc-pvtz.gbs 
    atoms 12    entry N          line   267 file /cbio/jclab/home/chayas/anaconda/envs/py35/share/psi4/basis/aug-cc-pvtz.gbs 
    atoms 13-21 entry H          line    34 file /cbio/jclab/home/chayas/anaconda/envs/py35/share/psi4/basis/aug-cc-pvtz.gbs 


         ---------------------------------------------------------
                                   SCF
            by Justin Turney, Rob Parrish, and Andy Simmonett
                              RHF Reference
                        8 Threads,    500 MiB Core
         ---------------------------------------------------------

  ==> Geometry <==

    Molecular point group: c1
    Full point group: C1

    Geometry (in Angstrom), charge = 0, multiplicity = 1:

       Center              X                  Y                   Z               Mass       
    ------------   -----------------  -----------------  -----------------  -----------------
           C          0.106591996094     0.052471546139    -3.544083980285    12.000000000000
           C         -0.963024932362     0.626404753599    -2.870986896154    12.000000000000
           C          1.135570726993    -0.542102646127    -2.826714923040    12.000000000000
           C         -1.002728585505     0.606869534564    -1.482468039852    12.000000000000
           C          1.094119694433    -0.561963526107    -1.438247578508    12.000000000000
           C         -0.324145650718    -1.175851824981     1.402353117042    12.000000000000
           C          0.237793106565     1.133857399357     1.456554738082    12.000000000000
           C         -0.355902455149    -1.148041153088     2.788491662487    12.000000000000
           C          0.181608166994     1.062890068047     2.839991530026    12.000000000000
           C          0.025989750746     0.013518372349    -0.755964481297    12.000000000000
           C         -0.018757119945    -0.010399272088     0.711932475775    12.000000000000
           N         -0.109725329605    -0.053772182267     3.518871360529    14.003074004780
           H          0.137243545475     0.066703964194    -4.623463902947     1.007825032070
           H         -1.766796588801     1.086667722600    -3.426651238204     1.007825032070
           H          1.968807196975    -0.990271935683    -3.347609967166     1.007825032070
           H         -1.838784190157     1.053637866239    -0.963697459619     1.007825032070
           H          1.897892389206    -1.026043421097    -0.884782888180     1.007825032070
           H         -0.534568357276    -2.091585844837     0.870872599272     1.007825032070
           H          0.479485048526     2.065159154931     0.967206640771     1.007825032070
           H         -0.590933142728    -2.040298573747     3.352676594262     1.007825032070
           H          0.377751614443     1.936693211863     3.446209507427     1.007825032070

  Running in c1 symmetry.

  Rotational constants: A =      0.09897  B =      0.01762  C =      0.01682 [cm^-1]
  Rotational constants: A =   2967.18582  B =    528.09815  C =    504.12726 [MHz]
  Nuclear repulsion =  605.395744576813286

  Charge       = 0
  Multiplicity = 1
  Electrons    = 82
  Nalpha       = 41
  Nbeta        = 41

  ==> Algorithm <==

  SCF Algorithm Type is DF.
  DIIS enabled.
  MOM disabled.
  Fractional occupation disabled.
  Guess Type is READ.
  Energy threshold   = 1.00e-10
  Density threshold  = 1.00e-10
  Integral threshold = 0.00e+00

  ==> Primary Basis <==

  Basis Set: AUG-CC-PVTZ
    Blend: AUG-CC-PVTZ
    Number of shells: 249
    Number of basis function: 759
    Number of Cartesian functions: 885
    Spherical Harmonics?: true
    Max angular momentum: 3

   => Loading Basis Set <=

    Name: (AUG-CC-PVTZ AUX)
    Role: JKFIT
    Keyword: DF_BASIS_SCF
    atoms 1-11  entry C          line   161 file /cbio/jclab/home/chayas/anaconda/envs/py35/share/psi4/basis/aug-cc-pvtz-jkfit.gbs 
    atoms 12    entry N          line   223 file /cbio/jclab/home/chayas/anaconda/envs/py35/share/psi4/basis/aug-cc-pvtz-jkfit.gbs 
    atoms 13-21 entry H          line    69 file /cbio/jclab/home/chayas/anaconda/envs/py35/share/psi4/basis/aug-cc-pvtz-jkfit.gbs 

  Reading orbitals from file 180, no projection.

  ==> Pre-Iterations <==

   -------------------------------------------------------
    Irrep   Nso     Nmo     Nalpha   Nbeta   Ndocc  Nsocc
   -------------------------------------------------------
     A        759     759       0       0       0       0
   -------------------------------------------------------
    Total     759     759      41      41      41       0
   -------------------------------------------------------

  ==> Integral Setup <==

  ==> DFJK: Density-Fitted J/K Matrices <==

    J tasked:                  Yes
    K tasked:                  Yes
    wK tasked:                  No
    OpenMP threads:              8
    Integrals threads:           8
    Memory (MB):               375
    Algorithm:                Disk
    Integral Cache:           NONE
    Schwarz Cutoff:          1E-12
    Fitting Condition:       1E-12

   => Auxiliary Basis Set <=

  Basis Set: (AUG-CC-PVTZ AUX)
    Blend: AUG-CC-PVTZ-JKFIT
    Number of shells: 486
    Number of basis function: 1662
    Number of Cartesian functions: 2067
    Spherical Harmonics?: true
    Max angular momentum: 4

  Minimum eigenvalue in the overlap matrix is 4.5409460020E-07.
  Using Symmetric Orthogonalization.

  SCF Guess: Orbitals guess was supplied from a previous computation.

  ==> Iterations <==

                           Total Energy        Delta E     RMS |[F,P]|

   @DF-RHF iter   0:  -476.53667102952130   -4.76537e+02   4.54714e-04 
   @DF-RHF iter   1:  -476.39838080498652    1.38290e-01   1.86965e-04 
   @DF-RHF iter   2:  -476.39927896029246   -8.98155e-04   9.75069e-05 DIIS
   @DF-RHF iter   3:  -476.40001159629463   -7.32636e-04   1.83576e-05 DIIS
   @DF-RHF iter   4:  -476.40002406408331   -1.24678e-05   3.71537e-06 DIIS
   @DF-RHF iter   5:  -476.40002611459403   -2.05051e-06   1.35076e-06 DIIS
   @DF-RHF iter   6:  -476.40002655122430   -4.36630e-07   1.13577e-06 DIIS
   @DF-RHF iter   7:  -476.40002675323171   -2.02007e-07   3.37889e-07 DIIS
   @DF-RHF iter   8:  -476.40002680577589   -5.25442e-08   1.48953e-07 DIIS
   @DF-RHF iter   9:  -476.40002680967854   -3.90264e-09   3.48390e-08 DIIS
   @DF-RHF iter  10:  -476.40002680998606   -3.07523e-10   1.55845e-08 DIIS
   @DF-RHF iter  11:  -476.40002681002960   -4.35421e-11   2.67207e-09 DIIS
   @DF-RHF iter  12:  -476.40002681003784   -8.24230e-12   1.20596e-09 DIIS
   @DF-RHF iter  13:  -476.40002681005046   -1.26192e-11   4.92926e-10 DIIS
   @DF-RHF iter  14:  -476.40002681003091    1.95541e-11   2.07272e-10 DIIS
   @DF-RHF iter  15:  -476.40002681002966    1.25056e-12   7.71720e-11 DIIS

  ==> Post-Iterations <==

    Orbital Energies (a.u.)
    -----------------------

    Doubly Occupied:                                                      

       1A    -15.563904     2A    -11.273247     3A    -11.273219  
       4A    -11.264428     5A    -11.251854     6A    -11.243155  
       7A    -11.243061     8A    -11.241975     9A    -11.241785  
      10A    -11.240135    11A    -11.237891    12A    -11.237851  
      13A     -1.258083    14A     -1.174053    15A     -1.107727  
      16A     -1.034958    17A     -1.025852    18A     -1.018854  
      19A     -0.879523    20A     -0.860200    21A     -0.837329  
      22A     -0.807559    23A     -0.731005    24A     -0.688338  
      25A     -0.669631    26A     -0.654902    27A     -0.638318  
      28A     -0.634040    29A     -0.597888    30A     -0.596518  
      31A     -0.582162    32A     -0.541352    33A     -0.527038  
      34A     -0.507212    35A     -0.507029    36A     -0.503099  
      37A     -0.419075    38A     -0.382757    39A     -0.352400  
      40A     -0.343777    41A     -0.341047  

    Virtual:                                                              

      42A      0.025173    43A      0.032100    44A      0.032620  
      45A      0.035911    46A      0.043273    47A      0.048259  
      48A      0.050575    49A      0.052690    50A      0.060312  
      51A      0.084693    52A      0.086868    53A      0.092711  
      54A      0.092804    55A      0.094632    56A      0.098239  
      57A      0.101343    58A      0.103927    59A      0.108373  
      60A      0.111924    61A      0.114113    62A      0.115692  
      63A      0.118560    64A      0.122808    65A      0.126392  
      66A      0.127377    67A      0.128194    68A      0.131170  
      69A      0.138550    70A      0.140506    71A      0.141815  
      72A      0.144222    73A      0.144275    74A      0.148839  
      75A      0.156365    76A      0.157425    77A      0.159455  
      78A      0.171122    79A      0.174025    80A      0.175834  
      81A      0.190212    82A      0.192405    83A      0.196399  
      84A      0.203462    85A      0.212002    86A      0.227715  
      87A      0.228572    88A      0.234390    89A      0.238254  
      90A      0.244286    91A      0.244777    92A      0.246852  
      93A      0.253158    94A      0.256381    95A      0.261710  
      96A      0.264395    97A      0.264740    98A      0.270511  
      99A      0.272350   100A      0.276487   101A      0.278452  
     102A      0.291781   103A      0.293727   104A      0.297478  
     105A      0.304915   106A      0.307437   107A      0.309001  
     108A      0.314050   109A      0.314838   110A      0.319211  
     111A      0.321335   112A      0.327504   113A      0.328554  
     114A      0.330267   115A      0.342402   116A      0.345295  
     117A      0.352534   118A      0.354786   119A      0.358824  
     120A      0.360797   121A      0.361176   122A      0.375842  
     123A      0.382176   124A      0.392702   125A      0.399275  
     126A      0.400324   127A      0.403419   128A      0.413355  
     129A      0.416255   130A      0.419083   131A      0.420862  
     132A      0.427350   133A      0.435491   134A      0.439010  
     135A      0.442035   136A      0.447344   137A      0.450001  
     138A      0.450688   139A      0.456099   140A      0.462987  
     141A      0.463692   142A      0.469926   143A      0.476386  
     144A      0.477590   145A      0.479454   146A      0.484436  
     147A      0.484984   148A      0.488493   149A      0.491409  
     150A      0.492848   151A      0.495734   152A      0.500508  
     153A      0.506049   154A      0.509933   155A      0.512726  
     156A      0.518577   157A      0.522083   158A      0.524193  
     159A      0.526300   160A      0.530716   161A      0.539754  
     162A      0.540349   163A      0.541506   164A      0.543747  
     165A      0.549242   166A      0.553094   167A      0.560699  
     168A      0.562009   169A      0.568703   170A      0.570768  
     171A      0.580122   172A      0.587574   173A      0.593498  
     174A      0.601106   175A      0.605224   176A      0.611420  
     177A      0.614060   178A      0.624162   179A      0.632375  
     180A      0.634320   181A      0.638062   182A      0.639538  
     183A      0.660731   184A      0.662009   185A      0.662886  
     186A      0.671675   187A      0.672855   188A      0.677415  
     189A      0.688108   190A      0.690628   191A      0.695273  
     192A      0.700218   193A      0.708141   194A      0.717731  
     195A      0.722310   196A      0.725515   197A      0.732110  
     198A      0.738668   199A      0.746996   200A      0.750144  
     201A      0.758869   202A      0.759083   203A      0.768924  
     204A      0.777775   205A      0.779009   206A      0.782978  
     207A      0.789362   208A      0.791025   209A      0.795671  
     210A      0.809115   211A      0.809787   212A      0.816143  
     213A      0.827455   214A      0.844302   215A      0.852659  
     216A      0.864370   217A      0.864971   218A      0.866532  
     219A      0.873629   220A      0.878710   221A      0.884999  
     222A      0.886814   223A      0.886996   224A      0.892493  
     225A      0.901295   226A      0.903920   227A      0.904034  
     228A      0.911685   229A      0.917033   230A      0.919260  
     231A      0.919497   232A      0.923277   233A      0.928732  
     234A      0.929595   235A      0.939693   236A      0.949025  
     237A      0.949196   238A      0.951482   239A      0.957173  
     240A      0.967379   241A      0.974786   242A      0.978856  
     243A      0.980964   244A      0.986628   245A      0.987321  
     246A      0.991555   247A      0.996499   248A      1.003789  
     249A      1.007753   250A      1.009399   251A      1.021914  
     252A      1.023226   253A      1.024760   254A      1.032516  
     255A      1.043778   256A      1.044247   257A      1.053658  
     258A      1.056894   259A      1.058087   260A      1.060463  
     261A      1.070008   262A      1.084441   263A      1.086325  
     264A      1.087502   265A      1.087937   266A      1.088351  
     267A      1.101656   268A      1.103765   269A      1.112308  
     270A      1.113047   271A      1.117022   272A      1.123812  
     273A      1.127172   274A      1.133989   275A      1.136685  
     276A      1.144468   277A      1.158488   278A      1.161390  
     279A      1.163874   280A      1.176710   281A      1.176931  
     282A      1.179459   283A      1.181657   284A      1.184651  
     285A      1.191466   286A      1.195824   287A      1.199561  
     288A      1.204257   289A      1.206530   290A      1.213433  
     291A      1.217614   292A      1.223540   293A      1.229732  
     294A      1.237725   295A      1.242552   296A      1.246282  
     297A      1.256253   298A      1.257826   299A      1.261508  
     300A      1.273513   301A      1.277736   302A      1.282813  
     303A      1.287157   304A      1.287858   305A      1.302679  
     306A      1.312145   307A      1.312607   308A      1.320978  
     309A      1.322805   310A      1.336054   311A      1.336242  
     312A      1.343775   313A      1.347302   314A      1.382619  
     315A      1.383350   316A      1.383709   317A      1.386088  
     318A      1.398189   319A      1.403900   320A      1.421166  
     321A      1.423785   322A      1.432579   323A      1.432848  
     324A      1.436241   325A      1.444644   326A      1.450824  
     327A      1.456663   328A      1.466382   329A      1.478296  
     330A      1.489214   331A      1.501781   332A      1.504702  
     333A      1.519876   334A      1.526939   335A      1.543070  
     336A      1.550479   337A      1.560474   338A      1.561485  
     339A      1.569781   340A      1.570430   341A      1.570875  
     342A      1.579679   343A      1.584768   344A      1.601596  
     345A      1.613370   346A      1.618692   347A      1.624175  
     348A      1.631696   349A      1.638027   350A      1.660190  
     351A      1.667889   352A      1.677176   353A      1.685716  
     354A      1.703304   355A      1.705498   356A      1.709286  
     357A      1.713879   358A      1.725242   359A      1.725808  
     360A      1.734334   361A      1.735963   362A      1.747210  
     363A      1.753609   364A      1.755365   365A      1.759777  
     366A      1.773891   367A      1.777995   368A      1.787170  
     369A      1.796259   370A      1.806338   371A      1.821901  
     372A      1.829323   373A      1.834705   374A      1.841273  
     375A      1.846703   376A      1.851238   377A      1.862761  
     378A      1.883141   379A      1.887544   380A      1.893378  
     381A      1.910680   382A      1.913638   383A      1.924900  
     384A      1.926396   385A      1.930727   386A      1.936741  
     387A      1.956818   388A      1.958844   389A      1.971864  
     390A      1.976850   391A      1.985990   392A      1.997406  
     393A      2.003316   394A      2.008617   395A      2.012865  
     396A      2.027463   397A      2.031055   398A      2.045289  
     399A      2.045859   400A      2.052821   401A      2.055049  
     402A      2.062897   403A      2.078466   404A      2.079796  
     405A      2.089553   406A      2.097014   407A      2.107555  
     408A      2.109293   409A      2.117963   410A      2.129440  
     411A      2.138873   412A      2.147332   413A      2.149026  
     414A      2.151095   415A      2.168727   416A      2.169962  
     417A      2.177938   418A      2.186274   419A      2.188760  
     420A      2.202790   421A      2.213222   422A      2.217372  
     423A      2.228347   424A      2.232974   425A      2.233547  
     426A      2.252672   427A      2.262071   428A      2.278431  
     429A      2.300913   430A      2.301086   431A      2.311880  
     432A      2.325427   433A      2.338116   434A      2.339490  
     435A      2.355940   436A      2.360410   437A      2.369163  
     438A      2.381979   439A      2.383833   440A      2.384548  
     441A      2.402171   442A      2.417448   443A      2.440597  
     444A      2.441961   445A      2.472073   446A      2.472514  
     447A      2.480236   448A      2.487423   449A      2.508971  
     450A      2.524648   451A      2.536242   452A      2.559144  
     453A      2.569889   454A      2.581849   455A      2.585003  
     456A      2.589316   457A      2.594739   458A      2.605306  
     459A      2.620709   460A      2.621851   461A      2.640614  
     462A      2.673705   463A      2.688926   464A      2.720036  
     465A      2.727340   466A      2.741220   467A      2.762580  
     468A      2.788879   469A      2.816174   470A      2.830939  
     471A      2.839088   472A      2.862690   473A      2.868525  
     474A      2.896847   475A      2.897324   476A      2.966562  
     477A      2.972177   478A      3.000475   479A      3.055210  
     480A      3.069522   481A      3.076514   482A      3.126211  
     483A      3.153525   484A      3.159675   485A      3.173150  
[...]
	 B(1,2,14)        =         2.095639	     120.071281
	 B(1,3,5)         =         2.095181	     120.045053
	 B(1,3,15)        =         2.095685	     120.073885
	 B(2,1,3)         =         2.092146	     119.871156
	 B(2,1,13)        =         2.095454	     120.060654
	 B(2,4,10)        =         2.101345	     120.398201
	 B(2,4,16)        =         2.099986	     120.320320
	 B(3,1,13)        =         2.095582	     120.067988
	 B(3,5,10)        =         2.101654	     120.415919
	 B(3,5,17)        =         2.099568	     120.296400
	 B(4,2,14)        =         2.092053	     119.865798
	 B(4,10,5)        =         2.080464	     119.201810
	 B(4,10,11)       =         2.098495	     120.234930
	 B(5,3,15)        =         2.092319	     119.881062
	 B(5,10,11)       =         2.103515	     120.522530
	 B(6,8,12)        =         2.157680	     123.625968
	 B(6,8,20)        =         2.097289	     120.165816
	 B(6,11,7)        =         2.046688	     117.266589
	 B(6,11,10)       =         2.115799	     121.226381
	 B(7,9,12)        =         2.157539	     123.617861
	 B(7,9,21)        =         2.097394	     120.171813
	 B(7,11,10)       =         2.120008	     121.467514
	 B(8,6,11)        =         2.082416	     119.313670
	 B(8,6,18)        =         2.101887	     120.429240
	 B(8,12,9)        =         2.039355	     116.846421
	 B(9,7,11)        =         2.082604	     119.324446
	 B(9,7,19)        =         2.101556	     120.410317
	 B(10,4,16)       =         2.081850	     119.281247
	 B(10,5,17)       =         2.081933	     119.285979
	 B(11,6,18)       =         2.098879	     120.256926
	 B(11,7,19)       =         2.098997	     120.263690
	 B(12,8,20)       =         2.028200	     116.207272
	 B(12,9,21)       =         2.028253	     116.210312
	 D(1,2,4,10)      =         0.004698	       0.269161
	 D(1,2,4,16)      =        -3.133816	    -179.554447
	 D(1,3,5,10)      =        -0.007699	      -0.441144
	 D(1,3,5,17)      =        -3.140950	    -179.963176
	 D(2,1,3,5)       =        -0.001851	      -0.106049
	 D(2,1,3,15)      =         3.139767	     179.895408
	 D(2,4,10,5)      =        -0.014071	      -0.806213
	 D(2,4,10,11)     =        -3.115367	    -178.497378
	 D(3,1,2,4)       =         0.003345	       0.191629
	 D(3,1,2,14)      =        -3.132548	    -179.481786
	 D(3,5,10,4)      =         0.015573	       0.892251
	 D(3,5,10,11)     =         3.116750	     178.576608
	 D(4,2,1,13)      =        -3.141099	    -179.971706
	 D(4,10,5,17)     =        -3.134278	    -179.580916
	 D(4,10,11,6)     =         1.835783	     105.182636
	 D(4,10,11,7)     =        -1.264809	     -72.468245
	 D(5,3,1,13)      =        -3.140593	    -179.942702
	 D(5,10,4,16)     =         3.124475	     179.019218
	 D(5,10,11,6)     =        -1.264975	     -72.477751
	 D(5,10,11,7)     =         1.917617	     109.871369
	 D(6,8,12,9)      =         0.001139	       0.065281
	 D(6,11,7,9)      =         0.013679	       0.783744
	 D(6,11,7,19)     =        -3.135778	    -179.666868
	 D(7,9,12,8)      =        -0.001528	      -0.087526
	 D(7,11,6,8)      =        -0.014033	      -0.804022
	 D(7,11,6,18)     =         3.125006	     179.049647
	 D(8,6,11,10)     =        -3.116285	    -178.549956
	 D(8,12,9,21)     =         3.140838	     179.956739
	 D(9,7,11,10)     =         3.115830	     178.523889
	 D(9,12,8,20)     =        -3.134277	    -179.580843
	 D(10,4,2,14)     =         3.140602	     179.943252
	 D(10,5,3,15)     =         3.133868	     179.557402
	 D(10,11,6,18)    =         0.022754	       1.303713
	 D(10,11,7,19)    =        -0.033628	      -1.926723
	 D(11,6,8,12)     =         0.006901	       0.395373
	 D(11,6,8,20)     =        -3.141101	    -179.971857
	 D(11,7,9,12)     =        -0.006135	      -0.351520
	 D(11,7,9,21)     =         3.134656	     179.602542
	 D(11,10,4,16)    =         0.023179	       1.328053
	 D(11,10,5,17)    =        -0.033101	      -1.896558
	 D(12,8,6,18)     =        -3.132134	    -179.458038
	 D(12,9,7,19)     =        -3.139851	    -179.900232
	 D(13,1,2,14)     =         0.006194	       0.354879
	 D(13,1,3,15)     =         0.001025	       0.058755
	 D(14,2,4,16)     =         0.002088	       0.119643
	 D(15,3,5,17)     =         0.000617	       0.035370
	 D(18,6,8,20)     =         0.003050	       0.174732
	 D(19,7,9,21)     =         0.000940	       0.053830

	Current energy   :      -478.5741761935

	Energy change for the previous step:
		Projected    :        -0.0000024374
		Actual       :        -0.0000065517

	Performing BFGS update.
	Previous computed or guess Hessian on step 1.
	Steps to be used in Hessian update: 13 12
	Adding user-defined constraint: Fragment 1; Coordinate 71:
		Value =     1.835783; Fixed value    =     1.832600
		Force =    -0.002626; Force constant =     0.825000
	Removing off-diagonal coupling between coordinate 71 and others.
	Taking RFO optimization step.
	Going to follow RFO solution 1.
	Using RFO vector 1.
	Norm of target step-size    0.00060
	Projected energy change by RFO approximation:        -0.0000000336

	Back-transformation to cartesian coordinates...
	Successfully converged to displaced geometry.

	--- Internal Coordinate Step in ANG or DEG, aJ/ANG or AJ/DEG ---
	 ---------------------------------------------------------------------------
	   Coordinate                Previous        Force       Change         New 
	   ----------                --------       ------       ------       ------
	    1 R(1,2)          =      1.388291     0.000094     0.000016     1.388308
	    2 R(1,3)          =      1.388278     0.000038     0.000009     1.388287
	    3 R(1,13)         =      1.079049     0.000025     0.000007     1.079056
	    4 R(2,4)          =      1.387637     0.000023     0.000004     1.387641
	    5 R(2,14)         =      1.079339     0.000002    -0.000000     1.079339
	    6 R(3,5)          =      1.387674     0.000035     0.000005     1.387679
	    7 R(3,15)         =      1.079348     0.000017     0.000008     1.079357
	    8 R(4,10)         =      1.392770     0.000017    -0.000011     1.392759
	    9 R(4,16)         =      1.079912     0.000085     0.000018     1.079930
	   10 R(5,10)         =      1.392664     0.000012     0.000010     1.392674
	   11 R(5,17)         =      1.079924     0.000044     0.000008     1.079932
	   12 R(6,8)          =      1.386700     0.000034     0.000016     1.386716
	   13 R(6,11)         =      1.389976    -0.000077    -0.000027     1.389949
	   14 R(6,18)         =      1.079620     0.000106     0.000032     1.079652
	   15 R(7,9)          =      1.386728    -0.000005     0.000007     1.386734
	   16 R(7,11)         =      1.389871    -0.000055    -0.000003     1.389867
	   17 R(7,19)         =      1.079653     0.000054     0.000020     1.079673
	   18 R(8,12)         =      1.334990    -0.000037    -0.000038     1.334952
	   19 R(8,20)         =      1.081086    -0.000059    -0.000015     1.081071
	   20 R(9,12)         =      1.334927    -0.000066    -0.000040     1.334887
	   21 R(9,21)         =      1.081078    -0.000018    -0.000005     1.081074
	   22 R(10,11)        =      1.468713     0.000040    -0.000008     1.468705
	   23 B(1,2,4)        =    120.062117     0.000000     0.001172   120.063289
	   24 B(1,2,14)       =    120.071281     0.000000     0.001738   120.073020
	   25 B(1,3,5)        =    120.045053     0.000000     0.001078   120.046131
	   26 B(1,3,15)       =    120.073885     0.000000     0.001800   120.075685
	   27 B(2,1,3)        =    119.871156    -0.000000    -0.001179   119.869977
	   28 B(2,1,13)       =    120.060654     0.000000     0.000963   120.061617
	   29 B(2,4,10)       =    120.398201    -0.000000    -0.001765   120.396436
	   30 B(2,4,16)       =    120.320320    -0.000000     0.001247   120.321567
	   31 B(3,1,13)       =    120.067988     0.000000     0.000214   120.068201
	   32 B(3,5,10)       =    120.415919    -0.000000    -0.002041   120.413877
	   33 B(3,5,17)       =    120.296400    -0.000000     0.001558   120.297958
	   34 B(4,2,14)       =    119.865798    -0.000000    -0.002898   119.862899
	   35 B(4,10,5)       =    119.201810     0.000000     0.002761   119.204571
	   36 B(4,10,11)      =    120.234930     0.000001     0.006207   120.241137
	   37 B(5,3,15)       =    119.881062    -0.000000    -0.002878   119.878184
	   38 B(5,10,11)      =    120.522530    -0.000001    -0.008779   120.513752
	   39 B(6,8,12)       =    123.625968     0.000000     0.001455   123.627423
	   40 B(6,8,20)       =    120.165816     0.000000    -0.003169   120.162646
	   41 B(6,11,7)       =    117.266589     0.000000    -0.001607   117.264982
	   42 B(6,11,10)      =    121.226381     0.000001     0.007836   121.234216
	   43 B(7,9,12)       =    123.617861     0.000000     0.000688   123.618549
	   44 B(7,9,21)       =    120.171813     0.000000    -0.001689   120.170124
	   45 B(7,11,10)      =    121.467514    -0.000001    -0.006167   121.461348
	   46 B(8,6,11)       =    119.313670    -0.000000    -0.000189   119.313481
	   47 B(8,6,18)       =    120.429240     0.000000     0.002251   120.431492
	   48 B(8,12,9)       =    116.846421    -0.000000    -0.000878   116.845543
	   49 B(9,7,11)       =    119.324446     0.000000     0.000483   119.324930
	   50 B(9,7,19)       =    120.410317    -0.000000     0.002224   120.412541
	   51 B(10,4,16)      =    119.281247     0.000001     0.000510   119.281757
	   52 B(10,5,17)      =    119.285979     0.000001     0.000513   119.286492
	   53 B(11,6,18)      =    120.256926     0.000000    -0.002057   120.254869
	   54 B(11,7,19)      =    120.263690    -0.000000    -0.002700   120.260990
	   55 B(12,8,20)      =    116.207272    -0.000000     0.001738   116.209010
	   56 B(12,9,21)      =    116.210312    -0.000001     0.001003   116.211314
	   57 D(1,2,4,10)     =      0.269161    -0.000000    -0.003152     0.266009
	   58 D(1,2,4,16)     =   -179.554447    -0.000000    -0.000104  -179.554551
	   59 D(1,3,5,10)     =     -0.441144     0.000000     0.004320    -0.436824
	   60 D(1,3,5,17)     =   -179.963176     0.000000     0.000135  -179.963041
	   61 D(2,1,3,5)      =     -0.106049     0.000000    -0.005018    -0.111067
	   62 D(2,1,3,15)     =    179.895408     0.000000    -0.002137   179.893272
	   63 D(2,4,10,5)     =     -0.806213     0.000000     0.002370    -0.803843
	   64 D(2,4,10,11)    =   -178.497378    -0.000000    -0.002793  -178.500171
	   65 D(3,1,2,4)      =      0.191629    -0.000000     0.004444     0.196073
	   66 D(3,1,2,14)     =   -179.481786    -0.000000     0.002071  -179.479715
	   67 D(3,5,10,4)     =      0.892251    -0.000000    -0.002954     0.889297
	   68 D(3,5,10,11)    =    178.576608     0.000000     0.002580   178.579188
	   69 D(4,2,1,13)     =   -179.971706     0.000000     0.003326  -179.968380
	   70 D(4,10,5,17)    =   -179.580916    -0.000000     0.001194  -179.579722
	   71 D(4,10,11,6)    =    105.182636     0.000002     0.008692   105.191328
	   72 D(4,10,11,7)    =    -72.468245     0.000001     0.006877   -72.461368
	   73 D(5,3,1,13)     =   -179.942702    -0.000000    -0.003901  -179.946603
	   74 D(5,10,4,16)    =    179.019218     0.000000    -0.000645   179.018573
	   75 D(5,10,11,6)    =    -72.477751     0.000001     0.003186   -72.474565
	   76 D(5,10,11,7)    =    109.871369     0.000001     0.001370   109.872739
	   77 D(6,8,12,9)     =      0.065281    -0.000000    -0.002964     0.062317
	   78 D(6,11,7,9)     =      0.783744    -0.000000     0.004132     0.787875
	   79 D(6,11,7,19)    =   -179.666868    -0.000000     0.005204  -179.661664
	   80 D(7,9,12,8)     =     -0.087526     0.000000     0.003274    -0.084252
	   81 D(7,11,6,8)     =     -0.804022     0.000000    -0.003842    -0.807863
	   82 D(7,11,6,18)    =    179.049647     0.000000    -0.001630   179.048017
	   83 D(8,6,11,10)    =   -178.549956    -0.000000    -0.005468  -178.555423
	   84 D(8,12,9,21)    =    179.956739     0.000000     0.000828   179.957567
	   85 D(9,7,11,10)    =    178.523889     0.000000     0.006098   178.529987
	   86 D(9,12,8,20)    =   -179.580843    -0.000000    -0.007484  -179.588327
	   87 D(10,4,2,14)    =    179.943252    -0.000000    -0.000769   179.942482
	   88 D(10,5,3,15)    =    179.557402     0.000000     0.001444   179.558846
	   89 D(10,11,6,18)   =      1.303713    -0.000000    -0.003256     1.300457
	   90 D(10,11,7,19)   =     -1.926723     0.000000     0.007170    -1.919553
	   91 D(11,6,8,12)    =      0.395373    -0.000000     0.003417     0.398790
	   92 D(11,6,8,20)    =   -179.971857    -0.000000     0.008124  -179.963733
	   93 D(11,7,9,12)    =     -0.351520     0.000000    -0.004023    -0.355543
	   94 D(11,7,9,21)    =    179.602542    -0.000000    -0.001483   179.601059
	   95 D(11,10,4,16)   =      1.328053    -0.000000    -0.005809     1.322244
	   96 D(11,10,5,17)   =     -1.896558     0.000000     0.006728    -1.889831
	   97 D(12,8,6,18)    =   -179.458038    -0.000000     0.001208  -179.456830
	   98 D(12,9,7,19)    =   -179.900232     0.000000    -0.005074  -179.905307
	   99 D(13,1,2,14)    =      0.354879    -0.000000     0.000953     0.355832
	  100 D(13,1,3,15)    =      0.058755     0.000000    -0.001020     0.057736
	  101 D(14,2,4,16)    =      0.119643    -0.000000     0.002279     0.121922
	  102 D(15,3,5,17)    =      0.035370     0.000000    -0.002740     0.032630
	  103 D(18,6,8,20)    =      0.174732    -0.000000     0.005915     0.180647
	  104 D(19,7,9,21)    =      0.053830    -0.000000    -0.002535     0.051295
	 ---------------------------------------------------------------------------
	Successfully symmetrized geometry.
	 Forces used to impose fixed constraints are not included.
	  Forces zeroed: 71 

  ==> Convergence Check <==

  Measures of convergence in internal coordinates in au.
  Criteria marked as inactive (o), active & met (*), and active & unmet ( ).
  ---------------------------------------------------------------------------------------------
   Step     Total Energy     Delta E     MAX Force     RMS Force      MAX Disp      RMS Disp   
  ---------------------------------------------------------------------------------------------
    Convergence Criteria    1.00e-06 *    3.00e-04 *             o    1.20e-03 *             o
  ---------------------------------------------------------------------------------------------
     14    -478.57417619   -6.55e-06      7.63e-05 *    1.49e-05 o    1.53e-04 *    5.91e-05 o  ~
  ---------------------------------------------------------------------------------------------


  **** Optimization is complete! (in 14 steps) ****

  ==> Optimization Summary <==

  Measures of convergence in internal coordinates in au.
  --------------------------------------------------------------------------------------------------------------- ~
   Step         Total Energy             Delta E       MAX Force       RMS Force        MAX Disp        RMS Disp  ~
  --------------------------------------------------------------------------------------------------------------- ~
      1    -478.571928302541   -478.571928302541      0.01829184      0.00379950      0.04139685      0.00980850  ~
      2    -478.573991497911     -0.002063195370      0.00262890      0.00066352      0.04835118      0.00842996  ~
      3    -478.574163275486     -0.000171777576      0.00084904      0.00016731      0.02086691      0.00367687  ~
      4    -478.574182437955     -0.000019162469      0.00019262      0.00005155      0.00603510      0.00142092  ~
      5    -478.574185154909     -0.000002716954      0.00014524      0.00003603      0.00376329      0.00107237  ~
      6    -478.574179128985      0.000006025924      0.00018100      0.00004600      0.00261269      0.00068505  ~
      7    -478.574180381891     -0.000001252906      0.00011338      0.00002435      0.01091915      0.00259972  ~
      8    -478.574162791530      0.000017590361      0.00100518      0.00025305      0.01225046      0.00303104  ~
      9    -478.574164809502     -0.000002017972      0.00090780      0.00015016      0.00179455      0.00051741  ~
     10    -478.574174584603     -0.000009775101      0.00034824      0.00005435      0.04265428      0.00975433  ~
     11    -478.574076199043      0.000098385560      0.01289011      0.00231389      0.04554445      0.00864784  ~
     12    -478.574136730975     -0.000060531932      0.00148277      0.00036491      0.01166902      0.00288871  ~
     13    -478.574169641751     -0.000032910776      0.00057020      0.00008990      0.00253356      0.00042159  ~
     14    -478.574176193452     -0.000006551700      0.00012081      0.00001906      0.00015322      0.00005908  ~
  --------------------------------------------------------------------------------------------------------------- ~

	Writing optimization data to binary file.
	Final energy is   -478.5741761934515
	Final (previous) structure:
	Cartesian Geometry (in Angstrom)
	    C     0.0933640912   0.0375377585  -3.5445337855
	    C    -0.9586694769   0.6339830035  -2.8627485067
	    C     1.1217030221  -0.5684317625  -2.8355662346
	    C    -0.9802421478   0.6279272039  -1.4752927130
	    C     1.0987819258  -0.5757800758  -1.4481010331
	    C    -0.2922967328  -1.1736861110   1.3963888805
	    C     0.2218283315   1.1424099622   1.4689464489
	    C    -0.3514248717  -1.1531440025   2.7816751190
	    C     0.1408410678   1.0664667214   2.8512227828
	    C     0.0526215777   0.0303869661  -0.7569986361
	    C     0.0098876076  -0.0029736806   0.7107132085
	    N    -0.1398778076  -0.0575020979   3.5144878254
	    H     0.1103455721   0.0426602525  -4.6234372285
	    H    -1.7640639161   1.0986997284  -3.4107914990
	    H     1.9403640173  -1.0346001930  -3.3623243207
	    H    -1.8001246279   1.0843489453  -0.9408014688
	    H     1.8968864642  -1.0454660623  -0.8925288310
	    H    -0.4811134255  -2.0881914368   0.8545334433
	    H     0.4543006053   2.0795125575   0.9857833491
	    H    -0.5848063791  -2.0558181042   3.3289037545
	    H     0.3095616792   1.9474846116   3.4546058687
	Saving final (previous) structure.
			--------------------------
			 OPTKING Finished Execution 
			--------------------------

    Final optimized geometry and variables:
    Molecular point group: c1
    Full point group: C1

    Geometry (in Angstrom), charge = 0, multiplicity = 1:

    C            0.093364091211     0.037537758473    -3.544533785524
    C           -0.958669476879     0.633983003525    -2.862748506663
    C            1.121703022130    -0.568431762461    -2.835566234616
    C           -0.980242147834     0.627927203935    -1.475292712997
    C            1.098781925837    -0.575780075788    -1.448101033128
    C           -0.292296732811    -1.173686110972     1.396388880502
    C            0.221828331496     1.142409962237     1.468946448865
    C           -0.351424871705    -1.153144002532     2.781675119030
    C            0.140841067837     1.066466721395     2.851222782753
    C            0.052621577700     0.030386966073    -0.756998636092
    C            0.009887607649    -0.002973680589     0.710713208454
    N           -0.139877807585    -0.057502097851     3.514487825448
    H            0.110345572094     0.042660252528    -4.623437228496
    H           -1.764063916084     1.098699728419    -3.410791499010
    H            1.940364017280    -1.034600193017    -3.362324320740
    H           -1.800124627889     1.084348945281    -0.940801468756
    H            1.896886464159    -1.045466062337    -0.892528830989
    H           -0.481113425501    -2.088191436765     0.854533443286
    H            0.454300605277     2.079512557482     0.985783349079
    H           -0.584806379129    -2.055818104157     3.328903754497
    H            0.309561679185     1.947484611635     3.454605868688

	Cleaning optimization helper files.

*** Psi4 exiting successfully. Buy a developer a beer!
