
    -----------------------------------------------------------------------
          Psi4: An Open-Source Ab Initio Electronic Structure Package
                               Psi4 1.1 release

                         Git: Rev {HEAD} add49b9 


    R. M. Parrish, L. A. Burns, D. G. A. Smith, A. C. Simmonett,
    A. E. DePrince III, E. G. Hohenstein, U. Bozkaya, A. Yu. Sokolov,
    R. Di Remigio, R. M. Richard, J. F. Gonthier, A. M. James,
    H. R. McAlexander, A. Kumar, M. Saitow, X. Wang, B. P. Pritchard,
    P. Verma, H. F. Schaefer III, K. Patkowski, R. A. King, E. F. Valeev,
    F. A. Evangelista, J. M. Turney, T. D. Crawford, and C. D. Sherrill,
    J. Chem. Theory Comput. in press (2017).
    (doi: 10.1021/acs.jctc.7b00174)

    -----------------------------------------------------------------------


    Psi4 started on: Sunday, 12 November 2017 02:25AM

    Process ID:  15424
    PSIDATADIR: /cbio/jclab/home/chayas/anaconda/envs/py35/share/psi4
    Memory:     500.0 MiB
    Threads:    8
    
  ==> Input File <==

--------------------------------------------------------------------------

memory 5 Gb

molecule phepyrOH_anion {
  symmetry C1
  -1 1 
  C      1.885   -1.036   -0.112
  C      2.878   -1.652   2.002
  C      0.807   -0.463   0.561
  C      1.800   -1.079   2.676
  C      5.268   -1.576   -0.122
  C      3.891   -3.451   -0.731
  C      6.309   -2.188   -0.803
  C      4.993   -3.979   -1.384
  C      2.921   -1.631   0.608
  C      4.040   -2.226   -0.090
  C      0.764   -0.484   1.955
  N      6.202   -3.377   -1.437
  O      -0.227   0.042   2.574
  H      1.904   -1.011   -1.199
  H      3.678   -2.112   2.577
  H      0.011   -0.006   -0.025
  H      1.791   -1.108   3.764
  H      5.424   -0.619   0.367
  H      2.947   -3.987   -0.727
  H      7.287   -1.722   -0.856
  H      4.928   -4.931   -1.900
  units Angstrom
}

dih_string = "1 9 10 5 105"
set optking fixed_dihedral = $dih_string

optimize('MP2/aug-cc-PVTZ')
--------------------------------------------------------------------------

  Memory set to   4.657 GiB by Python driver.
gradient() will perform analytic gradient computation.

*** tstart() called on gpu-2-8.local
*** at Sun Nov 12 02:25:35 2017

    SCF Algorithm Type (re)set to DF.

*** tstart() called on gpu-2-8.local
*** at Sun Nov 12 02:25:35 2017

   => Loading Basis Set <=

    Name: AUG-CC-PVTZ
    Role: ORBITAL
    Keyword: BASIS
    atoms 1-11  entry C          line   221 file /cbio/jclab/home/chayas/anaconda/envs/py35/share/psi4/basis/aug-cc-pvtz.gbs 
    atoms 12    entry N          line   267 file /cbio/jclab/home/chayas/anaconda/envs/py35/share/psi4/basis/aug-cc-pvtz.gbs 
    atoms 13    entry O          line   313 file /cbio/jclab/home/chayas/anaconda/envs/py35/share/psi4/basis/aug-cc-pvtz.gbs 
    atoms 14-21 entry H          line    34 file /cbio/jclab/home/chayas/anaconda/envs/py35/share/psi4/basis/aug-cc-pvtz.gbs 


         ---------------------------------------------------------
                                   SCF
            by Justin Turney, Rob Parrish, and Andy Simmonett
                              RHF Reference
                        8 Threads,   4768 MiB Core
         ---------------------------------------------------------

  ==> Geometry <==

    Molecular point group: c1
    Full point group: C1

    Geometry (in Angstrom), charge = -1, multiplicity = 1:

       Center              X                  Y                   Z               Mass       
    ------------   -----------------  -----------------  -----------------  -----------------
           C         -1.279031649231     0.724630450402    -0.569396691890    12.000000000000
           C         -0.286031649231     0.108630450402     1.544603308110    12.000000000000
           C         -2.357031649231     1.297630450402     0.103603308110    12.000000000000
           C         -1.364031649231     0.681630450402     2.218603308110    12.000000000000
           C          2.103968350769     0.184630450402    -0.579396691890    12.000000000000
           C          0.726968350769    -1.690369549598    -1.188396691890    12.000000000000
           C          3.144968350769    -0.427369549598    -1.260396691890    12.000000000000
           C          1.828968350769    -2.218369549598    -1.841396691890    12.000000000000
           C         -0.243031649231     0.129630450402     0.150603308110    12.000000000000
           C          0.875968350769    -0.465369549598    -0.547396691890    12.000000000000
           C         -2.400031649231     1.276630450402     1.497603308110    12.000000000000
           N          3.037968350769    -1.616369549598    -1.894396691890    14.003074004780
           O         -3.391031649231     1.802630450402     2.116603308110    15.994914619560
           H         -1.260031649231     0.749630450402    -1.656396691890     1.007825032070
           H          0.513968350769    -0.351369549598     2.119603308110     1.007825032070
           H         -3.153031649231     1.754630450402    -0.482396691890     1.007825032070
           H         -1.373031649231     0.652630450402     3.306603308110     1.007825032070
           H          2.259968350769     1.141630450402    -0.090396691890     1.007825032070
           H         -0.217031649231    -2.226369549598    -1.184396691890     1.007825032070
           H          4.122968350769     0.038630450402    -1.313396691890     1.007825032070
           H          1.763968350769    -3.170369549598    -2.357396691890     1.007825032070

  Running in c1 symmetry.

  Rotational constants: A =      0.09734  B =      0.01335  C =      0.01289 [cm^-1]
  Rotational constants: A =   2918.29772  B =    400.30428  C =    386.54500 [MHz]
  Nuclear repulsion =  685.625172544169800

  Charge       = -1
  Multiplicity = 1
  Electrons    = 90
  Nalpha       = 45
  Nbeta        = 45

  ==> Algorithm <==

  SCF Algorithm Type is DF.
  DIIS enabled.
  MOM disabled.
  Fractional occupation disabled.
  Guess Type is SAD.
  Energy threshold   = 1.00e-10
  Density threshold  = 1.00e-10
  Integral threshold = 0.00e+00

  ==> Primary Basis <==

  Basis Set: AUG-CC-PVTZ
    Blend: AUG-CC-PVTZ
    Number of shells: 254
    Number of basis function: 782
    Number of Cartesian functions: 915
    Spherical Harmonics?: true
    Max angular momentum: 3

   => Loading Basis Set <=

    Name: (AUG-CC-PVTZ AUX)
    Role: JKFIT
    Keyword: DF_BASIS_SCF
    atoms 1-11  entry C          line   161 file /cbio/jclab/home/chayas/anaconda/envs/py35/share/psi4/basis/aug-cc-pvtz-jkfit.gbs 
    atoms 12    entry N          line   223 file /cbio/jclab/home/chayas/anaconda/envs/py35/share/psi4/basis/aug-cc-pvtz-jkfit.gbs 
    atoms 13    entry O          line   285 file /cbio/jclab/home/chayas/anaconda/envs/py35/share/psi4/basis/aug-cc-pvtz-jkfit.gbs 
    atoms 14-21 entry H          line    69 file /cbio/jclab/home/chayas/anaconda/envs/py35/share/psi4/basis/aug-cc-pvtz-jkfit.gbs 

  ==> Pre-Iterations <==

   -------------------------------------------------------
    Irrep   Nso     Nmo     Nalpha   Nbeta   Ndocc  Nsocc
   -------------------------------------------------------
     A        782     782       0       0       0       0
   -------------------------------------------------------
    Total     782     782      45      45      45       0
   -------------------------------------------------------

  ==> Integral Setup <==

  ==> DFJK: Density-Fitted J/K Matrices <==

    J tasked:                  Yes
    K tasked:                  Yes
    wK tasked:                  No
    OpenMP threads:              8
    Integrals threads:           8
    Memory (MB):              3576
    Algorithm:                Disk
    Integral Cache:           NONE
    Schwarz Cutoff:          1E-12
    Fitting Condition:       1E-12

   => Auxiliary Basis Set <=

  Basis Set: (AUG-CC-PVTZ AUX)
    Blend: AUG-CC-PVTZ-JKFIT
    Number of shells: 502
    Number of basis function: 1720
    Number of Cartesian functions: 2143
    Spherical Harmonics?: true
    Max angular momentum: 4

  Minimum eigenvalue in the overlap matrix is 7.5855021265E-07.
  Using Symmetric Orthogonalization.

  SCF Guess: Superposition of Atomic Densities via on-the-fly atomic UHF.

  ==> Iterations <==

                           Total Energy        Delta E     RMS |[F,P]|

   @DF-RHF iter   0:  -560.41717651695956   -5.60417e+02   1.84690e-02 
   @DF-RHF iter   1:  -550.27654521957857    1.01406e+01   1.60523e-03 
   @DF-RHF iter   2:  -550.60052518223347   -3.23980e-01   1.25108e-03 DIIS
   @DF-RHF iter   3:  -550.68374035338206   -8.32152e-02   5.15693e-04 DIIS
   @DF-RHF iter   4:  -550.70551435351319   -2.17740e-02   1.46368e-04 DIIS
   @DF-RHF iter   5:  -550.70795044522060   -2.43609e-03   4.11266e-05 DIIS
   @DF-RHF iter   6:  -550.70841255488870   -4.62110e-04   2.17471e-05 DIIS
   @DF-RHF iter   7:  -550.70849249400624   -7.99391e-05   1.05393e-05 DIIS
   @DF-RHF iter   8:  -550.70850316879296   -1.06748e-05   3.05117e-06 DIIS
   @DF-RHF iter   9:  -550.70850495355921   -1.78477e-06   1.12528e-06 DIIS
   @DF-RHF iter  10:  -550.70850548616966   -5.32610e-07   5.57823e-07 DIIS
   @DF-RHF iter  11:  -550.70850563324996   -1.47080e-07   2.12572e-07 DIIS
   @DF-RHF iter  12:  -550.70850565230307   -1.90531e-08   1.17909e-07 DIIS
   @DF-RHF iter  13:  -550.70850565459057   -2.28749e-09   3.88908e-08 DIIS
   @DF-RHF iter  14:  -550.70850565491185   -3.21279e-10   1.26678e-08 DIIS
   @DF-RHF iter  15:  -550.70850565495289   -4.10409e-11   4.92255e-09 DIIS
   @DF-RHF iter  16:  -550.70850565495584   -2.95586e-12   2.23882e-09 DIIS
   @DF-RHF iter  17:  -550.70850565497597   -2.01226e-11   1.01357e-09 DIIS
   @DF-RHF iter  18:  -550.70850565495721    1.87583e-11   4.22158e-10 DIIS
   @DF-RHF iter  19:  -550.70850565495607    1.13687e-12   1.71125e-10 DIIS
   @DF-RHF iter  20:  -550.70850565496414   -8.07177e-12   7.20029e-11 DIIS

  ==> Post-Iterations <==

    Orbital Energies (a.u.)
    -----------------------

    Doubly Occupied:                                                      

       1A    -20.284258     2A    -15.463073     3A    -11.173517  
       4A    -11.173364     5A    -11.145676     6A    -11.127662  
       7A    -11.127598     8A    -11.104498     9A    -11.093343  
      10A    -11.093317    11A    -11.070375    12A    -11.053470  
      13A    -11.053426    14A     -1.147737    15A     -1.117793  
      16A     -1.018095    17A     -0.956877    18A     -0.930076  
      19A     -0.860416    20A     -0.835074    21A     -0.750064  
      22A     -0.734431    23A     -0.676516    24A     -0.646093  
      25A     -0.594194    26A     -0.558093    27A     -0.547073  
      28A     -0.502609    29A     -0.495203    30A     -0.488047  
      31A     -0.476774    32A     -0.435523    33A     -0.430400  
      34A     -0.417698    35A     -0.402750    36A     -0.367806  
      37A     -0.355648    38A     -0.343952    39A     -0.314951  
      40A     -0.281847    41A     -0.258896    42A     -0.247746  
      43A     -0.203305    44A     -0.191554    45A     -0.103024  

    Virtual:                                                              

      46A      0.096623    47A      0.099165    48A      0.115720  
      49A      0.116589    50A      0.124524    51A      0.124627  
      52A      0.131477    53A      0.131885    54A      0.161127  
      55A      0.166090    56A      0.181053    57A      0.184006  
      58A      0.184708    59A      0.185672    60A      0.189458  
      61A      0.193210    62A      0.193327    63A      0.200966  
      64A      0.205708    65A      0.208531    66A      0.211916  
      67A      0.217138    68A      0.221307    69A      0.223019  
      70A      0.227200    71A      0.228756    72A      0.230143  
      73A      0.231958    74A      0.237854    75A      0.242483  
      76A      0.246648    77A      0.250727    78A      0.258215  
      79A      0.261585    80A      0.266062    81A      0.269061  
      82A      0.272663    83A      0.285898    84A      0.292020  
      85A      0.296824    86A      0.301726    87A      0.306049  
      88A      0.307077    89A      0.317467    90A      0.320795  
      91A      0.322304    92A      0.333680    93A      0.335217  
      94A      0.337589    95A      0.341453    96A      0.343803  
      97A      0.352060    98A      0.356814    99A      0.359130  
     100A      0.360775   101A      0.368321   102A      0.370015  
     103A      0.376720   104A      0.390226   105A      0.391281  
     106A      0.396610   107A      0.396912   108A      0.399575  
     109A      0.405536   110A      0.409182   111A      0.411570  
     112A      0.415468   113A      0.421500   114A      0.422236  
     115A      0.425619   116A      0.427376   117A      0.446747  
     118A      0.452801   119A      0.454346   120A      0.456490  
     121A      0.461507   122A      0.466199   123A      0.471088  
     124A      0.471673   125A      0.479837   126A      0.486070  
     127A      0.492429   128A      0.504825   129A      0.504871  
     130A      0.509436   131A      0.512117   132A      0.519812  
     133A      0.520995   134A      0.530020   135A      0.538912  
     136A      0.543944   137A      0.546511   138A      0.551891  
     139A      0.556585   140A      0.561344   141A      0.565487  
     142A      0.568266   143A      0.576298   144A      0.578669  
     145A      0.578819   146A      0.579774   147A      0.587046  
     148A      0.590196   149A      0.592289   150A      0.593570  
     151A      0.597494   152A      0.599536   153A      0.604611  
     154A      0.610483   155A      0.615005   156A      0.620073  
     157A      0.621779   158A      0.622489   159A      0.623260  
     160A      0.629075   161A      0.638838   162A      0.639541  
     163A      0.642243   164A      0.646997   165A      0.662818  
     166A      0.666715   167A      0.668792   168A      0.674514  
     169A      0.677690   170A      0.679484   171A      0.681817  
     172A      0.689664   173A      0.693748   174A      0.697687  
     175A      0.711302   176A      0.713093   177A      0.717177  
     178A      0.718587   179A      0.725865   180A      0.725998  
     181A      0.740248   182A      0.740343   183A      0.746153  
     184A      0.756962   185A      0.762620   186A      0.762978  
     187A      0.771747   188A      0.784666   189A      0.788368  
     190A      0.793781   191A      0.798475   192A      0.799823  
     193A      0.815300   194A      0.817930   195A      0.830089  
     196A      0.832415   197A      0.836874   198A      0.844125  
     199A      0.853414   200A      0.854830   201A      0.854971  
     202A      0.858141   203A      0.863924   204A      0.866345  
     205A      0.869837   206A      0.876741   207A      0.887260  
     208A      0.896642   209A      0.903611   210A      0.905780  
     211A      0.908389   212A      0.910684   213A      0.922724  
     214A      0.925450   215A      0.937551   216A      0.943092  
     217A      0.960865   218A      0.962853   219A      0.972499  
     220A      0.978062   221A      0.988761   222A      0.993038  
     223A      0.995677   224A      1.009969   225A      1.015229  
     226A      1.017828   227A      1.019809   228A      1.021217  
     229A      1.021461   230A      1.024750   231A      1.031702  
     232A      1.036665   233A      1.038129   234A      1.039660  
     235A      1.051376   236A      1.057227   237A      1.060688  
     238A      1.062433   239A      1.064760   240A      1.065215  
     241A      1.072631   242A      1.084420   243A      1.084992  
     244A      1.087790   245A      1.089390   246A      1.099502  
     247A      1.101880   248A      1.102664   249A      1.111656  
     250A      1.112788   251A      1.119157   252A      1.122416  
     253A      1.133214   254A      1.139821   255A      1.144087  
     256A      1.145064   257A      1.149840   258A      1.154319  
     259A      1.159228   260A      1.163412   261A      1.168322  
     262A      1.173931   263A      1.176292   264A      1.190078  
     265A      1.193533   266A      1.194894   267A      1.201304  
     268A      1.211998   269A      1.215157   270A      1.215453  
     271A      1.219054   272A      1.223580   273A      1.232157  
     274A      1.237095   275A      1.241763   276A      1.248024  
     277A      1.252155   278A      1.255450   279A      1.263619  
     280A      1.266923   281A      1.273302   282A      1.278911  
     283A      1.283360   284A      1.290588   285A      1.291011  
     286A      1.299271   287A      1.301163   288A      1.309403  
     289A      1.317215   290A      1.318529   291A      1.328039  
     292A      1.331958   293A      1.336757   294A      1.338777  
     295A      1.342427   296A      1.345979   297A      1.346489  
     298A      1.358245   299A      1.360397   300A      1.374928  
     301A      1.378982   302A      1.384916   303A      1.385647  
     304A      1.395561   305A      1.405961   306A      1.410728  
     307A      1.411150   308A      1.412637   309A      1.428420  
     310A      1.431238   311A      1.442257   312A      1.443441  
     313A      1.450070   314A      1.450786   315A      1.463434  
     316A      1.467468   317A      1.476625   318A      1.494224  
     319A      1.499517   320A      1.517400   321A      1.517845  
     322A      1.518477   323A      1.520878   324A      1.539326  
     325A      1.539712   326A      1.548639   327A      1.554824  
     328A      1.569904   329A      1.576040   330A      1.581132  
     331A      1.588575   332A      1.593718   333A      1.605506  
     334A      1.612629   335A      1.621671   336A      1.634885  
     337A      1.643492   338A      1.656851   339A      1.659326  
     340A      1.674284   341A      1.675953   342A      1.678864  
     343A      1.686630   344A      1.688707   345A      1.700469  
     346A      1.705885   347A      1.715001   348A      1.735071  
     349A      1.739811   350A      1.747452   351A      1.751378  
     352A      1.759380   353A      1.769487   354A      1.773270  
     355A      1.788541   356A      1.793935   357A      1.814762  
     358A      1.815726   359A      1.817459   360A      1.818437  
     361A      1.836254   362A      1.839157   363A      1.839728  
     364A      1.844717   365A      1.845814   366A      1.866070  
     367A      1.881502   368A      1.883109   369A      1.886381  
     370A      1.893325   371A      1.900201   372A      1.908824  
     373A      1.921984   374A      1.926798   375A      1.941783  
     376A      1.944031   377A      1.948723   378A      1.968105  
     379A      1.980686   380A      1.983043   381A      1.992717  
     382A      2.003928   383A      2.005023   384A      2.011864  
     385A      2.017938   386A      2.024399   387A      2.035690  
     388A      2.048408   389A      2.055829   390A      2.076565  
     391A      2.078647   392A      2.088185   393A      2.089782  
     394A      2.090715   395A      2.106833   396A      2.107804  
     397A      2.108447   398A      2.111577   399A      2.138582  
     400A      2.147617   401A      2.153749   402A      2.159273  
     403A      2.162551   404A      2.163225   405A      2.181146  
     406A      2.186017   407A      2.186256   408A      2.202294  
     409A      2.211577   410A      2.213641   411A      2.214621  
     412A      2.240681   413A      2.244313   414A      2.250813  
     415A      2.263263   416A      2.271204   417A      2.272747  
     418A      2.278336   419A      2.295885   420A      2.300067  
     421A      2.305601   422A      2.312627   423A      2.314376  
     424A      2.315244   425A      2.331106   426A      2.334618  
     427A      2.341695   428A      2.353639   429A      2.362068  
     430A      2.384486   431A      2.385855   432A      2.396805  
     433A      2.408510   434A      2.414556   435A      2.428889  
     436A      2.429186   437A      2.431949   438A      2.461651  
     439A      2.465699   440A      2.480285   441A      2.494476  
     442A      2.507937   443A      2.512179   444A      2.524320  
     445A      2.535793   446A      2.555115   447A      2.563752  
     448A      2.571211   449A      2.573845   450A      2.575262  
     451A      2.583010   452A      2.602632   453A      2.619605  
     454A      2.638543   455A      2.639500   456A      2.664933  
     457A      2.668882   458A      2.670471   459A      2.686392  
     460A      2.693493   461A      2.699255   462A      2.702795  
     463A      2.712061   464A      2.741948   465A      2.744616  
     466A      2.757966   467A      2.774306   468A      2.775282  
     469A      2.778423   470A      2.793769   471A      2.817189  
     472A      2.850495   473A      2.890301   474A      2.891247  
     475A      2.908207   476A      2.922158   477A      2.928845  
     478A      2.932952   479A      2.946253   480A      2.971169  
     481A      2.992467   482A      2.997503   483A      3.024325  
     484A      3.032024   485A      3.043091   486A      3.090825  
     487A      3.121618   488A      3.130896   489A      3.134337  
     490A      3.157282   491A      3.197020   492A      3.213044  
     493A      3.216790   494A      3.236119   495A      3.264609  
     496A      3.300237   497A      3.312763   498A      3.338228  
     499A      3.355724   500A      3.356771   501A      3.377636  
     502A      3.388460   503A      3.394403   504A      3.399896  
     505A      3.421214   506A      3.448314   507A      3.452163  
     508A      3.457596   509A      3.472330   510A      3.504215  
     511A      3.510942   512A      3.523030   513A      3.529157  
     514A      3.536583   515A      3.552164   516A      3.557412  
     517A      3.566208   518A      3.575267   519A      3.582298  
     520A      3.582789   521A      3.596716   522A      3.613884  
     523A      3.629401   524A      3.645855   525A      3.652037  
     526A      3.658627   527A      3.675016   528A      3.675420  
     529A      3.682459   530A      3.683190   531A      3.691980  
     532A      3.704725   533A      3.705236   534A      3.711520  
     535A      3.717257   536A      3.729317   537A      3.735574  
     538A      3.748958   539A      3.757139   540A      3.758802  
     541A      3.765995   542A      3.772343   543A      3.782451  
     544A      3.803291   545A      3.811932   546A      3.816543  
     547A      3.823727   548A      3.832695   549A      3.844566  
     550A      3.850180   551A      3.857455   552A      3.868129  
     553A      3.890238   554A      3.890843   555A      3.917656  
     556A      3.924744   557A      3.932081   558A      3.937494  
     559A      3.952121   560A      3.960239   561A      3.964586  
     562A      3.973349   563A      3.976726   564A      3.986763  
     565A      4.002541   566A      4.018924   567A      4.035640  
     568A      4.039940   569A      4.043657   570A      4.044773  
     571A      4.055826   572A      4.056033   573A      4.064909  
     574A      4.075456   575A      4.088136   576A      4.094842  
     577A      4.095166   578A      4.122088   579A      4.134509  
     580A      4.139909   581A      4.149969   582A      4.163645  
     583A      4.172683   584A      4.174179   585A      4.180950  
     586A      4.196863   587A      4.199564   588A      4.206688  
     589A      4.213717   590A      4.226033   591A      4.237371  
     592A      4.245359   593A      4.249097   594A      4.253980  
     595A      4.261464   596A      4.279284   597A      4.303068  
     598A      4.311452   599A      4.320175   600A      4.320625  
     601A      4.327831   602A      4.336913   603A      4.339475  
     604A      4.348224   605A      4.365030   606A      4.373976  
     607A      4.374108   608A      4.397408   609A      4.403855  
     610A      4.408323   611A      4.418710   612A      4.421388  
     613A      4.435112   614A      4.442495   615A      4.455828  
     616A      4.460676   617A      4.488432   618A      4.502271  
     619A      4.509138   620A      4.513038   621A      4.521769  
     622A      4.528815   623A      4.537739   624A      4.543118  
     625A      4.557993   626A      4.563814   627A      4.570804  
     628A      4.591139   629A      4.594828   630A      4.601456  
     631A      4.602169   632A      4.622193   633A      4.644514  
     634A      4.658305   635A      4.668390   636A      4.672249  
     637A      4.684140   638A      4.689265   639A      4.699896  
     640A      4.710346   641A      4.737480   642A      4.741804  
     643A      4.753509   644A      4.769913   645A      4.774653  
     646A      4.792793   647A      4.796701   648A      4.834064  
     649A      4.846691   650A      4.876103   651A      4.885269  
     652A      4.902666   653A      4.920234   654A      4.932282  
     655A      4.953520   656A      4.958345   657A      4.986458  
     658A      4.993394   659A      5.017865   660A      5.025503  
     661A      5.035947   662A      5.059838   663A      5.068785  
     664A      5.072880   665A      5.090709   666A      5.095978  
     667A      5.106784   668A      5.110798   669A      5.136309  
     670A      5.165609   671A      5.166445   672A      5.175491  
     673A      5.178950   674A      5.183450   675A      5.190348  
     676A      5.224182   677A      5.227714   678A      5.234955  
     679A      5.255914   680A      5.263978   681A      5.267512  
     682A      5.270148   683A      5.271349   684A      5.301682  
     685A      5.309581   686A      5.323913   687A      5.327126  
     688A      5.333333   689A      5.349897   690A      5.352833  
     691A      5.378795   692A      5.403047   693A      5.406148  
     694A      5.440669   695A      5.471361   696A      5.483189  
     697A      5.493773   698A      5.494512   699A      5.514887  
     700A      5.515559   701A      5.525544   702A      5.545871  
     703A      5.562044   704A      5.574470   705A      5.588487  
     706A      5.590640   707A      5.651532   708A      5.657693  
     709A      5.658316   710A      5.673996   711A      5.689207  
     712A      5.771311   713A      5.792471   714A      5.829461  
     715A      5.844921   716A      5.857872   717A      5.875676  
     718A      5.892404   719A      5.902228   720A      5.943760  
     721A      5.968273   722A      5.971643   723A      5.986359  
     724A      5.998115   725A      6.013235   726A      6.077720  
     727A      6.135508   728A      6.180306   729A      6.245175  
     730A      6.245846   731A      6.293527   732A      6.316677  
     733A      6.335946   734A      6.355929   735A      6.401825  
     736A      6.445837   737A      6.473442   738A      6.484499  
     739A      6.545519   740A      6.586261   741A      6.626437  
     742A      6.677861   743A      6.687171   744A      6.734506  
     745A      6.796926   746A      6.813500   747A      6.832760  
     748A      6.904078   749A      6.912430   750A      6.978480  
     751A      6.995966   752A      7.016076   753A      7.042676  
     754A      7.079018   755A      7.149824   756A      7.169370  
     757A      7.204196   758A      7.252821   759A      7.320102  
     760A      7.358864   761A      7.371419   762A      7.515934  
     763A      7.629225   764A      7.653388   765A      7.942821  
     766A      7.957423   767A      8.037384   768A      8.165860  
     769A      8.229468   770A     15.722702   771A     16.135360  
     772A     16.359571   773A     16.639160   774A     17.036158  
     775A     18.591067   776A     18.892466   777A     19.309446  
     778A     19.999246   779A     20.204030   780A     20.231502  
     781A     20.301278   782A     21.870595  

    Final Occupation by Irrep:
              A 
    DOCC [    45 ]

  Energy converged.

  @DF-RHF Final Energy:  -550.70850565496414

   => Energetics <=

    Nuclear Repulsion Energy =            685.6251725441697999
    One-Electron Energy =               -2121.3596824576038671
    Two-Electron Energy =                 885.0260042584699249
    DFT Exchange-Correlation Energy =       0.0000000000000000
    Empirical Dispersion Energy =           0.0000000000000000
    PCM Polarization Energy =               0.0000000000000000
    EFP Energy =                            0.0000000000000000
    Total Energy =                       -550.7085056549641422



Properties will be evaluated at   0.000000,   0.000000,   0.000000 Bohr

Properties computed using the SCF density matrix

  Nuclear Dipole Moment: (a.u.)
     X:     2.4664      Y:    -1.3094      Z:    -1.5388

  Electronic Dipole Moment: (a.u.)
     X:     0.7488      Y:    -0.3985      Z:    -0.4680

  Dipole Moment: (a.u.)
     X:     3.2153      Y:    -1.7078      Z:    -2.0068     Total:     4.1571

  Dipole Moment: (Debye)
     X:     8.1724      Y:    -4.3409      Z:    -5.1007     Total:    10.5664


*** tstop() called on gpu-2-8.local at Sun Nov 12 02:33:04 2017
Module time:
	user time   =    1042.66 seconds =      17.38 minutes
	system time =      49.60 seconds =       0.83 minutes
	total time  =        449 seconds =       7.48 minutes
Total time:
	user time   =    1042.67 seconds =      17.38 minutes
	system time =      49.60 seconds =       0.83 minutes
	total time  =        449 seconds =       7.48 minutes

  //>>>>>>>>>>>>>>>>>>>>>>>>>>>>>>>>>>>//
  //               DFMP2               //
  //<<<<<<<<<<<<<<<<<<<<<<<<<<<<<<<<<<<//

   => Loading Basis Set <=

    Name: (AUG-CC-PVTZ AUX)
    Role: RIFIT
    Keyword: DF_BASIS_MP2
    atoms 1-11  entry C          line   147 file /cbio/jclab/home/chayas/anaconda/envs/py35/share/psi4/basis/aug-cc-pvtz-ri.gbs 
    atoms 12    entry N          line   205 file /cbio/jclab/home/chayas/anaconda/envs/py35/share/psi4/basis/aug-cc-pvtz-ri.gbs 
    atoms 13    entry O          line   263 file /cbio/jclab/home/chayas/anaconda/envs/py35/share/psi4/basis/aug-cc-pvtz-ri.gbs 
    atoms 14-21 entry H          line    29 file /cbio/jclab/home/chayas/anaconda/envs/py35/share/psi4/basis/aug-cc-pvtz-ri.gbs 

	 --------------------------------------------------------
	                          DF-MP2                         
	      2nd-Order Density-Fitted Moller-Plesset Theory     
	              RMP2 Wavefunction,   8 Threads             
	                                                         
	        Rob Parrish, Justin Turney, Andy Simmonett,      
	           Ed Hohenstein, and C. David Sherrill          
	 --------------------------------------------------------

   => Auxiliary Basis Set <=

  Basis Set: (AUG-CC-PVTZ AUX)
    Blend: AUG-CC-PVTZ-RI
    Number of shells: 476
    Number of basis function: 1746
    Number of Cartesian functions: 2208
    Spherical Harmonics?: true
    Max angular momentum: 4

	 --------------------------------------------------------
	                 NBF =   782, NAUX =  1746
	 --------------------------------------------------------
	   CLASS    FOCC     OCC    AOCC    AVIR     VIR    FVIR
	   PAIRS       0      45      45     737     737       0
	 --------------------------------------------------------


         ------------------------------------------------------------
                                     CPHF                           
                                  Rob Parrish                       
         ------------------------------------------------------------

  ==> Geometry <==

    Molecular point group: c1
    Full point group: C1

    Geometry (in Angstrom), charge = -1, multiplicity = 1:

       Center              X                  Y                   Z               Mass       
    ------------   -----------------  -----------------  -----------------  -----------------
           C         -1.279031649231     0.724630450402    -0.569396691890    12.000000000000
           C         -0.286031649231     0.108630450402     1.544603308110    12.000000000000
           C         -2.357031649231     1.297630450402     0.103603308110    12.000000000000
           C         -1.364031649231     0.681630450402     2.218603308110    12.000000000000
           C          2.103968350769     0.184630450402    -0.579396691890    12.000000000000
           C          0.726968350769    -1.690369549598    -1.188396691890    12.000000000000
           C          3.144968350769    -0.427369549598    -1.260396691890    12.000000000000
           C          1.828968350769    -2.218369549598    -1.841396691890    12.000000000000
           C         -0.243031649231     0.129630450402     0.150603308110    12.000000000000
           C          0.875968350769    -0.465369549598    -0.547396691890    12.000000000000
           C         -2.400031649231     1.276630450402     1.497603308110    12.000000000000
           N          3.037968350769    -1.616369549598    -1.894396691890    14.003074004780
           O         -3.391031649231     1.802630450402     2.116603308110    15.994914619560
           H         -1.260031649231     0.749630450402    -1.656396691890     1.007825032070
           H          0.513968350769    -0.351369549598     2.119603308110     1.007825032070
           H         -3.153031649231     1.754630450402    -0.482396691890     1.007825032070
           H         -1.373031649231     0.652630450402     3.306603308110     1.007825032070
           H          2.259968350769     1.141630450402    -0.090396691890     1.007825032070
           H         -0.217031649231    -2.226369549598    -1.184396691890     1.007825032070
           H          4.122968350769     0.038630450402    -1.313396691890     1.007825032070
           H          1.763968350769    -3.170369549598    -2.357396691890     1.007825032070

  Nuclear repulsion =  685.625172544169800
  Reference energy  = -550.708505654964142

  ==> Basis Set <==

  Basis Set: AUG-CC-PVTZ
    Blend: AUG-CC-PVTZ
    Number of shells: 254
    Number of basis function: 782
    Number of Cartesian functions: 915
    Spherical Harmonics?: true
    Max angular momentum: 3

  ==> CGRSolver (by Rob Parrish) <==

   Number of roots    =         1
   Preconditioning    =    JACOBI
   Convergence cutoff =     1E-06
   Maximum iterations =       100

  ==> CPHFRHamiltonian (by Rob Parrish) <== 

  ==> DFJK: Density-Fitted J/K Matrices <==

    J tasked:                  Yes
    K tasked:                  Yes
    wK tasked:                  No
    OpenMP threads:              8
    Integrals threads:           8
    Memory (MB):              3576
    Algorithm:                Disk
    Integral Cache:           NONE
    Schwarz Cutoff:          1E-12
    Fitting Condition:       1E-12

   => Auxiliary Basis Set <=

  Basis Set: (AUG-CC-PVTZ AUX)
    Blend: AUG-CC-PVTZ-JKFIT
    Number of shells: 502
    Number of basis function: 1720
    Number of Cartesian functions: 2143
    Spherical Harmonics?: true
    Max angular momentum: 4

  ==> CPHF Iterations <==

  => Iterations <=

             Iter  Converged  Remaining    Residual
  CGR           1          0          1   1.280E-01
  CGR           2          0          1   4.766E-02
  CGR           3          0          1   2.837E-02
  CGR           4          0          1   1.035E-02
  CGR           5          0          1   4.524E-03
  CGR           6          0          1   2.321E-03
  CGR           7          0          1   6.739E-04
  CGR           8          0          1   2.140E-04
  CGR           9          0          1   8.362E-05
  CGR          10          0          1   2.568E-05
  CGR          11          0          1   1.002E-05
  CGR          12          0          1   3.402E-06
  CGR          13          0          1   1.471E-06
  CGR          14          1          0   7.083E-07

    CGRSolver converged.

  ==> DFCorrGrad: Density-Fitted Correlated Gradients <==

    OpenMP threads:              8
    Integrals threads:           8
    Memory (MB):              3576
    Schwarz Cutoff:          0E+00
    Fitting Condition:       1E-12

   => Auxiliary Basis Set <=

  Basis Set: (AUG-CC-PVTZ AUX)
    Blend: AUG-CC-PVTZ-JKFIT
    Number of shells: 502
    Number of basis function: 1720
    Number of Cartesian functions: 2143
    Spherical Harmonics?: true
    Max angular momentum: 4

	-----------------------------------------------------------
	 ==================> DF-MP2 Energies <==================== 
	-----------------------------------------------------------
	 Reference Energy          =    -550.7085056549641422 [Eh]
	 Singles Energy            =      -0.0000000000000002 [Eh]
	 Same-Spin Energy          =      -0.6132068724252560 [Eh]
	 Opposite-Spin Energy      =      -1.8374370841537797 [Eh]
	 Correlation Energy        =      -2.4506439565790363 [Eh]
	 Total Energy              =    -553.1591496115431710 [Eh]
	-----------------------------------------------------------
	 ================> DF-SCS-MP2 Energies <================== 
	-----------------------------------------------------------
	 SCS Same-Spin Scale       =       0.3333333333333333 [-]
	 SCS Opposite-Spin Scale   =       1.2000000000000000 [-]
	 SCS Same-Spin Energy      =      -0.2044022908084187 [Eh]
	 SCS Opposite-Spin Energy  =      -2.2049245009845357 [Eh]
	 SCS Correlation Energy    =      -2.4093267917929548 [Eh]
	 SCS Total Energy          =    -553.1178324467571201 [Eh]
	-----------------------------------------------------------


  -Total Gradient:
     Atom            X                  Y                   Z
    ------   -----------------  -----------------  -----------------
       1        0.012367234448    -0.002902550129    -0.005129706218
       2        0.008456738581    -0.008139832688    -0.007900999784
       3       -0.021313642424     0.010572027180     0.034243717104
       4       -0.036522541811     0.020024973110     0.002751587157
       5       -0.008899234182     0.009228807087     0.005073372011
       6       -0.011252466126     0.000439424460     0.006728712676
       7       -0.002553781931     0.010416964356     0.005472351515
       8       -0.011370606986    -0.002415317550     0.003694642741
       9       -0.000793403049     0.000363107653     0.000521746219
      10        0.008410102786    -0.004094972613    -0.004957810367
      11        0.046839446787    -0.024720269124    -0.029769592548
      12        0.009403498199    -0.005212377106    -0.006018214546
      13        0.003429839567    -0.001886793874    -0.002065051490
      14       -0.002907750886     0.001572609673    -0.002755201236
      15        0.000450202127    -0.000237196014     0.004159083939
      16       -0.002058591329     0.000897156454    -0.008792142053
      17        0.005570271254    -0.002747689922     0.006255558379
      18        0.004350290605     0.004366017410     0.001527865881
      19       -0.002978566034    -0.004737371390    -0.002124861096
      20        0.001431328729     0.000363262969     0.000120597057
      21       -0.000058368338    -0.001149979941    -0.001035655332


*** tstop() called on gpu-2-8.local at Sun Nov 12 03:00:44 2017
Module time:
	user time   =    4684.76 seconds =      78.08 minutes
	system time =     103.28 seconds =       1.72 minutes
	total time  =       2109 seconds =      35.15 minutes
Total time:
	user time   =    4684.77 seconds =      78.08 minutes
	system time =     103.28 seconds =       1.72 minutes
	total time  =       2109 seconds =      35.15 minutes

			-----------------------------------------
			 OPTKING 2.0: for geometry optimizations 
			  - R.A. King,  Bethel University        
			-----------------------------------------

	Internal coordinates to be generated automatically.
	Detected frag 1 with atoms:  1 2 3 4 5 6 7 8 9 10 11 12 13 14 15 16 17 18 19 20
	 21
	---Fragment 1 Bond Connectivity---
	 1 : 3 9 14
	 2 : 4 9 15
	 3 : 1 11 16
	 4 : 2 11 17
	 5 : 7 10 18
	 6 : 8 10 19
	 7 : 5 12 20
	 8 : 6 12 21
	 9 : 1 2 10
	 10 : 5 6 9
	 11 : 3 4 13
	 12 : 7 8
	 13 : 11
	 14 : 1
	 15 : 2
	 16 : 3
	 17 : 4
	 18 : 5
	 19 : 6
	 20 : 7
	 21 : 8

	Assuming in current code that numbering for constraints corresponds to unified fragment.
	Fixed dihedral atom list: 
	     1     9    10     5
	---Fragment 1 Geometry and Gradient---
	 C          -2.4170195323        1.3693530988       -1.0760038086
	 C          -0.5405214824        0.2052818010        2.9188772363
	 C          -4.4541443036        2.4521661730        0.1957818788
	 C          -2.5776462536        1.2880948751        4.1925526498
	 C           3.9759239752        0.3489009871       -1.0949010700
	 C           1.3737710902       -3.1943355121       -2.2457442849
	 C           5.9431288795       -0.8076114063       -2.3818045665
	 C           3.4562492887       -4.1921109103       -3.4797354497
	 C          -0.4592632587        0.2449660497        0.2845990070
	 C           1.6553402840       -0.8794209993       -1.0344298337
	 C          -4.5354025273        2.4124819242        2.8300601080
	 N           5.7409281833       -3.0544957783       -3.5798909347
	 O          -6.4081211250        3.4064778701        3.9998005843
	 H          -2.3811147358        1.4165962521       -3.1301361151
	 H           0.9712594239       -0.6639922202        4.0054697627
	 H          -5.9583663054        3.3157710157       -0.9115976351
	 H          -2.5946537888        1.2332928172        6.2485746824
	 H           4.2707212519        2.1573688962       -0.1708249910
	 H          -0.4101303792       -4.2072287193       -2.2381853804
	 H           7.7912810375        0.0730009717       -2.4819600515
	 H           3.3334170900       -5.9911301888       -4.4548341342
	             0.0123672344       -0.0029025501       -0.0051297062
	             0.0084567386       -0.0081398327       -0.0079009998
	            -0.0213136424        0.0105720272        0.0342437171
	            -0.0365225418        0.0200249731        0.0027515872
	            -0.0088992342        0.0092288071        0.0050733720
	            -0.0112524661        0.0004394245        0.0067287127
	            -0.0025537819        0.0104169644        0.0054723515
	            -0.0113706070       -0.0024153176        0.0036946427
	            -0.0007934030        0.0003631077        0.0005217462
	             0.0084101028       -0.0040949726       -0.0049578104
	             0.0468394468       -0.0247202691       -0.0297695925
	             0.0094034982       -0.0052123771       -0.0060182145
	             0.0034298396       -0.0018867939       -0.0020650515
	            -0.0029077509        0.0015726097       -0.0027552012
	             0.0004502021       -0.0002371960        0.0041590839
	            -0.0020585913        0.0008971565       -0.0087921421
	             0.0055702713       -0.0027476899        0.0062555584
	             0.0043502906        0.0043660174        0.0015278659
	            -0.0029785660       -0.0047373714       -0.0021248611
	             0.0014313287        0.0003632630        0.0001205971
	            -0.0000583683       -0.0011499799       -0.0010356553

	Previous optimization step data not found.  Starting new optimization.

	---Fragment 1 Intrafragment Coordinates---
	 - Coordinate -           - BOHR/RAD -       - ANG/DEG -
	 R(1,3)           =         2.634350	       1.394038
	 R(1,9)           =         2.635962	       1.394891
	 R(1,14)          =         2.054989	       1.087453
	 R(2,4)           =         2.635263	       1.394521
	 R(2,9)           =         2.635830	       1.394821
	 R(2,15)          =         2.054702	       1.087302
	 R(3,11)          =         2.635830	       1.394821
	 R(3,16)          =         2.057860	       1.088972
	 R(4,11)          =         2.636938	       1.395407
	 R(4,17)          =         2.056823	       1.088424
	 R(5,7)           =         2.619835	       1.386357
	 R(5,10)          =         2.626317	       1.389787
	 R(5,18)          =         2.052164	       1.085959
	 R(6,8)           =         2.618207	       1.385495
	 R(6,10)          =         2.627811	       1.390578
	 R(6,19)          =         2.051418	       1.085563
	 R(7,12)          =         2.554366	       1.351712
	 R(7,20)          =         2.049677	       1.084642
	 R(8,12)          =         2.554204	       1.351626
	 R(8,21)          =         2.049970	       1.084797
	 R(9,10)          =         2.734160	       1.446855
	 R(11,13)         =         2.421445	       1.281373
	 B(1,3,11)        =         2.094553	     120.009056
	 B(1,3,16)        =         2.069123	     118.552025
	 B(1,9,2)         =         2.093692	     119.959722
	 B(1,9,10)        =         2.095337	     120.053983
	 B(2,4,11)        =         2.093699	     119.960108
	 B(2,4,17)        =         2.069829	     118.592446
	 B(2,9,10)        =         2.094156	     119.986294
	 B(3,1,9)         =         2.094940	     120.031219
	 B(3,1,14)        =         2.079025	     119.119344
	 B(3,11,4)        =         2.094306	     119.994870
	 B(3,11,13)       =         2.094918	     120.029973
	 B(4,2,9)         =         2.095181	     120.045019
	 B(4,2,15)        =         2.079455	     119.143974
	 B(4,11,13)       =         2.093961	     119.975136
	 B(5,7,12)        =         2.164293	     124.004875
	 B(5,7,20)        =         2.107614	     120.757394
	 B(5,10,6)        =         2.089864	     119.740385
	 B(5,10,9)        =         2.096871	     120.141832
	 B(6,8,12)        =         2.165424	     124.069637
	 B(6,8,21)        =         2.107106	     120.728268
	 B(6,10,9)        =         2.096451	     120.117776
	 B(7,5,10)        =         2.058190	     117.925589
	 B(7,5,18)        =         2.097108	     120.155414
	 B(7,12,8)        =         2.031066	     116.371507
	 B(8,6,10)        =         2.057534	     117.887992
	 B(8,6,19)        =         2.100448	     120.346814
	 B(9,1,14)        =         2.109221	     120.849435
	 B(9,2,15)        =         2.108550	     120.811005
	 B(10,5,18)       =         2.127887	     121.918955
	 B(10,6,19)       =         2.125203	     121.765186
	 B(11,3,16)       =         2.119509	     121.438903
	 B(11,4,17)       =         2.119657	     121.447411
	 B(12,7,20)       =         2.011277	     115.237695
	 B(12,8,21)       =         2.010654	     115.201992
	 D(1,3,11,4)      =        -0.000325	      -0.018609
	 D(1,3,11,13)     =        -3.141004	    -179.966279
	 D(1,9,2,4)       =         0.000325	       0.018608
	 D(1,9,2,15)      =        -3.141527	    -179.996257
	 D(1,9,10,5)      =         1.832118	     104.972629
	 D(1,9,10,6)      =        -1.310007	     -75.057885
	 D(2,4,11,3)      =         0.000301	       0.017261
	 D(2,4,11,13)     =         3.140981	     179.964960
	 D(2,9,1,3)       =        -0.000348	      -0.019945
	 D(2,9,1,14)      =         3.141027	     179.967567
	 D(2,9,10,5)      =        -1.309258	     -75.014932
	 D(2,9,10,6)      =         1.831803	     104.954555
	 D(3,1,9,10)      =         3.141462	     179.992491
	 D(3,11,4,17)     =         3.140700	     179.948827
	 D(4,2,9,10)      =        -3.141485	    -179.993820
	 D(4,11,3,16)     =         3.140472	     179.935781
	 D(5,7,12,8)      =        -0.000222	      -0.012705
	 D(5,10,6,8)      =         0.000688	       0.039412
	 D(5,10,6,19)     =        -3.141447	    -179.991653
	 D(6,8,12,7)      =         0.000600	       0.034357
	 D(6,10,5,7)      =        -0.000350	      -0.020042
	 D(6,10,5,18)     =        -3.140628	    -179.944731
	 D(7,5,10,9)      =         3.140712	     179.949561
	 D(7,12,8,21)     =         3.140158	     179.917803
	 D(8,6,10,9)      =        -3.140374	    -179.930198
	 D(8,12,7,20)     =         3.140164	     179.918163
	 D(9,1,3,11)      =         0.000348	       0.019955
	 D(9,1,3,16)      =        -3.140471	    -179.935743
	 D(9,2,4,11)      =        -0.000301	      -0.017270
	 D(9,2,4,17)      =        -3.140734	    -179.950778
	 D(9,10,5,18)     =         0.000434	       0.024871
	 D(9,10,6,19)     =         0.000676	       0.038737
	 D(10,5,7,12)     =         0.000112	       0.006436
	 D(10,5,7,20)     =        -3.140210	    -179.920795
	 D(10,6,8,12)     =        -0.000842	      -0.048263
	 D(10,6,8,21)     =        -3.140294	    -179.925579
	 D(10,9,1,14)     =        -0.000349	      -0.019997
	 D(10,9,2,15)     =        -0.000152	      -0.008685
	 D(11,3,1,14)     =        -3.141030	    -179.967773
	 D(11,4,2,15)     =         3.141546	     179.997347
	 D(12,7,5,18)     =         3.140415	     179.932508
	 D(12,8,6,19)     =         3.141284	     179.982342
	 D(13,11,3,16)    =        -0.000207	      -0.011889
	 D(13,11,4,17)    =        -0.001806	      -0.103475
	 D(14,1,3,16)     =         0.001336	       0.076530
	 D(15,2,4,17)     =         0.001114	       0.063839
	 D(18,5,7,20)     =         0.000092	       0.005276
	 D(19,6,8,21)     =         0.001833	       0.105026

	Current energy   :      -553.1591496115

	Generating empirical Hessian (Schlegel '84) for each fragment.
	Adding user-defined constraint: Fragment 1; Coordinate 61:
		Value =     1.832118; Fixed value    =     1.832596
		Force =     0.000239; Force constant =     0.500000
	Removing off-diagonal coupling between coordinate 61 and others.
	Taking RFO optimization step.
	Going to follow RFO solution 1.
	Using RFO vector 1.

	Determining step-restricting scale parameter for RS-RFO.
	Maximum step size allowed    0.10000

	 Iter      |step|        alpha        rfo_root  
	------------------------------------------------
	    0     0.25425       1.00000           1
	    1     0.19376       5.45580           1
	    2     0.14319      18.74437           1
	    3     0.11427      38.02777           1
	    4     0.10242      51.86681           1
	    5     0.10009      55.25082           1
	    6     0.10000      55.38786           1
	------------------------------------------------
	Norm of target step-size    0.10000
	Projected energy change by RFO approximation:        -0.0066443492

	Back-transformation to cartesian coordinates...
	Could not converge backtransformation.
	Using first guess instead.

	--- Internal Coordinate Step in ANG or DEG, aJ/ANG or AJ/DEG ---
	 ---------------------------------------------------------------------------
	   Coordinate                Previous        Force       Change         New 
	   ----------                --------       ------       ------       ------
	    1 R(1,3)          =      1.394038    -0.020236    -0.001537     1.392501
	    2 R(1,9)          =      1.394891     0.014333     0.000807     1.395698
	    3 R(1,14)         =      1.087453    -0.022569    -0.001994     1.085459
	    4 R(2,4)          =      1.394521    -0.023285    -0.001789     1.392732
	    5 R(2,9)          =      1.394821     0.015218     0.000878     1.395699
	    6 R(2,15)         =      1.087302    -0.021676    -0.001918     1.085384
	    7 R(3,11)         =      1.394821     0.208524     0.016652     1.411473
	    8 R(3,16)         =      1.088972    -0.054479    -0.004856     1.084117
	    9 R(4,11)         =      1.395407     0.205211     0.016399     1.411807
	   10 R(4,17)         =      1.088424    -0.051741    -0.004607     1.083817
	   11 R(5,7)          =      1.386357     0.014714     0.001098     1.387455
	   12 R(5,10)         =      1.389787     0.007535     0.000877     1.390664
	   13 R(5,18)         =      1.085959    -0.042516    -0.003770     1.082189
	   14 R(6,8)          =      1.385495     0.019282     0.001450     1.386946
	   15 R(6,10)         =      1.390578     0.003942     0.000623     1.391201
	   16 R(6,19)         =      1.085563    -0.040546    -0.003593     1.081970
	   17 R(7,12)         =      1.351712    -0.108284    -0.007742     1.343970
	   18 R(7,20)         =      1.084642    -0.011870    -0.001049     1.083594
	   19 R(8,12)         =      1.351626    -0.107226    -0.007665     1.343962
	   20 R(8,21)         =      1.084797    -0.012402    -0.001096     1.083702
	   21 R(9,10)         =      1.446855     0.144251     0.012226     1.459081
	   22 R(11,13)        =      1.281373     0.036454     0.002133     1.283507
	   23 B(1,3,11)       =    120.009056     0.000762     0.983001   120.992057
	   24 B(1,3,16)       =    118.552025     0.000104     0.189387   118.741412
	   25 B(1,9,2)        =    119.959722    -0.000593    -0.842303   119.117418
	   26 B(1,9,10)       =    120.053983     0.000291     0.414030   120.468014
	   27 B(2,4,11)       =    119.960108     0.000777     0.999232   120.959340
	   28 B(2,4,17)       =    118.592446     0.000094     0.178073   118.770519
	   29 B(2,9,10)       =    119.986294     0.000302     0.428207   120.414500
	   30 B(3,1,9)        =    120.031219     0.000526     0.592880   120.624099
	   31 B(3,1,14)       =    119.119344    -0.000004     0.071385   119.190730
	   32 B(3,11,4)       =    119.994870    -0.002001    -2.325513   117.669358
	   33 B(3,11,13)      =    120.029973     0.000993     1.153152   121.183125
	   34 B(4,2,9)        =    120.045019     0.000528     0.592650   120.637669
	   35 B(4,2,15)       =    119.143974    -0.000010     0.064781   119.208755
	   36 B(4,11,13)      =    119.975136     0.001008     1.172372   121.147508
	   37 B(5,7,12)       =    124.004875     0.000079     0.062414   124.067289
	   38 B(5,7,20)       =    120.757394    -0.000050    -0.046260   120.711134
	   39 B(5,10,6)       =    119.740385    -0.001304    -1.532346   118.208039
	   40 B(5,10,9)       =    120.141832     0.000651     0.765118   120.906950
	   41 B(6,8,12)       =    124.069637     0.000057     0.035787   124.105424
	   42 B(6,8,21)       =    120.728268    -0.000038    -0.032046   120.696222
	   43 B(6,10,9)       =    120.117776     0.000653     0.767214   120.884989
	   44 B(7,5,10)       =    117.925589     0.000618     0.806099   118.731688
	   45 B(7,5,18)       =    120.155414    -0.000022     0.004033   120.159447
	   46 B(7,12,8)       =    116.371507    -0.000077    -0.190648   116.180859
	   47 B(8,6,10)       =    117.887992     0.000626     0.818671   118.706663
	   48 B(8,6,19)       =    120.346814    -0.000049    -0.034709   120.312105
	   49 B(9,1,14)       =    120.849435    -0.000522    -0.664288   120.185147
	   50 B(9,2,15)       =    120.811005    -0.000519    -0.657464   120.153541
	   51 B(10,5,18)      =    121.918955    -0.000596    -0.810119   121.108836
	   52 B(10,6,19)      =    121.765186    -0.000578    -0.783971   120.981215
	   53 B(11,3,16)      =    121.438903    -0.000866    -1.172385   120.266518
	   54 B(11,4,17)      =    121.447411    -0.000871    -1.177309   120.270103
	   55 B(12,7,20)      =    115.237695    -0.000029    -0.016118   115.221576
	   56 B(12,8,21)      =    115.201992    -0.000018    -0.003663   115.198329
	   57 D(1,3,11,4)     =     -0.018609     0.000004     0.039817     0.021208
	   58 D(1,3,11,13)    =   -179.966279     0.000003     0.021741  -179.944538
	   59 D(1,9,2,4)      =      0.018608     0.000006     0.065150     0.083757
	   60 D(1,9,2,15)     =   -179.996257    -0.000000     0.011232  -179.985025
	   61 D(1,9,10,5)     =    104.972629     0.000028     0.160476   105.133105
	   62 D(1,9,10,6)     =    -75.057885     0.000034     0.245880   -74.812004
	   63 D(2,4,11,3)     =      0.017261     0.000002     0.015791     0.033052
	   64 D(2,4,11,13)    =    179.964960     0.000004     0.033851   179.998812
	   65 D(2,9,1,3)      =     -0.019945     0.000000    -0.009529    -0.029474
	   66 D(2,9,1,14)     =    179.967567    -0.000005    -0.054095   179.913472
	   67 D(2,9,10,5)     =    -75.014932     0.000034     0.243592   -74.771339
	   68 D(2,9,10,6)     =    104.954555     0.000041     0.328997   105.283552
	   69 D(3,1,9,10)     =    179.992491     0.000007     0.072361   180.064853
	   70 D(3,11,4,17)    =    179.948827     0.000002     0.012473   179.961300
	   71 D(4,2,9,10)     =   -179.993820    -0.000000    -0.016698  -180.010518
	   72 D(4,11,3,16)    =    179.935781     0.000005     0.043520   179.979301
	   73 D(5,7,12,8)     =     -0.012705    -0.000001    -0.009762    -0.022468
	   74 D(5,10,6,8)     =      0.039412     0.000001     0.018787     0.058198
	   75 D(5,10,6,19)    =   -179.991653    -0.000001     0.003433  -179.988220
	   76 D(6,8,12,7)     =      0.034357    -0.000003    -0.028641     0.005717
	   77 D(6,10,5,7)     =     -0.020042    -0.000005    -0.053299    -0.073341
	   78 D(6,10,5,18)    =   -179.944731    -0.000006    -0.066053  -180.010784
	   79 D(7,5,10,9)     =    179.949561     0.000002     0.030555   179.980115
	   80 D(7,12,8,21)    =    179.917803     0.000004     0.029794   179.947597
	   81 D(8,6,10,9)     =   -179.930198    -0.000006    -0.065047  -179.995245
	   82 D(8,12,7,20)    =    179.918163     0.000006     0.058257   179.976420
	   83 D(9,1,3,11)     =      0.019955    -0.000005    -0.042923    -0.022968
	   84 D(9,1,3,16)     =   -179.935743    -0.000006    -0.045944  -179.981687
	   85 D(9,2,4,11)     =     -0.017270    -0.000007    -0.069189    -0.086459
	   86 D(9,2,4,17)     =   -179.950778    -0.000007    -0.064984  -180.015762
	   87 D(9,10,5,18)    =      0.024871    -0.000000     0.017801     0.042672
	   88 D(9,10,6,19)    =      0.038737    -0.000007    -0.080401    -0.041664
	   89 D(10,5,7,12)    =      0.006436     0.000005     0.051211     0.057647
	   90 D(10,5,7,20)    =   -179.920795    -0.000003    -0.020387  -179.941182
	   91 D(10,6,8,12)    =     -0.048263     0.000003     0.023412    -0.024851
	   92 D(10,6,8,21)    =   -179.925579    -0.000004    -0.038115  -179.963693
	   93 D(10,9,1,14)    =     -0.019997     0.000001     0.027795     0.007798
	   94 D(10,9,2,15)    =     -0.008685    -0.000006    -0.070615    -0.079299
	   95 D(11,3,1,14)    =   -179.967773    -0.000000     0.001298  -179.966475
	   96 D(11,4,2,15)    =    179.997347    -0.000001    -0.015668   179.981679
	   97 D(12,7,5,18)    =    179.932508     0.000007     0.063193   179.995701
	   98 D(12,8,6,19)    =    179.982342     0.000005     0.038905   180.021247
	   99 D(13,11,3,16)   =     -0.011889     0.000003     0.025444     0.013555
	  100 D(13,11,4,17)   =     -0.103475     0.000004     0.030534    -0.072941
	  101 D(14,1,3,16)    =      0.076530    -0.000000    -0.001724     0.074805
	  102 D(15,2,4,17)    =      0.063839    -0.000001    -0.011463     0.052376
	  103 D(18,5,7,20)    =      0.005276    -0.000001    -0.008405    -0.003129
	  104 D(19,6,8,21)    =      0.105026    -0.000003    -0.022621     0.082405
	 ---------------------------------------------------------------------------
	Successfully symmetrized geometry.
	 Forces used to impose fixed constraints are not included.
	  Forces zeroed: 61 

  ==> Convergence Check <==

  Measures of convergence in internal coordinates in au.
  Criteria marked as inactive (o), active & met (*), and active & unmet ( ).
  --------------------------------------------------------------------------------------------- ~
   Step     Total Energy     Delta E     MAX Force     RMS Force      MAX Disp      RMS Disp    ~
  --------------------------------------------------------------------------------------------- ~
    Convergence Criteria    1.00e-06 *    3.00e-04 *             o    1.20e-03 *             o  ~
  --------------------------------------------------------------------------------------------- ~
      1    -553.15914961   -5.53e+02      2.63e-02      6.66e-03 o    4.06e-02      9.79e-03 o  ~
  ---------------------------------------------------------------------------------------------

	Writing optimization data to binary file.
	Structure for next step:
	Cartesian Geometry (in Angstrom)
	    C    -1.2902557486   0.7269400827  -0.5579220385
	    C    -0.2989331496   0.1182624207   1.5488564206
	    C    -2.3683775187   1.3015464121   0.1103136965
	    C    -1.3739835506   0.6896382700   2.2252424910
	    C     2.1166002877   0.1672460242  -0.5900572988
	    C     0.7487762069  -1.6919686885  -1.1989259799
	    C     3.1590927333  -0.4439581544  -1.2717250749
	    C     1.8511623645  -2.2207314649  -1.8537336169
	    C    -0.2481817330   0.1311005496   0.1541391688
	    C     0.8805444209  -0.4687302357  -0.5494925864
	    C    -2.4360511003   1.2963186474   1.5201540404
	    N     3.0545528532  -1.6245618419  -1.9053662907
	    O    -3.4285422757   1.8239364551   2.1398075845
	    H    -1.2678047490   0.7479438084  -1.6429459387
	    H     0.5024568343  -0.3403495377   2.1193890844
	    H    -3.1612209341   1.7557742280  -0.4731117886
	    H    -1.3825790251   0.6624150934   3.3086833368
	    H     2.2713770410   1.1202358684  -0.1011942411
	    H    -0.1925004954  -2.2254941795  -1.1961115743
	    H     4.1357353482   0.0226544236  -1.3228844955
	    H     1.7844675563  -3.1709787229  -2.3704454285
			--------------------------
			 OPTKING Finished Execution 
			--------------------------

    Structure for next step:
    Molecular point group: c1
    Full point group: C1

    Geometry (in Angstrom), charge = -1, multiplicity = 1:

    C           -1.287489602804     0.725447420931    -0.559659588585
    C           -0.296167003756     0.116769758961     1.547118870445
    C           -2.365611372909     1.300053750309     0.108576146385
    C           -1.371217404764     0.688145608221     2.223504940930
    C            2.119366433555     0.165753362430    -0.591794848963
    C            0.751542352695    -1.693461350262    -1.200663529998
    C            3.161858879120    -0.445450816137    -1.273462624977
    C            1.853928510292    -2.222224126702    -1.855471167056
    C           -0.245415587187     0.129607887861     0.152401618709
    C            0.883310566746    -0.470222897479    -0.551230136482
    C           -2.433284954462     1.294825985629     1.518416490299
    N            3.057318999016    -1.626054503694    -1.907103840810
    O           -3.425776129858     1.822443793276     2.138070034357
    H           -1.265038603202     0.746451146640    -1.644683488849
    H            0.505222980085    -0.341842199488     2.117651534303
    H           -3.158454788233     1.754281566237    -0.474849338708
    H           -1.379812879297     0.660922431663     3.306945786677
    H            2.274143186840     1.118743206598    -0.102931791180
    H           -0.189734349562    -2.226986841265    -1.197849124374
    H            4.138501493984     0.021161761855    -1.324622045662
    H            1.787233702140    -3.172471384643    -2.372182978612

gradient() will perform analytic gradient computation.

*** tstart() called on gpu-2-8.local
*** at Sun Nov 12 03:00:46 2017

    SCF Algorithm Type (re)set to DF.

*** tstart() called on gpu-2-8.local
*** at Sun Nov 12 03:00:46 2017

   => Loading Basis Set <=

    Name: AUG-CC-PVTZ
    Role: ORBITAL
    Keyword: BASIS
    atoms 1-11  entry C          line   221 file /cbio/jclab/home/chayas/anaconda/envs/py35/share/psi4/basis/aug-cc-pvtz.gbs 
    atoms 12    entry N          line   267 file /cbio/jclab/home/chayas/anaconda/envs/py35/share/psi4/basis/aug-cc-pvtz.gbs 
    atoms 13    entry O          line   313 file /cbio/jclab/home/chayas/anaconda/envs/py35/share/psi4/basis/aug-cc-pvtz.gbs 
    atoms 14-21 entry H          line    34 file /cbio/jclab/home/chayas/anaconda/envs/py35/share/psi4/basis/aug-cc-pvtz.gbs 


         ---------------------------------------------------------
                                   SCF
            by Justin Turney, Rob Parrish, and Andy Simmonett
                              RHF Reference
                        8 Threads,   4768 MiB Core
         ---------------------------------------------------------

  ==> Geometry <==

    Molecular point group: c1
    Full point group: C1

    Geometry (in Angstrom), charge = -1, multiplicity = 1:

       Center              X                  Y                   Z               Mass       
    ------------   -----------------  -----------------  -----------------  -----------------
           C         -1.287489602804     0.725447420931    -0.559659588585    12.000000000000
           C         -0.296167003756     0.116769758961     1.547118870445    12.000000000000
           C         -2.365611372909     1.300053750309     0.108576146385    12.000000000000
           C         -1.371217404764     0.688145608221     2.223504940930    12.000000000000
           C          2.119366433555     0.165753362430    -0.591794848963    12.000000000000
           C          0.751542352695    -1.693461350262    -1.200663529998    12.000000000000
           C          3.161858879120    -0.445450816137    -1.273462624977    12.000000000000
           C          1.853928510292    -2.222224126702    -1.855471167056    12.000000000000
           C         -0.245415587187     0.129607887861     0.152401618709    12.000000000000
           C          0.883310566746    -0.470222897479    -0.551230136482    12.000000000000
           C         -2.433284954462     1.294825985629     1.518416490299    12.000000000000
           N          3.057318999016    -1.626054503694    -1.907103840810    14.003074004780
           O         -3.425776129858     1.822443793276     2.138070034357    15.994914619560
           H         -1.265038603202     0.746451146640    -1.644683488849     1.007825032070
           H          0.505222980085    -0.341842199488     2.117651534303     1.007825032070
           H         -3.158454788233     1.754281566237    -0.474849338708     1.007825032070
           H         -1.379812879297     0.660922431663     3.306945786677     1.007825032070
           H          2.274143186840     1.118743206598    -0.102931791180     1.007825032070
           H         -0.189734349562    -2.226986841265    -1.197849124374     1.007825032070
           H          4.138501493984     0.021161761855    -1.324622045662     1.007825032070
           H          1.787233702140    -3.172471384643    -2.372182978612     1.007825032070

  Running in c1 symmetry.

  Rotational constants: A =      0.09819  B =      0.01314  C =      0.01269 [cm^-1]
  Rotational constants: A =   2943.54952  B =    393.84300  C =    380.41278 [MHz]
  Nuclear repulsion =  683.193054038966807

  Charge       = -1
  Multiplicity = 1
  Electrons    = 90
  Nalpha       = 45
  Nbeta        = 45

  ==> Algorithm <==

  SCF Algorithm Type is DF.
  DIIS enabled.
  MOM disabled.
  Fractional occupation disabled.
  Guess Type is READ.
  Energy threshold   = 1.00e-10
  Density threshold  = 1.00e-10
  Integral threshold = 0.00e+00

  ==> Primary Basis <==

  Basis Set: AUG-CC-PVTZ
    Blend: AUG-CC-PVTZ
    Number of shells: 254
    Number of basis function: 782
    Number of Cartesian functions: 915
    Spherical Harmonics?: true
    Max angular momentum: 3

   => Loading Basis Set <=

    Name: (AUG-CC-PVTZ AUX)
    Role: JKFIT
    Keyword: DF_BASIS_SCF
    atoms 1-11  entry C          line   161 file /cbio/jclab/home/chayas/anaconda/envs/py35/share/psi4/basis/aug-cc-pvtz-jkfit.gbs 
    atoms 12    entry N          line   223 file /cbio/jclab/home/chayas/anaconda/envs/py35/share/psi4/basis/aug-cc-pvtz-jkfit.gbs 
    atoms 13    entry O          line   285 file /cbio/jclab/home/chayas/anaconda/envs/py35/share/psi4/basis/aug-cc-pvtz-jkfit.gbs 
    atoms 14-21 entry H          line    69 file /cbio/jclab/home/chayas/anaconda/envs/py35/share/psi4/basis/aug-cc-pvtz-jkfit.gbs 

  Reading orbitals from file 180, no projection.

  ==> Pre-Iterations <==

   -------------------------------------------------------
    Irrep   Nso     Nmo     Nalpha   Nbeta   Ndocc  Nsocc
   -------------------------------------------------------
     A        782     782       0       0       0       0
   -------------------------------------------------------
    Total     782     782      45      45      45       0
   -------------------------------------------------------

  ==> Integral Setup <==

  ==> DFJK: Density-Fitted J/K Matrices <==

    J tasked:                  Yes
    K tasked:                  Yes
    wK tasked:                  No
    OpenMP threads:              8
    Integrals threads:           8
    Memory (MB):              3576
    Algorithm:                Disk
    Integral Cache:           NONE
    Schwarz Cutoff:          1E-12
    Fitting Condition:       1E-12

   => Auxiliary Basis Set <=

  Basis Set: (AUG-CC-PVTZ AUX)
    Blend: AUG-CC-PVTZ-JKFIT
    Number of shells: 502
    Number of basis function: 1720
    Number of Cartesian functions: 2143
    Spherical Harmonics?: true
    Max angular momentum: 4

  Minimum eigenvalue in the overlap matrix is 7.7566080337E-07.
  Using Symmetric Orthogonalization.

  SCF Guess: Orbitals guess was supplied from a previous computation.

  ==> Iterations <==

                           Total Energy        Delta E     RMS |[F,P]|

   @DF-RHF iter   0:  -550.79560129946799   -5.50796e+02   4.52093e-04 
   @DF-RHF iter   1:  -550.71431776747124    8.12835e-02   1.05136e-04 
   @DF-RHF iter   2:  -550.71469248563790   -3.74718e-04   7.74598e-05 DIIS
   @DF-RHF iter   3:  -550.71498337639810   -2.90891e-04   8.71079e-06 DIIS
   @DF-RHF iter   4:  -550.71498877821602   -5.40182e-06   3.76562e-06 DIIS
   @DF-RHF iter   5:  -550.71499016858775   -1.39037e-06   1.14726e-06 DIIS
   @DF-RHF iter   6:  -550.71499041951597   -2.50928e-07   7.59512e-07 DIIS
   @DF-RHF iter   7:  -550.71499050937041   -8.98544e-08   3.63812e-07 DIIS
   @DF-RHF iter   8:  -550.71499053992488   -3.05545e-08   1.29778e-07 DIIS
   @DF-RHF iter   9:  -550.71499054433127   -4.40639e-09   5.69855e-08 DIIS
   @DF-RHF iter  10:  -550.71499054494370   -6.12431e-10   1.36574e-08 DIIS
   @DF-RHF iter  11:  -550.71499054498111   -3.74030e-11   6.07634e-09 DIIS
   @DF-RHF iter  12:  -550.71499054500077   -1.96678e-11   2.08767e-09 DIIS
   @DF-RHF iter  13:  -550.71499054499486    5.91172e-12   8.55722e-10 DIIS
   @DF-RHF iter  14:  -550.71499054499282    2.04636e-12   3.72193e-10 DIIS
   @DF-RHF iter  15:  -550.71499054500873   -1.59162e-11   1.77591e-10 DIIS
   @DF-RHF iter  16:  -550.71499054500759    1.13687e-12   4.03806e-11 DIIS

  ==> Post-Iterations <==

    Orbital Energies (a.u.)
    -----------------------

    Doubly Occupied:                                                      

       1A    -20.290690     2A    -15.462930     3A    -11.172818  
       4A    -11.172742     5A    -11.147517     6A    -11.127807  
       7A    -11.127759     8A    -11.111669     9A    -11.093908  
      10A    -11.093877    11A    -11.072647    12A    -11.054934  
      13A    -11.054907    14A     -1.152586    15A     -1.118498  
      16A     -1.016815    17A     -0.957683    18A     -0.929737  
      19A     -0.859615    20A     -0.834328    21A     -0.751909  
      22A     -0.735373    23A     -0.674652    24A     -0.646506  
      25A     -0.595497    26A     -0.559396    27A     -0.547144  
      28A     -0.506070    29A     -0.493904    30A     -0.485865  
      31A     -0.477483    32A     -0.435878    33A     -0.431461  
      34A     -0.416509    35A     -0.405640    36A     -0.366349  
      37A     -0.352968    38A     -0.349594    39A     -0.316233  
      40A     -0.284003    41A     -0.261184    42A     -0.247049  
      43A     -0.206605    44A     -0.191822    45A     -0.104525  

    Virtual:                                                              

      46A      0.096527    47A      0.099065    48A      0.115702  
      49A      0.116655    50A      0.124580    51A      0.124710  
      52A      0.131554    53A      0.131907    54A      0.160742  
      55A      0.165914    56A      0.180973    57A      0.183782  
      58A      0.184298    59A      0.185682    60A      0.189271  
      61A      0.193262    62A      0.193437    63A      0.200771  
      64A      0.205589    65A      0.208442    66A      0.211861  
      67A      0.217414    68A      0.221493    69A      0.223013  
      70A      0.227186    71A      0.228402    72A      0.230278  
      73A      0.231319    74A      0.237832    75A      0.242426  
      76A      0.246090    77A      0.250321    78A      0.258121  
      79A      0.261283    80A      0.265234    81A      0.269018  
      82A      0.272311    83A      0.286878    84A      0.291395  
      85A      0.297153    86A      0.301543    87A      0.305861  
      88A      0.307726    89A      0.315780    90A      0.319264  
      91A      0.322133    92A      0.332561    93A      0.334933  
      94A      0.337381    95A      0.340355    96A      0.341922  
      97A      0.349630    98A      0.356413    99A      0.358812  
     100A      0.360646   101A      0.368690   102A      0.369967  
     103A      0.376764   104A      0.391540   105A      0.393065  
     106A      0.395303   107A      0.397177   108A      0.398461  
     109A      0.405705   110A      0.410000   111A      0.411588  
     112A      0.415662   113A      0.420578   114A      0.422574  
     115A      0.425513   116A      0.427267   117A      0.447033  
     118A      0.452177   119A      0.454186   120A      0.456274  
     121A      0.461010   122A      0.465902   123A      0.471248  
     124A      0.471659   125A      0.478541   126A      0.486207  
     127A      0.492281   128A      0.503568   129A      0.504002  
     130A      0.508899   131A      0.511668   132A      0.519761  
     133A      0.520226   134A      0.530221   135A      0.538891  
     136A      0.544755   137A      0.544843   138A      0.553128  
     139A      0.556412   140A      0.561410   141A      0.563774  
     142A      0.567387   143A      0.575413   144A      0.578500  
     145A      0.579364   146A      0.580275   147A      0.586353  
     148A      0.589807   149A      0.591563   150A      0.594319  
     151A      0.596436   152A      0.599604   153A      0.604014  
     154A      0.610562   155A      0.614402   156A      0.620815  
     157A      0.621205   158A      0.622570   159A      0.623371  
     160A      0.628833   161A      0.638793   162A      0.640408  
     163A      0.640895   164A      0.648439   165A      0.662899  
     166A      0.666916   167A      0.667811   168A      0.674694  
     169A      0.676433   170A      0.677301   171A      0.683343  
     172A      0.688368   173A      0.691692   174A      0.696445  
     175A      0.708140   176A      0.712345   177A      0.714955  
     178A      0.716278   179A      0.723019   180A      0.726258  
     181A      0.739313   182A      0.740247   183A      0.744036  
     184A      0.755701   185A      0.761005   186A      0.762976  
     187A      0.771527   188A      0.783065   189A      0.784550  
     190A      0.792971   191A      0.798949   192A      0.799441  
     193A      0.815824   194A      0.819740   195A      0.828166  
     196A      0.829690   197A      0.835855   198A      0.841989  
     199A      0.852382   200A      0.853789   201A      0.854638  
     202A      0.857622   203A      0.861138   204A      0.867192  
     205A      0.867755   206A      0.875879   207A      0.884774  
     208A      0.893613   209A      0.899553   210A      0.906375  
     211A      0.909243   212A      0.910010   213A      0.920840  
     214A      0.924320   215A      0.935049   216A      0.938459  
     217A      0.959495   218A      0.961502   219A      0.969271  
     220A      0.977982   221A      0.988346   222A      0.993676  
     223A      0.996226   224A      1.010346   225A      1.016479  
     226A      1.018782   227A      1.019674   228A      1.022264  
     229A      1.022357   230A      1.023752   231A      1.031863  
     232A      1.037680   233A      1.038008   234A      1.040281  
     235A      1.051196   236A      1.055003   237A      1.058746  
     238A      1.062225   239A      1.063313   240A      1.065790  
     241A      1.069800   242A      1.081829   243A      1.083039  
     244A      1.086600   245A      1.086884   246A      1.098599  
     247A      1.101076   248A      1.102931   249A      1.110931  
     250A      1.110959   251A      1.120958   252A      1.121700  
     253A      1.130908   254A      1.139478   255A      1.143324  
     256A      1.143671   257A      1.148476   258A      1.151506  
     259A      1.156306   260A      1.162998   261A      1.166947  
     262A      1.169776   263A      1.175651   264A      1.187955  
     265A      1.191029   266A      1.194002   267A      1.200127  
     268A      1.207019   269A      1.212916   270A      1.213913  
     271A      1.217854   272A      1.220134   273A      1.229690  
     274A      1.237078   275A      1.240915   276A      1.246161  
     277A      1.250460   278A      1.253203   279A      1.264851  
     280A      1.267555   281A      1.273992   282A      1.280413  
     283A      1.283720   284A      1.291323   285A      1.291358  
     286A      1.297596   287A      1.299856   288A      1.307456  
     289A      1.316891   290A      1.319250   291A      1.324281  
     292A      1.328759   293A      1.334664   294A      1.337291  
     295A      1.342409   296A      1.342747   297A      1.346920  
     298A      1.356022   299A      1.357472   300A      1.372834  
     301A      1.380056   302A      1.384255   303A      1.386046  
     304A      1.393037   305A      1.406461   306A      1.409218  
     307A      1.409554   308A      1.413490   309A      1.424796  
     310A      1.429417   311A      1.438608   312A      1.439118  
     313A      1.447552   314A      1.448740   315A      1.459246  
     316A      1.469385   317A      1.476182   318A      1.495473  
     319A      1.498486   320A      1.513412   321A      1.514631  
     322A      1.518474   323A      1.520679   324A      1.532669  
     325A      1.538820   326A      1.549586   327A      1.550316  
     328A      1.568542   329A      1.573579   330A      1.579608  
     331A      1.583572   332A      1.589694   333A      1.604497  
     334A      1.606931   335A      1.622232   336A      1.633613  
     337A      1.642812   338A      1.654322   339A      1.656273  
     340A      1.672921   341A      1.674050   342A      1.680981  
     343A      1.684963   344A      1.690218   345A      1.697771  
     346A      1.702501   347A      1.711457   348A      1.734405  
     349A      1.735600   350A      1.746199   351A      1.749806  
     352A      1.757971   353A      1.767888   354A      1.770399  
     355A      1.789634   356A      1.790786   357A      1.812239  
     358A      1.813753   359A      1.817742   360A      1.820919  
     361A      1.836221   362A      1.837715   363A      1.839351  
     364A      1.842717   365A      1.845842   366A      1.865944  
     367A      1.879418   368A      1.879899   369A      1.886638  
     370A      1.890715   371A      1.894531   372A      1.907459  
     373A      1.916688   374A      1.927892   375A      1.940788  
     376A      1.946230   377A      1.948156   378A      1.969608  
     379A      1.976486   380A      1.983416   381A      1.994240  
     382A      2.000428   383A      2.006862   384A      2.012134  
     385A      2.018549   386A      2.020468   387A      2.039813  
     388A      2.047513   389A      2.050532   390A      2.074844  
     391A      2.077634   392A      2.080637   393A      2.088228  
     394A      2.088663   395A      2.099683   396A      2.105798  
     397A      2.106523   398A      2.112758   399A      2.139213  
     400A      2.150814   401A      2.154755   402A      2.158679  
     403A      2.160427   404A      2.163645   405A      2.178177  
     406A      2.183957   407A      2.185238   408A      2.199611  
     409A      2.210785   410A      2.213037   411A      2.216331  
     412A      2.237460   413A      2.238856   414A      2.252603  
     415A      2.259859   416A      2.264406   417A      2.271644  
     418A      2.278319   419A      2.289036   420A      2.300941  
[...]
	 B(5,10,9)        =         2.129360	     122.003323
	 B(6,8,12)        =         2.163140	     123.938784
	 B(6,8,21)        =         2.095306	     120.052177
	 B(6,10,9)        =         2.133418	     122.235843
	 B(7,5,10)        =         2.100020	     120.322281
	 B(7,5,18)        =         2.101000	     120.378406
	 B(7,12,8)        =         2.023066	     115.913169
	 B(8,6,10)        =         2.100782	     120.365926
	 B(8,6,19)        =         2.099965	     120.319118
	 B(9,1,14)        =         2.074153	     118.840202
	 B(9,2,15)        =         2.074411	     118.855015
	 B(10,5,18)       =         2.082166	     119.299311
	 B(10,6,19)       =         2.082407	     119.313141
	 B(11,3,16)       =         2.041267	     116.955999
	 B(11,4,17)       =         2.040964	     116.938638
	 B(12,7,20)       =         2.024499	     115.995230
	 B(12,8,21)       =         2.024731	     116.008567
	 D(1,3,11,4)      =         0.022753	       1.303629
	 D(1,3,11,13)     =        -3.127203	    -179.175511
	 D(1,9,2,4)       =         0.064499	       3.695497
	 D(1,9,2,15)      =        -3.101153	    -177.682965
	 D(1,9,10,5)      =         1.840528	     105.454512
	 D(1,9,10,6)      =        -1.185601	     -67.929947
	 D(2,4,11,3)      =        -0.006692	      -0.383444
	 D(2,4,11,13)     =        -3.139926	    -179.904503
	 D(2,9,1,3)       =        -0.048587	      -2.783849
	 D(2,9,1,14)      =         3.083720	     176.684135
	 D(2,9,10,5)      =        -1.120721	     -64.212606
	 D(2,9,10,6)      =         2.136334	     122.402935
	 D(3,1,9,10)      =        -3.017663	    -172.899373
	 D(3,11,4,17)     =         3.131241	     179.406888
	 D(4,2,9,10)      =         3.032179	     173.731075
	 D(4,11,3,16)     =        -3.107542	    -178.049033
	 D(5,7,12,8)      =        -0.001301	      -0.074529
	 D(5,10,6,8)      =         0.030719	       1.760066
	 D(5,10,6,19)     =        -3.119398	    -178.728334
	 D(6,8,12,7)      =        -0.010703	      -0.613255
	 D(6,10,5,7)      =        -0.041792	      -2.394518
	 D(6,10,5,18)     =         3.100099	     177.622591
	 D(7,5,10,9)      =        -3.075246	    -176.198640
	 D(7,12,8,21)     =         3.135261	     179.637214
	 D(8,6,10,9)      =         3.063896	     175.548321
	 D(8,12,7,20)     =        -3.122102	    -178.883241
	 D(9,1,3,11)      =         0.005103	       0.292394
	 D(9,1,3,16)      =         3.135076	     179.626645
	 D(9,2,4,11)      =        -0.037791	      -2.165274
	 D(9,2,4,17)      =         3.107569	     178.050593
	 D(9,10,5,18)     =         0.066645	       3.818469
	 D(9,10,6,19)     =        -0.086221	      -4.940079
	 D(10,5,7,12)     =         0.028860	       1.653578
	 D(10,5,7,20)     =        -3.134319	    -179.583241
	 D(10,6,8,12)     =        -0.004878	      -0.279511
	 D(10,6,8,21)     =         3.132175	     179.460424
	 D(10,9,1,14)     =         0.114644	       6.568611
	 D(10,9,2,15)     =        -0.133472	      -7.647388
	 D(11,3,1,14)     =        -3.127142	    -179.172061
	 D(11,4,2,15)     =         3.127995	     179.220927
	 D(12,7,5,18)     =        -3.113034	    -178.363717
	 D(12,8,6,19)     =        -3.137861	    -179.786172
	 D(13,11,3,16)    =         0.025688	       1.471827
	 D(13,11,4,17)    =        -0.001993	      -0.114171
	 D(14,1,3,16)     =         0.002831	       0.162190
	 D(15,2,4,17)     =        -0.009830	      -0.563206
	 D(18,5,7,20)     =         0.006972	       0.399464
	 D(19,6,8,21)     =        -0.000807	      -0.046237

	Current energy   :      -553.1687069799

	Energy change for the previous step:
		Projected    :        -0.0000061995
		Actual       :        -0.0000288388

	Performing BFGS update.
	Previous computed or guess Hessian on step 1.
	Steps to be used in Hessian update: 20 19
	Adding user-defined constraint: Fragment 1; Coordinate 61:
		Value =     1.840528; Fixed value    =     1.832600
		Force =    -0.007928; Force constant =     1.000000
	Removing off-diagonal coupling between coordinate 61 and others.
	Taking RFO optimization step.
	Going to follow RFO solution 1.
	Rejecting RFO root 1 because normalization gives large value.
	Using RFO vector 2.
	Norm of target step-size    0.00146
	Projected energy change by RFO approximation:        -0.0000003062

	Back-transformation to cartesian coordinates...
	Successfully converged to displaced geometry.

	--- Internal Coordinate Step in ANG or DEG, aJ/ANG or AJ/DEG ---
	 ---------------------------------------------------------------------------
	   Coordinate                Previous        Force       Change         New 
	   ----------                --------       ------       ------       ------
	    1 R(1,3)          =      1.381511    -0.000224    -0.000030     1.381481
	    2 R(1,9)          =      1.399727    -0.000085    -0.000008     1.399720
	    3 R(1,14)         =      1.084182     0.000036     0.000004     1.084186
	    4 R(2,4)          =      1.381339    -0.000187    -0.000025     1.381314
	    5 R(2,9)          =      1.399628    -0.000246    -0.000033     1.399595
	    6 R(2,15)         =      1.084174     0.000095     0.000016     1.084190
	    7 R(3,11)         =      1.434014    -0.000099    -0.000016     1.433998
	    8 R(3,16)         =      1.082055    -0.000018    -0.000007     1.082049
	    9 R(4,11)         =      1.434258    -0.000056    -0.000008     1.434251
	   10 R(4,17)         =      1.082136    -0.000056    -0.000015     1.082120
	   11 R(5,7)          =      1.385628    -0.000105    -0.000015     1.385613
	   12 R(5,10)         =      1.395920    -0.000136    -0.000018     1.395902
	   13 R(5,18)         =      1.080029     0.000088     0.000013     1.080042
	   14 R(6,8)          =      1.385971    -0.000106    -0.000015     1.385956
	   15 R(6,10)         =      1.395543    -0.000375    -0.000051     1.395492
	   16 R(6,19)         =      1.080110     0.000157     0.000026     1.080136
	   17 R(7,12)         =      1.338159    -0.000186    -0.000026     1.338133
	   18 R(7,20)         =      1.082472    -0.000053    -0.000010     1.082462
	   19 R(8,12)         =      1.337430    -0.000024    -0.000004     1.337426
	   20 R(8,21)         =      1.082558    -0.000109    -0.000022     1.082536
	   21 R(9,10)         =      1.457797    -0.000173    -0.000024     1.457773
	   22 R(11,13)        =      1.266910    -0.000475    -0.000039     1.266872
	   23 B(1,3,11)       =    123.118942     0.000000     0.001275   123.120218
	   24 B(1,3,16)       =    119.921909    -0.000000    -0.000851   119.921058
	   25 B(1,9,2)        =    117.003934     0.000002     0.002640   117.006574
	   26 B(1,9,10)       =    120.736025     0.000000     0.000610   120.736635
	   27 B(2,4,11)       =    123.045520     0.000001     0.002816   123.048336
	   28 B(2,4,17)       =    120.015511    -0.000000    -0.001782   120.013729
	   29 B(2,9,10)       =    121.493026    -0.000001    -0.004531   121.488494
	   30 B(3,1,9)        =    121.639246    -0.000001    -0.001605   121.637641
	   31 B(3,1,14)       =    119.518436     0.000000    -0.001780   119.516656
	   32 B(3,11,4)       =    113.395236    -0.000000    -0.002294   113.392942
	   33 B(3,11,13)      =    123.319682    -0.000000     0.000187   123.319869
	   34 B(4,2,9)        =    121.700666    -0.000001    -0.002989   121.697677
	   35 B(4,2,15)       =    119.430131     0.000000    -0.000870   119.429261
	   36 B(4,11,13)      =    123.283244     0.000000     0.001803   123.285047
	   37 B(5,7,12)       =    123.962201    -0.000000    -0.000290   123.961911
	   38 B(5,7,20)       =    120.031904     0.000000     0.001551   120.033455
	   39 B(5,10,6)       =    115.457370     0.000002     0.004821   115.462191
	   40 B(5,10,9)       =    122.003323    -0.000001    -0.001321   122.002002
	   41 B(6,8,12)       =    123.938784     0.000001     0.003256   123.942041
	   42 B(6,8,21)       =    120.052177    -0.000000    -0.000983   120.051194
	   43 B(6,10,9)       =    122.235843    -0.000001    -0.002052   122.233791
	   44 B(7,5,10)       =    120.322281    -0.000001    -0.001845   120.320436
	   45 B(7,5,18)       =    120.378406     0.000000    -0.000107   120.378299
	   46 B(7,12,8)       =    115.913169    -0.000000    -0.001151   115.912017
	   47 B(8,6,10)       =    120.365926    -0.000002    -0.004916   120.361010
	   48 B(8,6,19)       =    120.319118     0.000001     0.002156   120.321275
	   49 B(9,1,14)       =    118.840202     0.000001     0.003212   118.843414
	   50 B(9,2,15)       =    118.855015     0.000001     0.003944   118.858960
	   51 B(10,5,18)      =    119.299311     0.000001     0.001952   119.301263
	   52 B(10,6,19)      =    119.313141     0.000001     0.002733   119.315875
	   53 B(11,3,16)      =    116.955999    -0.000000    -0.000422   116.955577
	   54 B(11,4,17)      =    116.938638    -0.000000    -0.001050   116.937588
	   55 B(12,7,20)      =    115.995230    -0.000000    -0.001184   115.994046
	   56 B(12,8,21)      =    116.008567    -0.000001    -0.002359   116.006208
	   57 D(1,3,11,4)     =      1.303629     0.000000     0.018711     1.322340
	   58 D(1,3,11,13)    =   -179.175511    -0.000000    -0.019353  -179.194865
	   59 D(1,9,2,4)      =      3.695497    -0.000001    -0.000428     3.695070
	   60 D(1,9,2,15)     =   -177.682965    -0.000001     0.003705  -177.679260
	   61 D(1,9,10,5)     =    105.454512     0.000004     0.009778   105.464290
	   62 D(1,9,10,6)     =    -67.929947     0.000003    -0.006282   -67.936228
	   63 D(2,4,11,3)     =     -0.383444    -0.000000    -0.011766    -0.395209
	   64 D(2,4,11,13)    =   -179.904503     0.000000     0.026292  -179.878211
	   65 D(2,9,1,3)      =     -2.783849     0.000001     0.007184    -2.776665
	   66 D(2,9,1,14)     =    176.684135     0.000000    -0.014087   176.670048
	   67 D(2,9,10,5)     =    -64.212606     0.000003     0.018058   -64.194548
	   68 D(2,9,10,6)     =    122.402935     0.000001     0.001999   122.404934
	   69 D(3,1,9,10)     =   -172.899373    -0.000001     0.015816  -172.883557
	   70 D(3,11,4,17)    =    179.406888     0.000000    -0.016709   179.390180
	   71 D(4,2,9,10)     =    173.731075     0.000001    -0.008579   173.722495
	   72 D(4,11,3,16)    =   -178.049033    -0.000000     0.018414  -178.030618
	   73 D(5,7,12,8)     =     -0.074529    -0.000000     0.003645    -0.070883
	   74 D(5,10,6,8)     =      1.760066    -0.000001    -0.000915     1.759151
	   75 D(5,10,6,19)    =   -178.728334    -0.000001    -0.004482  -178.732816
	   76 D(6,8,12,7)     =     -0.613255     0.000000    -0.008074    -0.621330
	   77 D(6,10,5,7)     =     -2.394518     0.000001    -0.003191    -2.397709
	   78 D(6,10,5,18)    =    177.622591     0.000001    -0.002041   177.620550
	   79 D(7,5,10,9)     =   -176.198640    -0.000001    -0.017835  -176.216476
	   80 D(7,12,8,21)    =    179.637214     0.000000     0.013593   179.650807
	   81 D(8,6,10,9)     =    175.548321     0.000001     0.013817   175.562138
	   82 D(8,12,7,20)    =   -178.883241    -0.000000    -0.000670  -178.883910
	   83 D(9,1,3,11)     =      0.292394    -0.000000    -0.017464     0.274930
	   84 D(9,1,3,16)     =    179.626645    -0.000000    -0.017156   179.609489
	   85 D(9,2,4,11)     =     -2.165274     0.000000     0.003396    -2.161878
	   86 D(9,2,4,17)     =    178.050593     0.000000     0.008483   178.059077
	   87 D(9,10,5,18)    =      3.818469    -0.000001    -0.016685     3.801784
	   88 D(9,10,6,19)    =     -4.940079     0.000001     0.010250    -4.929828
	   89 D(10,5,7,12)    =      1.653578    -0.000000     0.001811     1.655389
	   90 D(10,5,7,20)    =   -179.583241    -0.000000     0.006260  -179.576981
	   91 D(10,6,8,12)    =     -0.279511     0.000000     0.006973    -0.272538
	   92 D(10,6,8,21)    =    179.460424     0.000000    -0.015527   179.444897
	   93 D(10,9,1,14)    =      6.568611    -0.000001    -0.005455     6.563156
	   94 D(10,9,2,15)    =     -7.647388     0.000001    -0.004446    -7.651834
	   95 D(11,3,1,14)    =   -179.172061    -0.000000     0.003921  -179.168140
	   96 D(11,4,2,15)    =    179.220927     0.000000    -0.000824   179.220102
	   97 D(12,7,5,18)    =   -178.363717    -0.000000     0.000649  -178.363068
	   98 D(12,8,6,19)    =   -179.786172     0.000000     0.010574  -179.775598
	   99 D(13,11,3,16)   =      1.471827    -0.000000    -0.019650     1.452177
	  100 D(13,11,4,17)   =     -0.114171     0.000000     0.021349    -0.092822
	  101 D(14,1,3,16)    =      0.162190    -0.000000     0.004229     0.166419
	  102 D(15,2,4,17)    =     -0.563206     0.000000     0.004263    -0.558943
	  103 D(18,5,7,20)    =      0.399464    -0.000000     0.005097     0.404561
	  104 D(19,6,8,21)    =     -0.046237     0.000000    -0.011927    -0.058163
	 ---------------------------------------------------------------------------
	Successfully symmetrized geometry.
	 Forces used to impose fixed constraints are not included.
	  Forces zeroed: 61 

  ==> Convergence Check <==

  Measures of convergence in internal coordinates in au.
  Criteria marked as inactive (o), active & met (*), and active & unmet ( ).
  ---------------------------------------------------------------------------------------------
   Step     Total Energy     Delta E     MAX Force     RMS Force      MAX Disp      RMS Disp   
  ---------------------------------------------------------------------------------------------
    Convergence Criteria    1.00e-06 *    3.00e-04 *             o    1.20e-03 *             o
  ---------------------------------------------------------------------------------------------
     21    -553.16870698   -2.88e-05      1.56e-04 *    3.06e-05 o    4.59e-04 *    1.43e-04 o  ~
  ---------------------------------------------------------------------------------------------


  **** Optimization is complete! (in 21 steps) ****

  ==> Optimization Summary <==

  Measures of convergence in internal coordinates in au.
  --------------------------------------------------------------------------------------------------------------- ~
   Step         Total Energy             Delta E       MAX Force       RMS Force        MAX Disp        RMS Disp  ~
  --------------------------------------------------------------------------------------------------------------- ~
      1    -553.159149611543   -553.159149611543      0.02630153      0.00666173      0.04058785      0.00979229  ~
      2    -553.164403035821     -0.005253424278      0.01614862      0.00383458      0.04167263      0.00979321  ~
      3    -553.167173262329     -0.002770226508      0.00693971      0.00170326      0.04174649      0.00980357  ~
      4    -553.168095548475     -0.000922286146      0.00218165      0.00046951      0.06058329      0.00980872  ~
      5    -553.168369914018     -0.000274365543      0.00128624      0.00024970      0.06101425      0.00981055  ~
      6    -553.168587574468     -0.000217660450      0.00084013      0.00020224      0.06027634      0.00981011  ~
      7    -553.168761739338     -0.000174164870      0.00121095      0.00023213      0.00546464      0.00125790  ~
      8    -553.168758374502      0.000003364836      0.00131720      0.00022413      0.06112710      0.00981067  ~
      9    -553.168899015959     -0.000140641457      0.00277340      0.00043086      0.00930307      0.00256139  ~
     10    -553.168871137737      0.000027878222      0.00253013      0.00041824      0.04072272      0.00980581  ~
     11    -553.168770771429      0.000100366308      0.00226418      0.00049449      0.02560122      0.00623674  ~
     12    -553.168859905628     -0.000089134199      0.00272730      0.00043246      0.01443436      0.00420899  ~
     13    -553.168814028089      0.000045877539      0.00209833      0.00041477      0.00978911      0.00239350  ~
     14    -553.168820323835     -0.000006295746      0.00191572      0.00030050      0.00734469      0.00189612  ~
     15    -553.168796871549      0.000023452285      0.00150481      0.00024996      0.00621592      0.00194741  ~
     16    -553.168767942870      0.000028928679      0.00094066      0.00017804      0.00678087      0.00166873  ~
     17    -553.168755882417      0.000012060453      0.00071790      0.00013170      0.00618818      0.00165253  ~
     18    -553.168746480035      0.000009402382      0.00062565      0.00013870      0.01437170      0.00385642  ~
     19    -553.168722186782      0.000024293252      0.00123149      0.00030344      0.01980896      0.00561675  ~
     20    -553.168678141074      0.000044045708      0.00122998      0.00030414      0.00985444      0.00266739  ~
     21    -553.168706979874     -0.000028838799      0.00024105      0.00003865      0.00045888      0.00014293  ~
  --------------------------------------------------------------------------------------------------------------- ~

	Writing optimization data to binary file.
	Final energy is   -553.1687069798737
	Final (previous) structure:
	Cartesian Geometry (in Angstrom)
	    C    -1.3331976577   0.5689200564  -0.5296929474
	    C    -0.3099255043   0.1544433837   1.5865255341
	    C    -2.3714768197   1.2303844382   0.0972148876
	    C    -1.3529516632   0.7979164890   2.2238135767
	    C     2.1091037080   0.0767386180  -0.4910400781
	    C     0.7903293289  -1.7135051732  -1.2826889020
	    C     3.1689393875  -0.4449569437  -1.2152962602
	    C     1.8984128360  -2.1579792027  -1.9866129917
	    C    -0.2885641489  -0.0138192390   0.1972128677
	    C     0.8729516092  -0.5717055619  -0.4845612171
	    C    -2.4605137410   1.3777849626   1.5208517192
	    N     3.0898240741  -1.5507043254  -1.9647845102
	    O    -3.4185148693   1.9704199884   2.1005755086
	    H    -1.3173338086   0.5037228835  -1.6117968252
	    H     0.5047047659  -0.2518609355   2.1753606266
	    H    -3.1618017713   1.6759770746  -0.4924270053
	    H    -1.3570063355   0.8851568574   3.3024191314
	    H     2.2304664740   0.9888226574   0.0745015138
	    H    -0.1441529628  -2.2521057667  -1.3400538151
	    H     4.1274028872   0.0581123660  -1.2115819566
	    H     1.8310193741  -3.0492796893  -2.5973292905
	Saving final (previous) structure.
			--------------------------
			 OPTKING Finished Execution 
			--------------------------

    Final optimized geometry and variables:
    Molecular point group: c1
    Full point group: C1

    Geometry (in Angstrom), charge = -1, multiplicity = 1:

    C           -1.333197657693     0.568920056434    -0.529692947373
    C           -0.309925504335     0.154443383718     1.586525534114
    C           -2.371476819708     1.230384438226     0.097214887631
    C           -1.352951663223     0.797916489022     2.223813576716
    C            2.109103708022     0.076738617971    -0.491040078079
    C            0.790329328937    -1.713505173159    -1.282688902017
    C            3.168939387539    -0.444956943722    -1.215296260199
    C            1.898412836026    -2.157979202702    -1.986612991737
    C           -0.288564148945    -0.013819238965     0.197212867693
    C            0.872951609189    -0.571705561895    -0.484561217133
    C           -2.460513741045     1.377784962577     1.520851719195
    N            3.089824074141    -1.550704325440    -1.964784510174
    O           -3.418514869348     1.970419988407     2.100575508563
    H           -1.317333808650     0.503722883495    -1.611796825236
    H            0.504704765899    -0.251860935485     2.175360626645
    H           -3.161801771338     1.675977074578    -0.492427005344
    H           -1.357006335477     0.885156857447     3.302419131364
    H            2.230466474046     0.988822657444     0.074501513784
    H           -0.144152962761    -2.252105766734    -1.340053815138
    H            4.127402887223     0.058112365986    -1.211581956601
    H            1.831019374128    -3.049279689250    -2.597329290541

	Cleaning optimization helper files.

*** Psi4 exiting successfully. Buy a developer a beer!
