
    -----------------------------------------------------------------------
          Psi4: An Open-Source Ab Initio Electronic Structure Package
                               Psi4 1.1 release

                         Git: Rev {HEAD} add49b9 


    R. M. Parrish, L. A. Burns, D. G. A. Smith, A. C. Simmonett,
    A. E. DePrince III, E. G. Hohenstein, U. Bozkaya, A. Yu. Sokolov,
    R. Di Remigio, R. M. Richard, J. F. Gonthier, A. M. James,
    H. R. McAlexander, A. Kumar, M. Saitow, X. Wang, B. P. Pritchard,
    P. Verma, H. F. Schaefer III, K. Patkowski, R. A. King, E. F. Valeev,
    F. A. Evangelista, J. M. Turney, T. D. Crawford, and C. D. Sherrill,
    J. Chem. Theory Comput. in press (2017).
    (doi: 10.1021/acs.jctc.7b00174)

    -----------------------------------------------------------------------


    Psi4 started on: Monday, 13 November 2017 12:23PM

    Process ID:  28152
    PSIDATADIR: /cbio/jclab/home/chayas/anaconda/envs/py35/share/psi4
    Memory:     500.0 MiB
    Threads:    8
    
  ==> Input File <==

--------------------------------------------------------------------------

memory 5 Gb

molecule phepyrF {
  symmetry C1
  0 1 
  C      1.885   -1.036   -0.112
  C      0.807   -0.463   0.561
  C      2.921   -1.631   0.608
  C      0.764   -0.484   1.955
  C      4.457   -3.505   2.351
  C      4.494   -1.630   3.856
  C      5.489   -4.053   3.094
  C      5.524   -2.262   4.532
  C      2.878   -1.652   2.002
  C      3.955   -2.270   2.745
  C      1.800   -1.079   2.676
  N      6.038   -3.461   4.179
  F      1.744   -1.089   4.016
  H      1.918   -1.020   -1.198
  H      0.000   -0.000   -0.000
  H      3.755   -2.073   0.068
  H      -0.076   -0.038   2.480
  H      4.063   -4.035   1.489
  H      4.128   -0.665   4.193
  H      5.917   -5.014   2.827
  H      5.978   -1.805   5.405
  units Angstrom
}

dih_string = "3 9 10 5 315"
set optking { fixed_dihedral = $dih_string
              dynamic_level = 1
              geom_maxiter = 250
              print_trajectory_xyz_file = True }

optimize('MP2/aug-cc-PVTZ')
--------------------------------------------------------------------------

  Memory set to   4.657 GiB by Python driver.
gradient() will perform analytic gradient computation.

*** tstart() called on gpu-2-14.local
*** at Mon Nov 13 12:23:11 2017

    SCF Algorithm Type (re)set to DF.

*** tstart() called on gpu-2-14.local
*** at Mon Nov 13 12:23:11 2017

   => Loading Basis Set <=

    Name: AUG-CC-PVTZ
    Role: ORBITAL
    Keyword: BASIS
    atoms 1-11  entry C          line   221 file /cbio/jclab/home/chayas/anaconda/envs/py35/share/psi4/basis/aug-cc-pvtz.gbs 
    atoms 12    entry N          line   267 file /cbio/jclab/home/chayas/anaconda/envs/py35/share/psi4/basis/aug-cc-pvtz.gbs 
    atoms 13    entry F          line   359 file /cbio/jclab/home/chayas/anaconda/envs/py35/share/psi4/basis/aug-cc-pvtz.gbs 
    atoms 14-21 entry H          line    34 file /cbio/jclab/home/chayas/anaconda/envs/py35/share/psi4/basis/aug-cc-pvtz.gbs 


         ---------------------------------------------------------
                                   SCF
            by Justin Turney, Rob Parrish, and Andy Simmonett
                              RHF Reference
                        8 Threads,   4768 MiB Core
         ---------------------------------------------------------

  ==> Geometry <==

    Molecular point group: c1
    Full point group: C1

    Geometry (in Angstrom), charge = 0, multiplicity = 1:

       Center              X                  Y                   Z               Mass       
    ------------   -----------------  -----------------  -----------------  -----------------
           C         -1.369608088209     0.840175239133    -2.662592135104    12.000000000000
           C         -2.447608088209     1.413175239133    -1.989592135104    12.000000000000
           C         -0.333608088209     0.245175239133    -1.942592135104    12.000000000000
           C         -2.490608088209     1.392175239133    -0.595592135104    12.000000000000
           C          1.202391911791    -1.628824760867    -0.199592135104    12.000000000000
           C          1.239391911791     0.246175239133     1.305407864896    12.000000000000
           C          2.234391911791    -2.176824760867     0.543407864896    12.000000000000
           C          2.269391911791    -0.385824760867     1.981407864896    12.000000000000
           C         -0.376608088209     0.224175239133    -0.548592135104    12.000000000000
           C          0.700391911791    -0.393824760867     0.194407864896    12.000000000000
           C         -1.454608088209     0.797175239133     0.125407864896    12.000000000000
           N          2.783391911791    -1.584824760867     1.628407864896    14.003074004780
           F         -1.510608088209     0.787175239133     1.465407864896    18.998403224000
           H         -1.336608088209     0.856175239133    -3.748592135104     1.007825032070
           H         -3.254608088209     1.876175239133    -2.550592135104     1.007825032070
           H          0.500391911791    -0.196824760867    -2.482592135104     1.007825032070
           H         -3.330608088209     1.838175239133    -0.070592135104     1.007825032070
           H          0.808391911791    -2.158824760867    -1.061592135104     1.007825032070
           H          0.873391911791     1.211175239133     1.642407864896     1.007825032070
           H          2.662391911791    -3.137824760867     0.276407864896     1.007825032070
           H          2.723391911791     0.071175239133     2.854407864896     1.007825032070

  Running in c1 symmetry.

  Rotational constants: A =      0.06385  B =      0.01823  C =      0.01501 [cm^-1]
  Rotational constants: A =   1914.06638  B =    546.56843  C =    449.98151 [MHz]
  Nuclear repulsion =  716.575350045094638

  Charge       = 0
  Multiplicity = 1
  Electrons    = 90
  Nalpha       = 45
  Nbeta        = 45

  ==> Algorithm <==

  SCF Algorithm Type is DF.
  DIIS enabled.
  MOM disabled.
  Fractional occupation disabled.
  Guess Type is SAD.
  Energy threshold   = 1.00e-10
  Density threshold  = 1.00e-10
  Integral threshold = 0.00e+00

  ==> Primary Basis <==

  Basis Set: AUG-CC-PVTZ
    Blend: AUG-CC-PVTZ
    Number of shells: 254
    Number of basis function: 782
    Number of Cartesian functions: 915
    Spherical Harmonics?: true
    Max angular momentum: 3

   => Loading Basis Set <=

    Name: (AUG-CC-PVTZ AUX)
    Role: JKFIT
    Keyword: DF_BASIS_SCF
    atoms 1-11  entry C          line   161 file /cbio/jclab/home/chayas/anaconda/envs/py35/share/psi4/basis/aug-cc-pvtz-jkfit.gbs 
    atoms 12    entry N          line   223 file /cbio/jclab/home/chayas/anaconda/envs/py35/share/psi4/basis/aug-cc-pvtz-jkfit.gbs 
    atoms 13    entry F          line   347 file /cbio/jclab/home/chayas/anaconda/envs/py35/share/psi4/basis/aug-cc-pvtz-jkfit.gbs 
    atoms 14-21 entry H          line    69 file /cbio/jclab/home/chayas/anaconda/envs/py35/share/psi4/basis/aug-cc-pvtz-jkfit.gbs 

  ==> Pre-Iterations <==

   -------------------------------------------------------
    Irrep   Nso     Nmo     Nalpha   Nbeta   Ndocc  Nsocc
   -------------------------------------------------------
     A        782     782       0       0       0       0
   -------------------------------------------------------
    Total     782     782      45      45      45       0
   -------------------------------------------------------

  ==> Integral Setup <==

  ==> DFJK: Density-Fitted J/K Matrices <==

    J tasked:                  Yes
    K tasked:                  Yes
    wK tasked:                  No
    OpenMP threads:              8
    Integrals threads:           8
    Memory (MB):              3576
    Algorithm:                Disk
    Integral Cache:           NONE
    Schwarz Cutoff:          1E-12
    Fitting Condition:       1E-12

   => Auxiliary Basis Set <=

  Basis Set: (AUG-CC-PVTZ AUX)
    Blend: AUG-CC-PVTZ-JKFIT
    Number of shells: 502
    Number of basis function: 1720
    Number of Cartesian functions: 2143
    Spherical Harmonics?: true
    Max angular momentum: 4

  Minimum eigenvalue in the overlap matrix is 6.6317138324E-07.
  Using Symmetric Orthogonalization.

  SCF Guess: Superposition of Atomic Densities via on-the-fly atomic UHF.

  ==> Iterations <==

                           Total Energy        Delta E     RMS |[F,P]|

   @DF-RHF iter   0:  -580.71443199024657   -5.80714e+02   1.81099e-02 
   @DF-RHF iter   1:  -574.90655367186844    5.80788e+00   1.89991e-03 
   @DF-RHF iter   2:  -575.20631096951399   -2.99757e-01   9.84281e-04 DIIS
   @DF-RHF iter   3:  -575.26651017291840   -6.01992e-02   3.74342e-04 DIIS
   @DF-RHF iter   4:  -575.28163439163131   -1.51242e-02   1.15034e-04 DIIS
   @DF-RHF iter   5:  -575.28309820149047   -1.46381e-03   4.75131e-05 DIIS
   @DF-RHF iter   6:  -575.28342666412345   -3.28463e-04   1.46419e-05 DIIS
   @DF-RHF iter   7:  -575.28346501164572   -3.83475e-05   4.87162e-06 DIIS
   @DF-RHF iter   8:  -575.28346811893016   -3.10728e-06   1.21393e-06 DIIS
   @DF-RHF iter   9:  -575.28346841475513   -2.95825e-07   4.89252e-07 DIIS
   @DF-RHF iter  10:  -575.28346846824115   -5.34860e-08   2.16508e-07 DIIS
   @DF-RHF iter  11:  -575.28346848491901   -1.66779e-08   9.48680e-08 DIIS
   @DF-RHF iter  12:  -575.28346848891692   -3.99791e-09   4.29207e-08 DIIS
   @DF-RHF iter  13:  -575.28346848970614   -7.89214e-10   1.75054e-08 DIIS
   @DF-RHF iter  14:  -575.28346848982426   -1.18121e-10   5.76906e-09 DIIS
   @DF-RHF iter  15:  -575.28346848982835   -4.09273e-12   2.15205e-09 DIIS
   @DF-RHF iter  16:  -575.28346848982494    3.41061e-12   8.33676e-10 DIIS
   @DF-RHF iter  17:  -575.28346848983597   -1.10276e-11   4.12658e-10 DIIS
   @DF-RHF iter  18:  -575.28346848983244    3.52429e-12   2.15469e-10 DIIS
   @DF-RHF iter  19:  -575.28346848982528    7.16227e-12   1.06620e-10 DIIS
   @DF-RHF iter  20:  -575.28346848982608   -7.95808e-13   4.89166e-11 DIIS

  ==> Post-Iterations <==

    Orbital Energies (a.u.)
    -----------------------

    Doubly Occupied:                                                      

       1A    -26.323854     2A    -15.565729     3A    -11.342162  
       4A    -11.275305     5A    -11.273907     6A    -11.266657  
       7A    -11.261631     8A    -11.258869     9A    -11.258630  
      10A    -11.255952    11A    -11.250825    12A    -11.241009  
      13A    -11.238544    14A     -1.643268    15A     -1.251015  
      16A     -1.184045    17A     -1.114083    18A     -1.038594  
      19A     -1.032551    20A     -1.025923    21A     -0.892476  
      22A     -0.872562    23A     -0.845348    24A     -0.823505  
      25A     -0.757416    26A     -0.722480    27A     -0.717770  
      28A     -0.709534    29A     -0.669432    30A     -0.661689  
      31A     -0.652471    32A     -0.625763    33A     -0.611335  
      34A     -0.599207    35A     -0.588003    36A     -0.548805  
      37A     -0.538359    38A     -0.523224    39A     -0.515732  
      40A     -0.508331    41A     -0.420001    42A     -0.402745  
      43A     -0.353180    44A     -0.349941    45A     -0.332462  

    Virtual:                                                              

      46A      0.023602    47A      0.029807    48A      0.033730  
      49A      0.038052    50A      0.043755    51A      0.046758  
      52A      0.054094    53A      0.055779    54A      0.069734  
      55A      0.079019    56A      0.084094    57A      0.086897  
      58A      0.092178    59A      0.094310    60A      0.099062  
      61A      0.103227    62A      0.106998    63A      0.108768  
      64A      0.112811    65A      0.114358    66A      0.115805  
      67A      0.119804    68A      0.120709    69A      0.128846  
      70A      0.130200    71A      0.133114    72A      0.135592  
      73A      0.137273    74A      0.143378    75A      0.145474  
      76A      0.149489    77A      0.150956    78A      0.151550  
      79A      0.159098    80A      0.163647    81A      0.169689  
      82A      0.175725    83A      0.178532    84A      0.181112  
      85A      0.187895    86A      0.199106    87A      0.203351  
      88A      0.218017    89A      0.218742    90A      0.224904  
      91A      0.231004    92A      0.233238    93A      0.234696  
      94A      0.237297    95A      0.243262    96A      0.247346  
      97A      0.249050    98A      0.253353    99A      0.258516  
     100A      0.264764   101A      0.268073   102A      0.270419  
     103A      0.272951   104A      0.281943   105A      0.283596  
     106A      0.287870   107A      0.291100   108A      0.296804  
     109A      0.300472   110A      0.305215   111A      0.310198  
     112A      0.313627   113A      0.317647   114A      0.319229  
     115A      0.321431   116A      0.325259   117A      0.329879  
     118A      0.336778   119A      0.338707   120A      0.344698  
     121A      0.347132   122A      0.356422   123A      0.359130  
     124A      0.366618   125A      0.372549   126A      0.378672  
     127A      0.379184   128A      0.386047   129A      0.392690  
     130A      0.397783   131A      0.406478   132A      0.410156  
     133A      0.416006   134A      0.421436   135A      0.425312  
     136A      0.429802   137A      0.434828   138A      0.436401  
     139A      0.437689   140A      0.442009   141A      0.446591  
     142A      0.450128   143A      0.458329   144A      0.465973  
     145A      0.468065   146A      0.470132   147A      0.475590  
     148A      0.477044   149A      0.478567   150A      0.481363  
     151A      0.485329   152A      0.490813   153A      0.491221  
     154A      0.496289   155A      0.497580   156A      0.502117  
     157A      0.507702   158A      0.510510   159A      0.513804  
     160A      0.514608   161A      0.520542   162A      0.521370  
     163A      0.526816   164A      0.527942   165A      0.532969  
     166A      0.537344   167A      0.540121   168A      0.543739  
     169A      0.548962   170A      0.549860   171A      0.557350  
     172A      0.560850   173A      0.571228   174A      0.576447  
     175A      0.580170   176A      0.586011   177A      0.590962  
     178A      0.595483   179A      0.601421   180A      0.610124  
     181A      0.611741   182A      0.626423   183A      0.631775  
     184A      0.635944   185A      0.641371   186A      0.652506  
     187A      0.655222   188A      0.667168   189A      0.676920  
     190A      0.678423   191A      0.683927   192A      0.687692  
     193A      0.694857   194A      0.702406   195A      0.704402  
     196A      0.708719   197A      0.712814   198A      0.721247  
     199A      0.724532   200A      0.730335   201A      0.733947  
     202A      0.743313   203A      0.747746   204A      0.749288  
     205A      0.753024   206A      0.763077   207A      0.765795  
     208A      0.768116   209A      0.778334   210A      0.793037  
     211A      0.795128   212A      0.801946   213A      0.805099  
     214A      0.812490   215A      0.824039   216A      0.835041  
     217A      0.843754   218A      0.850836   219A      0.852424  
     220A      0.856808   221A      0.859479   222A      0.861518  
     223A      0.871521   224A      0.875482   225A      0.877669  
     226A      0.879894   227A      0.882804   228A      0.888435  
     229A      0.891335   230A      0.899411   231A      0.902428  
     232A      0.908640   233A      0.915422   234A      0.921474  
     235A      0.923084   236A      0.931909   237A      0.935623  
     238A      0.937893   239A      0.942811   240A      0.951443  
     241A      0.954092   242A      0.961594   243A      0.965067  
     244A      0.968596   245A      0.977169   246A      0.979586  
     247A      0.982910   248A      0.985184   249A      0.993355  
     250A      1.002067   251A      1.004590   252A      1.008558  
     253A      1.012916   254A      1.013907   255A      1.022094  
     256A      1.026715   257A      1.032258   258A      1.038452  
     259A      1.042422   260A      1.053498   261A      1.055136  
     262A      1.063710   263A      1.066002   264A      1.069581  
     265A      1.074199   266A      1.075504   267A      1.078972  
     268A      1.080422   269A      1.085312   270A      1.089818  
     271A      1.093993   272A      1.108574   273A      1.110095  
     274A      1.112847   275A      1.118162   276A      1.122735  
     277A      1.125658   278A      1.134108   279A      1.138663  
     280A      1.144671   281A      1.147559   282A      1.151847  
     283A      1.160882   284A      1.163773   285A      1.171209  
     286A      1.179451   287A      1.181095   288A      1.184525  
     289A      1.190447   290A      1.199087   291A      1.200684  
     292A      1.203575   293A      1.208163   294A      1.211313  
     295A      1.224328   296A      1.230201   297A      1.234669  
     298A      1.235936   299A      1.242488   300A      1.247070  
     301A      1.254023   302A      1.259752   303A      1.269555  
     304A      1.274261   305A      1.283969   306A      1.284923  
     307A      1.290995   308A      1.294798   309A      1.306697  
     310A      1.317134   311A      1.319314   312A      1.331915  
     313A      1.333975   314A      1.346870   315A      1.349267  
     316A      1.358095   317A      1.368243   318A      1.372498  
     319A      1.378756   320A      1.382341   321A      1.391932  
     322A      1.395534   323A      1.404102   324A      1.408771  
     325A      1.422015   326A      1.425268   327A      1.440488  
     328A      1.441636   329A      1.444686   330A      1.462510  
     331A      1.474817   332A      1.479893   333A      1.489549  
     334A      1.498128   335A      1.501796   336A      1.506463  
     337A      1.509462   338A      1.527745   339A      1.540066  
     340A      1.542770   341A      1.549565   342A      1.567576  
     343A      1.568750   344A      1.582169   345A      1.589521  
     346A      1.593331   347A      1.602792   348A      1.609086  
     349A      1.623821   350A      1.628320   351A      1.644937  
     352A      1.649001   353A      1.651368   354A      1.660228  
     355A      1.670933   356A      1.677137   357A      1.680545  
     358A      1.688549   359A      1.701291   360A      1.707545  
     361A      1.714620   362A      1.721770   363A      1.723489  
     364A      1.725910   365A      1.738213   366A      1.740525  
     367A      1.756027   368A      1.757610   369A      1.767669  
     370A      1.779264   371A      1.783576   372A      1.789873  
     373A      1.805320   374A      1.808266   375A      1.811413  
     376A      1.822765   377A      1.824986   378A      1.842452  
     379A      1.855613   380A      1.860766   381A      1.869491  
     382A      1.877638   383A      1.887344   384A      1.892542  
     385A      1.903589   386A      1.914326   387A      1.919688  
     388A      1.923242   389A      1.935814   390A      1.941729  
     391A      1.954405   392A      1.956916   393A      1.964475  
     394A      1.969550   395A      1.975683   396A      1.993285  
     397A      1.999497   398A      2.003315   399A      2.006554  
     400A      2.012802   401A      2.018211   402A      2.026432  
     403A      2.035046   404A      2.048595   405A      2.050985  
     406A      2.054204   407A      2.062261   408A      2.071022  
     409A      2.081101   410A      2.092947   411A      2.093602  
     412A      2.103328   413A      2.118192   414A      2.122987  
     415A      2.127685   416A      2.129829   417A      2.144681  
     418A      2.148024   419A      2.159015   420A      2.168209  
     421A      2.175264   422A      2.194688   423A      2.198435  
     424A      2.204741   425A      2.208338   426A      2.225147  
     427A      2.239468   428A      2.247555   429A      2.251690  
     430A      2.261012   431A      2.278109   432A      2.280728  
     433A      2.285054   434A      2.293551   435A      2.314716  
     436A      2.318394   437A      2.328807   438A      2.337463  
     439A      2.341206   440A      2.352805   441A      2.361082  
     442A      2.363485   443A      2.377855   444A      2.393904  
     445A      2.403950   446A      2.411343   447A      2.428124  
     448A      2.440796   449A      2.468777   450A      2.472550  
     451A      2.476862   452A      2.507313   453A      2.517488  
     454A      2.526019   455A      2.532794   456A      2.545740  
     457A      2.556300   458A      2.566439   459A      2.577454  
     460A      2.590266   461A      2.599120   462A      2.611771  
     463A      2.635582   464A      2.653381   465A      2.663101  
     466A      2.693037   467A      2.721554   468A      2.727405  
     469A      2.753823   470A      2.766547   471A      2.769154  
     472A      2.774471   473A      2.788642   474A      2.804538  
     475A      2.832099   476A      2.846225   477A      2.874240  
     478A      2.880062   479A      2.927062   480A      2.962174  
     481A      2.997140   482A      3.012449   483A      3.043531  
     484A      3.054560   485A      3.063254   486A      3.078881  
     487A      3.110076   488A      3.128617   489A      3.155434  
     490A      3.157203   491A      3.164030   492A      3.170938  
     493A      3.180436   494A      3.193047   495A      3.199815  
     496A      3.228860   497A      3.236551   498A      3.261364  
     499A      3.276437   500A      3.289988   501A      3.305130  
     502A      3.310022   503A      3.325984   504A      3.332882  
     505A      3.343817   506A      3.357821   507A      3.373124  
     508A      3.378616   509A      3.379865   510A      3.397384  
     511A      3.413725   512A      3.423280   513A      3.425765  
     514A      3.435700   515A      3.437883   516A      3.445072  
     517A      3.465992   518A      3.469918   519A      3.479531  
     520A      3.489776   521A      3.492065   522A      3.499191  
     523A      3.509608   524A      3.521552   525A      3.528263  
     526A      3.541506   527A      3.547119   528A      3.554921  
     529A      3.559505   530A      3.569880   531A      3.572077  
     532A      3.584843   533A      3.592096   534A      3.601876  
     535A      3.615204   536A      3.616426   537A      3.630759  
     538A      3.638653   539A      3.655395   540A      3.657173  
     541A      3.666413   542A      3.669817   543A      3.680114  
     544A      3.696130   545A      3.703292   546A      3.716785  
     547A      3.722497   548A      3.734486   549A      3.747511  
     550A      3.754526   551A      3.763115   552A      3.775156  
     553A      3.777429   554A      3.790834   555A      3.793227  
     556A      3.814412   557A      3.818698   558A      3.828821  
     559A      3.835037   560A      3.842260   561A      3.850532  
     562A      3.852813   563A      3.863132   564A      3.873446  
     565A      3.876508   566A      3.880949   567A      3.885313  
     568A      3.909545   569A      3.916005   570A      3.927986  
     571A      3.931118   572A      3.940291   573A      3.949291  
     574A      3.956894   575A      3.968042   576A      3.975894  
     577A      3.986801   578A      3.996426   579A      4.006002  
     580A      4.009431   581A      4.013455   582A      4.015937  
     583A      4.029014   584A      4.047037   585A      4.049873  
     586A      4.053206   587A      4.057928   588A      4.079439  
     589A      4.081328   590A      4.096564   591A      4.102747  
     592A      4.107132   593A      4.125290   594A      4.131771  
     595A      4.139716   596A      4.140721   597A      4.156562  
     598A      4.169833   599A      4.175485   600A      4.186247  
     601A      4.202739   602A      4.215703   603A      4.223803  
     604A      4.224919   605A      4.249061   606A      4.258652  
     607A      4.267654   608A      4.269592   609A      4.289527  
     610A      4.311668   611A      4.316232   612A      4.320212  
     613A      4.324171   614A      4.335192   615A      4.346818  
     616A      4.353738   617A      4.356155   618A      4.364929  
     619A      4.369488   620A      4.379268   621A      4.388074  
     622A      4.395643   623A      4.408238   624A      4.412341  
     625A      4.418249   626A      4.432487   627A      4.438884  
     628A      4.458892   629A      4.462556   630A      4.483339  
     631A      4.486074   632A      4.496390   633A      4.509835  
     634A      4.516283   635A      4.523896   636A      4.544256  
     637A      4.562671   638A      4.588214   639A      4.595294  
     640A      4.596777   641A      4.609009   642A      4.632646  
     643A      4.655562   644A      4.675100   645A      4.681705  
     646A      4.697079   647A      4.706486   648A      4.713216  
     649A      4.716677   650A      4.743932   651A      4.752283  
     652A      4.754429   653A      4.778684   654A      4.787975  
     655A      4.809021   656A      4.823520   657A      4.840661  
     658A      4.862451   659A      4.881814   660A      4.891676  
     661A      4.901095   662A      4.939181   663A      4.949992  
     664A      4.970359   665A      4.974048   666A      4.977113  
     667A      4.990917   668A      4.995805   669A      5.011043  
     670A      5.023354   671A      5.032403   672A      5.043062  
     673A      5.049119   674A      5.063167   675A      5.080745  
     676A      5.086177   677A      5.103867   678A      5.117399  
     679A      5.129736   680A      5.135582   681A      5.158505  
     682A      5.160028   683A      5.169505   684A      5.171570  
     685A      5.190475   686A      5.201002   687A      5.206073  
     688A      5.215785   689A      5.226648   690A      5.239511  
     691A      5.260561   692A      5.280821   693A      5.304806  
     694A      5.314694   695A      5.337347   696A      5.343403  
     697A      5.353911   698A      5.369695   699A      5.380495  
     700A      5.392675   701A      5.424969   702A      5.447880  
     703A      5.454500   704A      5.463782   705A      5.488866  
     706A      5.526382   707A      5.541119   708A      5.554805  
     709A      5.572356   710A      5.580502   711A      5.642012  
     712A      5.651545   713A      5.674342   714A      5.689448  
     715A      5.703432   716A      5.754948   717A      5.764506  
     718A      5.797840   719A      5.809428   720A      5.813197  
     721A      5.847860   722A      5.866463   723A      5.888120  
     724A      5.909143   725A      5.954590   726A      6.002924  
     727A      6.044677   728A      6.082193   729A      6.119387  
     730A      6.176975   731A      6.179968   732A      6.204913  
     733A      6.243270   734A      6.248528   735A      6.302037  
     736A      6.312327   737A      6.333185   738A      6.379008  
     739A      6.403131   740A      6.483624   741A      6.511287  
     742A      6.536197   743A      6.582929   744A      6.658492  
     745A      6.702035   746A      6.713036   747A      6.729495  
     748A      6.823091   749A      6.871748   750A      6.934583  
     751A      6.981335   752A      7.018451   753A      7.063176  
     754A      7.084267   755A      7.299958   756A      7.424407  
     757A      7.476300   758A      9.049463   759A      9.071380  
     760A      9.269263   761A      9.289952   762A      9.416790  
     763A      9.524067   764A      9.556112   765A      9.616379  
     766A      9.652439   767A      9.721137   768A     10.031114  
     769A     10.089421   770A     15.551805   771A     16.187484  
     772A     16.516253   773A     16.618468   774A     16.654511  
     775A     18.439345   776A     18.668285   777A     19.061199  
     778A     19.294208   779A     20.101693   780A     20.207515  
     781A     20.272128   782A     21.854804  

    Final Occupation by Irrep:
              A 
    DOCC [    45 ]

  Energy converged.

  @DF-RHF Final Energy:  -575.28346848982608

   => Energetics <=

    Nuclear Repulsion Energy =            716.5753500450946376
    One-Electron Energy =               -2205.0289820364014304
    Two-Electron Energy =                 913.1701635014807152
    DFT Exchange-Correlation Energy =       0.0000000000000000
    Empirical Dispersion Energy =           0.0000000000000000
    PCM Polarization Energy =               0.0000000000000000
    EFP Energy =                            0.0000000000000000
    Total Energy =                       -575.2834684898260775



Properties will be evaluated at   0.000000,   0.000000,   0.000000 Bohr

Properties computed using the SCF density matrix

  Nuclear Dipole Moment: (a.u.)
     X:     1.0852      Y:    -0.4011      Z:    -6.2064

  Electronic Dipole Moment: (a.u.)
     X:    -1.8698      Y:     0.8848      Z:     5.0684

  Dipole Moment: (a.u.)
     X:    -0.7845      Y:     0.4838      Z:    -1.1380     Total:     1.4644

  Dipole Moment: (Debye)
     X:    -1.9941      Y:     1.2297      Z:    -2.8925     Total:     3.7222


*** tstop() called on gpu-2-14.local at Mon Nov 13 12:29:30 2017
Module time:
	user time   =     948.98 seconds =      15.82 minutes
	system time =      47.31 seconds =       0.79 minutes
	total time  =        379 seconds =       6.32 minutes
Total time:
	user time   =     948.98 seconds =      15.82 minutes
	system time =      47.31 seconds =       0.79 minutes
	total time  =        379 seconds =       6.32 minutes

  //>>>>>>>>>>>>>>>>>>>>>>>>>>>>>>>>>>>//
  //               DFMP2               //
  //<<<<<<<<<<<<<<<<<<<<<<<<<<<<<<<<<<<//

   => Loading Basis Set <=

    Name: (AUG-CC-PVTZ AUX)
    Role: RIFIT
    Keyword: DF_BASIS_MP2
    atoms 1-11  entry C          line   147 file /cbio/jclab/home/chayas/anaconda/envs/py35/share/psi4/basis/aug-cc-pvtz-ri.gbs 
    atoms 12    entry N          line   205 file /cbio/jclab/home/chayas/anaconda/envs/py35/share/psi4/basis/aug-cc-pvtz-ri.gbs 
    atoms 13    entry F          line   321 file /cbio/jclab/home/chayas/anaconda/envs/py35/share/psi4/basis/aug-cc-pvtz-ri.gbs 
    atoms 14-21 entry H          line    29 file /cbio/jclab/home/chayas/anaconda/envs/py35/share/psi4/basis/aug-cc-pvtz-ri.gbs 

	 --------------------------------------------------------
	                          DF-MP2                         
	      2nd-Order Density-Fitted Moller-Plesset Theory     
	              RMP2 Wavefunction,   8 Threads             
	                                                         
	        Rob Parrish, Justin Turney, Andy Simmonett,      
	           Ed Hohenstein, and C. David Sherrill          
	 --------------------------------------------------------

   => Auxiliary Basis Set <=

  Basis Set: (AUG-CC-PVTZ AUX)
    Blend: AUG-CC-PVTZ-RI
    Number of shells: 476
    Number of basis function: 1746
    Number of Cartesian functions: 2208
    Spherical Harmonics?: true
    Max angular momentum: 4

	 --------------------------------------------------------
	                 NBF =   782, NAUX =  1746
	 --------------------------------------------------------
	   CLASS    FOCC     OCC    AOCC    AVIR     VIR    FVIR
	   PAIRS       0      45      45     737     737       0
	 --------------------------------------------------------


         ------------------------------------------------------------
                                     CPHF                           
                                  Rob Parrish                       
         ------------------------------------------------------------

  ==> Geometry <==

    Molecular point group: c1
    Full point group: C1

    Geometry (in Angstrom), charge = 0, multiplicity = 1:

       Center              X                  Y                   Z               Mass       
    ------------   -----------------  -----------------  -----------------  -----------------
           C         -1.369608088209     0.840175239133    -2.662592135104    12.000000000000
           C         -2.447608088209     1.413175239133    -1.989592135104    12.000000000000
           C         -0.333608088209     0.245175239133    -1.942592135104    12.000000000000
           C         -2.490608088209     1.392175239133    -0.595592135104    12.000000000000
           C          1.202391911791    -1.628824760867    -0.199592135104    12.000000000000
           C          1.239391911791     0.246175239133     1.305407864896    12.000000000000
           C          2.234391911791    -2.176824760867     0.543407864896    12.000000000000
           C          2.269391911791    -0.385824760867     1.981407864896    12.000000000000
           C         -0.376608088209     0.224175239133    -0.548592135104    12.000000000000
           C          0.700391911791    -0.393824760867     0.194407864896    12.000000000000
           C         -1.454608088209     0.797175239133     0.125407864896    12.000000000000
           N          2.783391911791    -1.584824760867     1.628407864896    14.003074004780
           F         -1.510608088209     0.787175239133     1.465407864896    18.998403224000
           H         -1.336608088209     0.856175239133    -3.748592135104     1.007825032070
           H         -3.254608088209     1.876175239133    -2.550592135104     1.007825032070
           H          0.500391911791    -0.196824760867    -2.482592135104     1.007825032070
           H         -3.330608088209     1.838175239133    -0.070592135104     1.007825032070
           H          0.808391911791    -2.158824760867    -1.061592135104     1.007825032070
           H          0.873391911791     1.211175239133     1.642407864896     1.007825032070
           H          2.662391911791    -3.137824760867     0.276407864896     1.007825032070
           H          2.723391911791     0.071175239133     2.854407864896     1.007825032070

  Nuclear repulsion =  716.575350045094638
  Reference energy  = -575.283468489826078

  ==> Basis Set <==

  Basis Set: AUG-CC-PVTZ
    Blend: AUG-CC-PVTZ
    Number of shells: 254
    Number of basis function: 782
    Number of Cartesian functions: 915
    Spherical Harmonics?: true
    Max angular momentum: 3

  ==> CGRSolver (by Rob Parrish) <==

   Number of roots    =         1
   Preconditioning    =    JACOBI
   Convergence cutoff =     1E-06
   Maximum iterations =       100

  ==> CPHFRHamiltonian (by Rob Parrish) <== 

  ==> DFJK: Density-Fitted J/K Matrices <==

    J tasked:                  Yes
    K tasked:                  Yes
    wK tasked:                  No
    OpenMP threads:              8
    Integrals threads:           8
    Memory (MB):              3576
    Algorithm:                Disk
    Integral Cache:           NONE
    Schwarz Cutoff:          1E-12
    Fitting Condition:       1E-12

   => Auxiliary Basis Set <=

  Basis Set: (AUG-CC-PVTZ AUX)
    Blend: AUG-CC-PVTZ-JKFIT
    Number of shells: 502
    Number of basis function: 1720
    Number of Cartesian functions: 2143
    Spherical Harmonics?: true
    Max angular momentum: 4

  ==> CPHF Iterations <==

  => Iterations <=

             Iter  Converged  Remaining    Residual
  CGR           1          0          1   9.752E-02
  CGR           2          0          1   2.971E-02
  CGR           3          0          1   1.927E-02
  CGR           4          0          1   9.530E-03
  CGR           5          0          1   3.743E-03
  CGR           6          0          1   1.385E-03
  CGR           7          0          1   4.138E-04
  CGR           8          0          1   1.536E-04
  CGR           9          0          1   7.178E-05
  CGR          10          0          1   3.345E-05
  CGR          11          0          1   1.398E-05
  CGR          12          0          1   4.712E-06
  CGR          13          0          1   1.554E-06
  CGR          14          1          0   5.416E-07

    CGRSolver converged.

  ==> DFCorrGrad: Density-Fitted Correlated Gradients <==

    OpenMP threads:              8
    Integrals threads:           8
    Memory (MB):              3576
    Schwarz Cutoff:          0E+00
    Fitting Condition:       1E-12

   => Auxiliary Basis Set <=

  Basis Set: (AUG-CC-PVTZ AUX)
    Blend: AUG-CC-PVTZ-JKFIT
    Number of shells: 502
    Number of basis function: 1720
    Number of Cartesian functions: 2143
    Spherical Harmonics?: true
    Max angular momentum: 4

	-----------------------------------------------------------
	 ==================> DF-MP2 Energies <==================== 
	-----------------------------------------------------------
	 Reference Energy          =    -575.2834684898260775 [Eh]
	 Singles Energy            =      -0.0000000000000003 [Eh]
	 Same-Spin Energy          =      -0.6083663742580502 [Eh]
	 Opposite-Spin Energy      =      -1.8325931365347217 [Eh]
	 Correlation Energy        =      -2.4409595107927724 [Eh]
	 Total Energy              =    -577.7244280006189001 [Eh]
	-----------------------------------------------------------
	 ================> DF-SCS-MP2 Energies <================== 
	-----------------------------------------------------------
	 SCS Same-Spin Scale       =       0.3333333333333333 [-]
	 SCS Opposite-Spin Scale   =       1.2000000000000000 [-]
	 SCS Same-Spin Energy      =      -0.2027887914193501 [Eh]
	 SCS Opposite-Spin Energy  =      -2.1991117638416657 [Eh]
	 SCS Correlation Energy    =      -2.4019005552610162 [Eh]
	 SCS Total Energy          =    -577.6853690450870999 [Eh]
	-----------------------------------------------------------


  -Total Gradient:
     Atom            X                  Y                   Z
    ------   -----------------  -----------------  -----------------
       1       -0.001316491147     0.001232329823     0.000755661943
       2       -0.003697599823     0.002271346802    -0.002008685757
       3        0.013766574118    -0.005183914732     0.006535021998
       4        0.000751363928    -0.000070347695    -0.004734788542
       5       -0.006210510769    -0.000165336667    -0.003934400694
       6       -0.005008516133     0.005151141557    -0.002946837182
       7       -0.009858744730    -0.001483079322    -0.010738012824
       8       -0.008345873897     0.010479504764    -0.000822975744
       9       -0.000440250301     0.000160675694    -0.002740616440
      10        0.001501871217    -0.000871556258    -0.001238236082
      11        0.008999773273    -0.009075311163     0.024447819397
      12        0.013079084247    -0.006261064805     0.009206506318
      13        0.000662635805     0.001597003692     0.001819201557
      14        0.000021407438    -0.000207132658    -0.005362131670
      15       -0.003630076946     0.001965181012    -0.003859307345
      16        0.002539410562    -0.002270041216    -0.006382324761
      17       -0.004832052278     0.002863529949     0.000884051816
      18        0.000172035779    -0.003237025410    -0.004277019015
      19       -0.001594651858     0.005183413873     0.003151309104
      20        0.001897626505    -0.002515607809    -0.000258871495
      21        0.001542985002     0.000436290575     0.002504635413


*** tstop() called on gpu-2-14.local at Mon Nov 13 12:57:13 2017
Module time:
	user time   =    4471.46 seconds =      74.52 minutes
	system time =     103.34 seconds =       1.72 minutes
	total time  =       2042 seconds =      34.03 minutes
Total time:
	user time   =    4471.46 seconds =      74.52 minutes
	system time =     103.34 seconds =       1.72 minutes
	total time  =       2042 seconds =      34.03 minutes

			-----------------------------------------
			 OPTKING 2.0: for geometry optimizations 
			  - R.A. King,  Bethel University        
			-----------------------------------------
	At level 1: Red. Int., RFO, no backsteps, dynamic trust

	Internal coordinates to be generated automatically.
	Detected frag 1 with atoms:  1 2 3 4 5 6 7 8 9 10 11 12 13 14 15 16 17 18 19 20
	 21
	---Fragment 1 Bond Connectivity---
	 1 : 2 3 14
	 2 : 1 4 15
	 3 : 1 9 16
	 4 : 2 11 17
	 5 : 7 10 18
	 6 : 8 10 19
	 7 : 5 12 20
	 8 : 6 12 21
	 9 : 3 10 11
	 10 : 5 6 9
	 11 : 4 9 13
	 12 : 7 8
	 13 : 11
	 14 : 1
	 15 : 2
	 16 : 3
	 17 : 4
	 18 : 5
	 19 : 6
	 20 : 7
	 21 : 8

	Assuming in current code that numbering for constraints corresponds to unified fragment.
	Fixed dihedral atom list: 
	     3     9    10     5
	---Fragment 1 Geometry and Gradient---
	 C          -2.5881841961        1.5877011056       -5.0315699389
	 C          -4.6253089674        2.6705141797       -3.7597842515
	 C          -0.6304279224        0.4633140565       -3.6709671232
	 C          -4.7065671911        2.6308299309       -1.1255060222
	 C           2.2721914177       -3.0780327165       -0.3771744736
	 C           2.3421112846        0.4652037827        2.4668633564
	 C           4.2223887868       -4.1136026373        1.0268920431
	 C           4.2885292015       -0.7291031333        3.7443182222
	 C          -0.7116861461        0.4236298077       -1.0366888940
	 C           1.3235488990       -0.7442209424        0.3673776227
	 C          -2.7488109174        1.5064428819        0.2369865196
	 N           5.2598484338       -2.9948847667        3.0772448973
	 F          -2.8546355808        1.4875456205        2.7692195376
	 H          -2.5258232337        1.6179367237       -7.0838125192
	 H          -6.1503179566        3.5454573793       -4.8199206120
	 H           0.9456036724       -0.3719448942       -4.6914192350
	 H          -6.2939371427        3.4736477862       -0.1333998025
	 H           1.5276393213       -4.0795875669       -2.0061184002
	 H           1.6504715200        2.2887895009        3.1037010632
	 H           5.0311915717       -5.9296294510        0.5223351656
	 H           5.1464648658        0.1345017094        5.3940491362
	            -0.0013164911        0.0012323298        0.0007556619
	            -0.0036975998        0.0022713468       -0.0020086858
	             0.0137665741       -0.0051839147        0.0065350220
	             0.0007513639       -0.0000703477       -0.0047347885
	            -0.0062105108       -0.0001653367       -0.0039344007
	            -0.0050085161        0.0051511416       -0.0029468372
	            -0.0098587447       -0.0014830793       -0.0107380128
	            -0.0083458739        0.0104795048       -0.0008229757
	            -0.0004402503        0.0001606757       -0.0027406164
	             0.0015018712       -0.0008715563       -0.0012382361
	             0.0089997733       -0.0090753112        0.0244478194
	             0.0130790842       -0.0062610648        0.0092065063
	             0.0006626358        0.0015970037        0.0018192016
	             0.0000214074       -0.0002071327       -0.0053621317
	            -0.0036300769        0.0019651810       -0.0038593073
	             0.0025394106       -0.0022700412       -0.0063823248
	            -0.0048320523        0.0028635299        0.0008840518
	             0.0001720358       -0.0032370254       -0.0042770190
	            -0.0015946519        0.0051834139        0.0031513091
	             0.0018976265       -0.0025156078       -0.0002588715
	             0.0015429850        0.0004362906        0.0025046354

	Previous optimization step data not found.  Starting new optimization.

	---Fragment 1 Intrafragment Coordinates---
	 - Coordinate -           - BOHR/RAD -       - ANG/DEG -
	 R(1,2)           =         2.634350	       1.394038
	 R(1,3)           =         2.635962	       1.394891
	 R(1,14)          =         2.053412	       1.086619
	 R(2,4)           =         2.635830	       1.394821
	 R(2,15)          =         2.053063	       1.086434
	 R(3,9)           =         2.635830	       1.394821
	 R(3,16)          =         2.054959	       1.087437
	 R(4,11)          =         2.636938	       1.395407
	 R(4,17)          =         2.052891	       1.086343
	 R(5,7)           =         2.616692	       1.384694
	 R(5,10)          =         2.626967	       1.390131
	 R(5,18)          =         2.052055	       1.085901
	 R(6,8)           =         2.616640	       1.384666
	 R(6,10)          =         2.628311	       1.390842
	 R(6,19)          =         2.051680	       1.085703
	 R(7,12)          =         2.555738	       1.352439
	 R(7,20)          =         2.051022	       1.085354
	 R(8,12)          =         2.553863	       1.351446
	 R(8,21)          =         2.050239	       1.084940
	 R(9,10)          =         2.734494	       1.447032
	 R(9,11)          =         2.635263	       1.394521
	 R(11,13)         =         2.534514	       1.341207
	 B(1,2,4)         =         2.094553	     120.009056
	 B(1,2,15)        =         2.094721	     120.018646
	 B(1,3,9)         =         2.093692	     119.959722
	 B(1,3,16)        =         2.079074	     119.122177
	 B(2,1,3)         =         2.094940	     120.031219
	 B(2,1,14)        =         2.094311	     119.995189
	 B(2,4,11)        =         2.094306	     119.994870
	 B(2,4,17)        =         2.095140	     120.042665
	 B(3,1,14)        =         2.093934	     119.973570
	 B(3,9,10)        =         2.090528	     119.778448
	 B(3,9,11)        =         2.095181	     120.045019
	 B(4,2,15)        =         2.093912	     119.972298
	 B(4,11,9)        =         2.093699	     119.960108
	 B(4,11,13)       =         2.081063	     119.236128
	 B(5,7,12)        =         2.164916	     124.040568
	 B(5,7,20)        =         2.108669	     120.817856
	 B(5,10,6)        =         2.088927	     119.686690
	 B(5,10,9)        =         2.097474	     120.176434
	 B(6,8,12)        =         2.165589	     124.079132
	 B(6,8,21)        =         2.108135	     120.787246
	 B(6,10,9)        =         2.096783	     120.136823
	 B(7,5,10)        =         2.058555	     117.946522
	 B(7,5,18)        =         2.098096	     120.212046
	 B(7,12,8)        =         2.030309	     116.328143
	 B(8,6,10)        =         2.058074	     117.918936
	 B(8,6,19)        =         2.100073	     120.325330
	 B(9,3,16)        =         2.110419	     120.918077
	 B(9,11,13)       =         2.108422	     120.803676
	 B(10,5,18)       =         2.126534	     121.841403
	 B(10,6,19)       =         2.125038	     121.755732
	 B(10,9,11)       =         2.097476	     120.176533
	 B(11,4,17)       =         2.093740	     119.962450
	 B(12,7,20)       =         2.009599	     115.141527
	 B(12,8,21)       =         2.009461	     115.133621
	 D(1,2,4,11)      =        -0.000325	      -0.018609
	 D(1,2,4,17)      =        -3.141151	    -179.974682
	 D(1,3,9,10)      =        -3.141334	    -179.985190
	 D(1,3,9,11)      =         0.000325	       0.018608
	 D(2,1,3,9)       =        -0.000348	      -0.019945
	 D(2,1,3,16)      =        -3.140969	    -179.964243
	 D(2,4,11,9)      =         0.000301	       0.017261
	 D(2,4,11,13)     =         3.140029	     179.910408
	 D(3,1,2,4)       =         0.000348	       0.019955
	 D(3,1,2,15)      =        -3.141142	    -179.974167
	 D(3,9,10,5)      =        -0.785208	     -44.989079
	 D(3,9,10,6)      =         2.354924	     134.927230
	 D(3,9,11,4)      =        -0.000301	      -0.017270
	 D(3,9,11,13)     =        -3.139999	    -179.908714
	 D(4,2,1,14)      =         3.141002	     179.966134
	 D(4,11,9,10)     =         3.141358	     179.986543
	 D(5,7,12,8)      =         0.000053	       0.003058
	 D(5,10,6,8)      =        -0.000169	      -0.009693
	 D(5,10,6,19)     =         3.141179	     179.976282
	 D(5,10,9,11)     =         2.356319	     135.007118
	 D(6,8,12,7)      =        -0.000489	      -0.028026
	 D(6,10,5,7)      =        -0.000221	      -0.012667
	 D(6,10,5,18)     =        -3.140722	    -179.950099
	 D(6,10,9,11)     =        -0.786735	     -45.076573
	 D(7,5,10,9)      =         3.139917	     179.904019
	 D(7,12,8,21)     =         3.140892	     179.959880
	 D(8,6,10,9)      =        -3.140308	    -179.926413
	 D(8,12,7,20)     =         3.140245	     179.922796
	 D(9,3,1,14)      =        -3.141002	    -179.966136
	 D(9,10,5,18)     =        -0.000583	      -0.033412
	 D(9,10,6,19)     =         0.001040	       0.059562
	 D(9,11,4,17)     =         3.141128	     179.973370
	 D(10,5,7,12)     =         0.000291	       0.016673
	 D(10,5,7,20)     =        -3.139825	    -179.898722
	 D(10,6,8,12)     =         0.000551	       0.031589
	 D(10,6,8,21)     =        -3.140819	    -179.955665
	 D(10,9,3,16)     =        -0.000731	      -0.041910
	 D(10,9,11,13)    =         0.001660	       0.095099
	 D(11,4,2,15)     =         3.141165	     179.975516
	 D(11,9,3,16)     =         3.140927	     179.961888
	 D(12,7,5,18)     =         3.140810	     179.955167
	 D(12,8,6,19)     =        -3.140800	    -179.954595
	 D(13,11,4,17)    =        -0.002330	      -0.133484
	 D(14,1,2,15)     =        -0.000488	      -0.027988
	 D(14,1,3,16)     =         0.001563	       0.089566
	 D(15,2,4,17)     =         0.000339	       0.019443
	 D(18,5,7,20)     =         0.000694	       0.039771
	 D(19,6,8,21)     =         0.001015	       0.058150
	 R(6,13)          =         5.304977	       2.807273

	Current energy   :      -577.7244280006

	Generating empirical Hessian (Schlegel '84) for each fragment.
	Adding user-defined constraint: Fragment 1; Coordinate 67:
		Value =    -0.785208; Fixed value    =    -0.785398
		Force =    -0.000095; Force constant =     0.500000
	Removing off-diagonal coupling between coordinate 67 and others.
	Taking RFO optimization step.
	Going to follow RFO solution 1.
	Using RFO vector 1.

	Determining step-restricting scale parameter for RS-RFO.
	Maximum step size allowed    0.10000

	 Iter      |step|        alpha        rfo_root  
	------------------------------------------------
	    0     0.18232       1.00000           1
	    1     0.14321       5.45778           1
	    2     0.11804      14.92224           1
	    3     0.10427      25.54667           1
	    4     0.10031      29.77018           1
	    5     0.10000      30.12957           1
	------------------------------------------------
	Norm of target step-size    0.10000
	Projected energy change by RFO approximation:        -0.0042054257

	Back-transformation to cartesian coordinates...
	Could not converge backtransformation.
	Using first guess instead.

	--- Internal Coordinate Step in ANG or DEG, aJ/ANG or AJ/DEG ---
	 ---------------------------------------------------------------------------
	   Coordinate                Previous        Force       Change         New 
	   ----------                --------       ------       ------       ------
	    1 R(1,2)          =      1.394038    -0.045657    -0.004970     1.389068
	    2 R(1,3)          =      1.394891    -0.057058    -0.006089     1.388802
	    3 R(1,14)         =      1.086619    -0.044133    -0.005887     1.080733
	    4 R(2,4)          =      1.394821    -0.066724    -0.007346     1.387475
	    5 R(2,15)         =      1.086434    -0.045533    -0.006043     1.080391
	    6 R(3,9)          =      1.394821    -0.019947    -0.001868     1.392953
	    7 R(3,16)         =      1.087437    -0.049759    -0.006637     1.080800
	    8 R(4,11)         =      1.395407    -0.109930    -0.011854     1.383553
	    9 R(4,17)         =      1.086343    -0.043988    -0.005739     1.080604
	   10 R(5,7)          =      1.384694     0.006045     0.000609     1.385302
	   11 R(5,10)         =      1.390131    -0.008517    -0.000339     1.389792
	   12 R(5,18)         =      1.085901    -0.040473    -0.005391     1.080509
	   13 R(6,8)          =      1.384666     0.005909     0.000623     1.385289
	   14 R(6,10)         =      1.390842    -0.011499    -0.000645     1.390197
	   15 R(6,19)         =      1.085703    -0.050445    -0.006717     1.078986
	   16 R(7,12)         =      1.352439    -0.124193    -0.012176     1.340263
	   17 R(7,20)         =      1.085354    -0.025040    -0.003327     1.082028
	   18 R(8,12)         =      1.351446    -0.112396    -0.011010     1.340436
	   19 R(8,21)         =      1.084940    -0.023438    -0.003104     1.081835
	   20 R(9,10)         =      1.447032     0.120994     0.015413     1.462445
	   21 R(9,11)         =      1.394521    -0.052868    -0.005207     1.389315
	   22 R(11,13)        =      1.341207    -0.017218    -0.001496     1.339711
	   23 B(1,2,4)        =    120.009056     0.000039     0.068241   120.077298
	   24 B(1,2,15)       =    120.018646     0.000072     0.205656   120.224302
	   25 B(1,3,9)        =    119.959722     0.000317     0.745898   120.705619
	   26 B(1,3,16)       =    119.122177     0.000144     0.417679   119.539857
	   27 B(2,1,3)        =    120.031219    -0.000081    -0.149506   119.881714
	   28 B(2,1,14)       =    119.995189     0.000039     0.071501   120.066691
	   29 B(2,4,11)       =    119.994870    -0.000275    -0.619359   119.375511
	   30 B(2,4,17)       =    120.042665     0.000289     0.706259   120.748924
	   31 B(3,1,14)       =    119.973570     0.000041     0.078023   120.051593
	   32 B(3,9,10)       =    119.778448     0.000621     1.138245   120.916693
	   33 B(3,9,11)       =    120.045019    -0.000835    -1.679741   118.365278
	   34 B(4,2,15)       =    119.972298    -0.000111    -0.273904   119.698394
	   35 B(4,11,9)       =    119.960108     0.000834     1.634358   121.594467
	   36 B(4,11,13)      =    119.236128    -0.000108    -0.276524   118.959604
	   37 B(5,7,12)       =    124.040568    -0.000024    -0.132832   123.907736
	   38 B(5,7,20)       =    120.817856    -0.000053    -0.103168   120.714687
	   39 B(5,10,6)       =    119.686690    -0.000854    -1.601699   118.084991
	   40 B(5,10,9)       =    120.176434     0.000413     0.717097   120.893532
	   41 B(6,8,12)       =    124.079132     0.000010    -0.048823   124.030310
	   42 B(6,8,21)       =    120.787246    -0.000070    -0.145243   120.642003
	   43 B(6,10,9)       =    120.136823     0.000440     0.884645   121.021468
	   44 B(7,5,10)       =    117.946522     0.000384     0.896246   118.842769
	   45 B(7,5,18)       =    120.212046    -0.000049    -0.075578   120.136467
	   46 B(7,12,8)       =    116.328143     0.000152     0.094074   116.422217
	   47 B(8,6,10)       =    117.918936     0.000332     0.792912   118.711848
	   48 B(8,6,19)       =    120.325330    -0.000069    -0.142183   120.183148
	   49 B(9,3,16)       =    120.918077    -0.000461    -1.164025   119.754052
	   50 B(9,11,13)      =    120.803676    -0.000726    -1.358044   119.445632
	   51 B(10,5,18)      =    121.841403    -0.000335    -0.820727   121.020676
	   52 B(10,6,19)      =    121.755732    -0.000264    -0.651153   121.104579
	   53 B(10,9,11)      =    120.176533     0.000214     0.541474   120.718007
	   54 B(11,4,17)      =    119.962450    -0.000015    -0.086916   119.875534
	   55 B(12,7,20)      =    115.141527     0.000077     0.236017   115.377544
	   56 B(12,8,21)      =    115.133621     0.000060     0.194065   115.327686
	   57 D(1,2,4,11)     =     -0.018609     0.000002     0.043121     0.024512
	   58 D(1,2,4,17)     =   -179.974682     0.000002     0.062766  -179.911915
	   59 D(1,3,9,10)     =   -179.985190     0.000000     0.017051  -179.968138
	   60 D(1,3,9,11)     =      0.018608    -0.000002    -0.040654    -0.022046
	   61 D(2,1,3,9)      =     -0.019945    -0.000002    -0.039659    -0.059603
	   62 D(2,1,3,16)     =   -179.964243     0.000007     0.155123  -179.809120
	   63 D(2,4,11,9)     =      0.017261    -0.000005    -0.126478    -0.109216
	   64 D(2,4,11,13)    =    179.910408     0.000007     0.179910   180.090318
	   65 D(3,1,2,4)      =      0.019955     0.000002     0.038492     0.058447
	   66 D(3,1,2,15)     =   -179.974167     0.000000     0.002736  -179.971431
	   67 D(3,9,10,5)     =    -44.989079     0.000008     0.063079   -44.926000
	   68 D(3,9,10,6)     =    134.927230     0.000010     0.110246   135.037475
	   69 D(3,9,11,4)     =     -0.017270     0.000005     0.124660     0.107390
	   70 D(3,9,11,13)    =   -179.908714    -0.000007    -0.184379  -180.093092
	   71 D(4,2,1,14)     =    179.966134     0.000005     0.112132   180.078266
	   72 D(4,11,9,10)    =    179.986543     0.000003     0.067051   180.053594
	   73 D(5,7,12,8)     =      0.003058    -0.000001    -0.013551    -0.010494
	   74 D(5,10,6,8)     =     -0.009693     0.000007     0.142900     0.133206
	   75 D(5,10,6,19)    =    179.976282    -0.000003    -0.080065   179.896217
	   76 D(5,10,9,11)    =    135.007118     0.000009     0.122059   135.129177
	   77 D(6,8,12,7)     =     -0.028026     0.000002     0.056804     0.028778
	   78 D(6,10,5,7)     =     -0.012667    -0.000005    -0.104194    -0.116861
	   79 D(6,10,5,18)    =   -179.950099    -0.000013    -0.274716  -180.224815
	   80 D(6,10,9,11)    =    -45.076573     0.000012     0.169225   -44.907347
	   81 D(7,5,10,9)     =    179.904019    -0.000003    -0.056359   179.847660
	   82 D(7,12,8,21)    =    179.959880     0.000004     0.083438   180.043318
	   83 D(8,6,10,9)     =   -179.926413     0.000004     0.095145  -179.831268
	   84 D(8,12,7,20)    =    179.922796     0.000006     0.131634   180.054429
	   85 D(9,3,1,14)     =   -179.966136    -0.000005    -0.113283  -180.079419
	   86 D(9,10,5,18)    =     -0.033412    -0.000010    -0.226880    -0.260293
	   87 D(9,10,6,19)    =      0.059562    -0.000006    -0.127819    -0.068257
	   88 D(9,11,4,17)    =    179.973370    -0.000006    -0.145594   179.827775
	   89 D(10,5,7,12)    =      0.016673     0.000002     0.040218     0.056891
	   90 D(10,5,7,20)    =   -179.898722    -0.000005    -0.112615  -180.011338
	   91 D(10,6,8,12)    =      0.031589    -0.000006    -0.124130    -0.092540
	   92 D(10,6,8,21)    =   -179.955665    -0.000007    -0.152150  -180.107815
	   93 D(10,9,3,16)    =     -0.041910    -0.000009    -0.177246    -0.219155
	   94 D(10,9,11,13)   =      0.095099    -0.000009    -0.241988    -0.146889
	   95 D(11,4,2,15)    =    179.975516     0.000004     0.078717   180.054233
	   96 D(11,9,3,16)    =    179.961888    -0.000010    -0.234951   179.726937
	   97 D(12,7,5,18)    =    179.955167     0.000009     0.208698   180.163865
	   98 D(12,8,6,19)    =   -179.954595     0.000004     0.096796  -179.857798
	   99 D(13,11,4,17)   =     -0.133484     0.000006     0.160794     0.027309
	  100 D(14,1,2,15)    =     -0.027988     0.000003     0.076375     0.048388
	  101 D(14,1,3,16)    =      0.089566     0.000003     0.081499     0.171065
	  102 D(15,2,4,17)    =      0.019443     0.000004     0.098362     0.117805
	  103 D(18,5,7,20)    =      0.039771     0.000003     0.055865     0.095635
	  104 D(19,6,8,21)    =      0.058150     0.000003     0.068776     0.126926
	  105 R(6,13)         =      2.807273     0.026656     0.010214     2.817487
	 ---------------------------------------------------------------------------
	Successfully symmetrized geometry.
	 Forces used to impose fixed constraints are not included.
	  Forces zeroed: 67 

  ==> Convergence Check <==

  Measures of convergence in internal coordinates in au.
  Criteria marked as inactive (o), active & met (*), and active & unmet ( ).
  --------------------------------------------------------------------------------------------- ~
   Step     Total Energy     Delta E     MAX Force     RMS Force      MAX Disp      RMS Disp    ~
  --------------------------------------------------------------------------------------------- ~
    Convergence Criteria    1.00e-06 *    3.00e-04 *             o    1.20e-03 *             o  ~
  --------------------------------------------------------------------------------------------- ~
      1    -577.72442800   -5.78e+02      1.51e-02      4.36e-03 o    2.93e-02      9.77e-03 o  ~
  ---------------------------------------------------------------------------------------------

	Writing optimization data to binary file.
	Structure for next step:
	Cartesian Geometry (in Angstrom)
	    C    -1.3881967117   0.8504741809  -2.6699189041
	    C    -2.4598033241   1.4200059769  -1.9940463848
	    C    -0.3556349184   0.2574738414  -1.9551195734
	    C    -2.4983298703   1.3977774504  -0.6072845174
	    C     1.2202615047  -1.6301395334  -0.1809308575
	    C     1.2513238643   0.2302325932   1.3095042889
	    C     2.2502683031  -2.1793409017   0.5650763779
	    C     2.2800987485  -0.4010035925   1.9893493884
	    C    -0.3801616349   0.2273601915  -0.5627082172
	    C     0.7049935779  -0.3952392203   0.1946250405
	    C    -1.4614716856   0.8049173868   0.0910434005
	    N     2.7901181442  -1.5907841680   1.6413978772
	    F    -1.5080765675   0.7865306348   1.4298171056
	    H    -1.3577458357   0.8690033303  -3.7500634352
	    H    -3.2662629460   1.8823731859  -2.5445781233
	    H     0.4769806801  -0.1812578603  -2.4865276589
	    H    -3.3273471537   1.8363125625  -0.0705147809
	    H     0.8286222644  -2.1597492328  -1.0374544550
	    H     0.8895279694   1.1904348240   1.6431588463
	    H     2.6738795252  -3.1390489372   0.2999393226
	    H     2.7291862138   0.0583473095   2.8598004224
			--------------------------
			 OPTKING Finished Execution 
			--------------------------

    Structure for next step:
    Molecular point group: c1
    Full point group: C1

    Geometry (in Angstrom), charge = 0, multiplicity = 1:

    C           -1.388332127538     0.850379520377    -2.665168631795
    C           -2.459938739873     1.419911316391    -1.989296112463
    C           -0.355770334205     0.257379180880    -1.950369301142
    C           -2.498465286138     1.397682789894    -0.602534245047
    C            1.220126088894    -1.630234193942    -0.176180585195
    C            1.251188448464     0.230137932688     1.314254561249
    C            2.250132887317    -2.179435562251     0.569826650215
    C            2.279963332661    -0.401098253039     1.994099660708
    C           -0.380297050667     0.227265531007    -0.557957944878
    C            0.704858162142    -0.395333880875     0.199375312799
    C           -1.461607101349     0.804822726247     0.095793672785
    N            2.789982728414    -1.590878828566     1.646148149527
    F           -1.508211983295     0.786435974236     1.434567377924
    H           -1.357881251510     0.868908669797    -3.745313162851
    H           -3.266398361798     1.882278525344    -2.539827850992
    H            0.476845264261    -0.181352520865    -2.481777386603
    H           -3.327482569455     1.836217902012    -0.065764508609
    H            0.828486848656    -2.159843893308    -1.032704182702
    H            0.889392553568     1.190340163440     1.647909118614
    H            2.673744109379    -3.139143597705     0.304689594908
    H            2.729050798055     0.058252648963     2.864550694745

gradient() will perform analytic gradient computation.

*** tstart() called on gpu-2-14.local
*** at Mon Nov 13 12:57:14 2017

    SCF Algorithm Type (re)set to DF.

*** tstart() called on gpu-2-14.local
*** at Mon Nov 13 12:57:14 2017

   => Loading Basis Set <=

    Name: AUG-CC-PVTZ
    Role: ORBITAL
    Keyword: BASIS
    atoms 1-11  entry C          line   221 file /cbio/jclab/home/chayas/anaconda/envs/py35/share/psi4/basis/aug-cc-pvtz.gbs 
    atoms 12    entry N          line   267 file /cbio/jclab/home/chayas/anaconda/envs/py35/share/psi4/basis/aug-cc-pvtz.gbs 
    atoms 13    entry F          line   359 file /cbio/jclab/home/chayas/anaconda/envs/py35/share/psi4/basis/aug-cc-pvtz.gbs 
    atoms 14-21 entry H          line    34 file /cbio/jclab/home/chayas/anaconda/envs/py35/share/psi4/basis/aug-cc-pvtz.gbs 


         ---------------------------------------------------------
                                   SCF
            by Justin Turney, Rob Parrish, and Andy Simmonett
                              RHF Reference
                        8 Threads,   4768 MiB Core
         ---------------------------------------------------------

  ==> Geometry <==

    Molecular point group: c1
    Full point group: C1

    Geometry (in Angstrom), charge = 0, multiplicity = 1:

       Center              X                  Y                   Z               Mass       
    ------------   -----------------  -----------------  -----------------  -----------------
           C         -1.388332127538     0.850379520377    -2.665168631795    12.000000000000
           C         -2.459938739873     1.419911316391    -1.989296112463    12.000000000000
           C         -0.355770334205     0.257379180880    -1.950369301142    12.000000000000
           C         -2.498465286138     1.397682789894    -0.602534245047    12.000000000000
           C          1.220126088894    -1.630234193942    -0.176180585195    12.000000000000
           C          1.251188448464     0.230137932688     1.314254561249    12.000000000000
           C          2.250132887317    -2.179435562251     0.569826650215    12.000000000000
           C          2.279963332661    -0.401098253039     1.994099660708    12.000000000000
           C         -0.380297050667     0.227265531007    -0.557957944878    12.000000000000
           C          0.704858162142    -0.395333880875     0.199375312799    12.000000000000
           C         -1.461607101349     0.804822726247     0.095793672785    12.000000000000
           N          2.789982728414    -1.590878828566     1.646148149527    14.003074004780
           F         -1.508211983295     0.786435974236     1.434567377924    18.998403224000
           H         -1.357881251510     0.868908669797    -3.745313162851     1.007825032070
           H         -3.266398361798     1.882278525344    -2.539827850992     1.007825032070
           H          0.476845264261    -0.181352520865    -2.481777386603     1.007825032070
           H         -3.327482569455     1.836217902012    -0.065764508609     1.007825032070
           H          0.828486848656    -2.159843893308    -1.032704182702     1.007825032070
           H          0.889392553568     1.190340163440     1.647909118614     1.007825032070
           H          2.673744109379    -3.139143597705     0.304689594908     1.007825032070
           H          2.729050798055     0.058252648963     2.864550694745     1.007825032070

  Running in c1 symmetry.

  Rotational constants: A =      0.06505  B =      0.01800  C =      0.01490 [cm^-1]
  Rotational constants: A =   1950.08963  B =    539.69059  C =    446.76249 [MHz]
  Nuclear repulsion =  716.922432691576432

  Charge       = 0
  Multiplicity = 1
  Electrons    = 90
  Nalpha       = 45
  Nbeta        = 45

  ==> Algorithm <==

  SCF Algorithm Type is DF.
  DIIS enabled.
  MOM disabled.
  Fractional occupation disabled.
  Guess Type is READ.
  Energy threshold   = 1.00e-10
  Density threshold  = 1.00e-10
  Integral threshold = 0.00e+00

  ==> Primary Basis <==

  Basis Set: AUG-CC-PVTZ
    Blend: AUG-CC-PVTZ
    Number of shells: 254
    Number of basis function: 782
    Number of Cartesian functions: 915
    Spherical Harmonics?: true
    Max angular momentum: 3

   => Loading Basis Set <=

    Name: (AUG-CC-PVTZ AUX)
    Role: JKFIT
    Keyword: DF_BASIS_SCF
    atoms 1-11  entry C          line   161 file /cbio/jclab/home/chayas/anaconda/envs/py35/share/psi4/basis/aug-cc-pvtz-jkfit.gbs 
    atoms 12    entry N          line   223 file /cbio/jclab/home/chayas/anaconda/envs/py35/share/psi4/basis/aug-cc-pvtz-jkfit.gbs 
    atoms 13    entry F          line   347 file /cbio/jclab/home/chayas/anaconda/envs/py35/share/psi4/basis/aug-cc-pvtz-jkfit.gbs 
    atoms 14-21 entry H          line    69 file /cbio/jclab/home/chayas/anaconda/envs/py35/share/psi4/basis/aug-cc-pvtz-jkfit.gbs 

  Reading orbitals from file 180, no projection.

  ==> Pre-Iterations <==

   -------------------------------------------------------
    Irrep   Nso     Nmo     Nalpha   Nbeta   Ndocc  Nsocc
   -------------------------------------------------------
     A        782     782       0       0       0       0
   -------------------------------------------------------
    Total     782     782      45      45      45       0
   -------------------------------------------------------

  ==> Integral Setup <==

  ==> DFJK: Density-Fitted J/K Matrices <==

    J tasked:                  Yes
    K tasked:                  Yes
    wK tasked:                  No
    OpenMP threads:              8
    Integrals threads:           8
    Memory (MB):              3576
    Algorithm:                Disk
    Integral Cache:           NONE
    Schwarz Cutoff:          1E-12
    Fitting Condition:       1E-12

   => Auxiliary Basis Set <=

  Basis Set: (AUG-CC-PVTZ AUX)
    Blend: AUG-CC-PVTZ-JKFIT
    Number of shells: 502
    Number of basis function: 1720
    Number of Cartesian functions: 2143
    Spherical Harmonics?: true
    Max angular momentum: 4

  Minimum eigenvalue in the overlap matrix is 6.4109029772E-07.
  Using Symmetric Orthogonalization.

  SCF Guess: Orbitals guess was supplied from a previous computation.

  ==> Iterations <==

                           Total Energy        Delta E     RMS |[F,P]|

   @DF-RHF iter   0:  -575.37920782292031   -5.75379e+02   3.96086e-04 
   @DF-RHF iter   1:  -575.28836483895020    9.08430e-02   1.06163e-04 
   @DF-RHF iter   2:  -575.28882223297592   -4.57394e-04   7.28129e-05 DIIS
   @DF-RHF iter   3:  -575.28914274501051   -3.20512e-04   1.15350e-05 DIIS
   @DF-RHF iter   4:  -575.28915053238507   -7.78737e-06   3.86788e-06 DIIS
   @DF-RHF iter   5:  -575.28915248730732   -1.95492e-06   1.49055e-06 DIIS
   @DF-RHF iter   6:  -575.28915292951979   -4.42212e-07   9.12895e-07 DIIS
   @DF-RHF iter   7:  -575.28915311186529   -1.82346e-07   3.42481e-07 DIIS
   @DF-RHF iter   8:  -575.28915315275367   -4.08884e-08   1.04420e-07 DIIS
   @DF-RHF iter   9:  -575.28915315537165   -2.61798e-09   4.16252e-08 DIIS
   @DF-RHF iter  10:  -575.28915315558504   -2.13390e-10   1.35350e-08 DIIS
   @DF-RHF iter  11:  -575.28915315560403   -1.89857e-11   3.29842e-09 DIIS
   @DF-RHF iter  12:  -575.28915315559937    4.66116e-12   1.43064e-09 DIIS
   @DF-RHF iter  13:  -575.28915315560346   -4.09273e-12   4.56776e-10 DIIS
   @DF-RHF iter  14:  -575.28915315560766   -4.20641e-12   2.50285e-10 DIIS
   @DF-RHF iter  15:  -575.28915315560641    1.25056e-12   1.33079e-10 DIIS
   @DF-RHF iter  16:  -575.28915315561130   -4.88853e-12   2.79479e-11 DIIS

  ==> Post-Iterations <==

    Orbital Energies (a.u.)
    -----------------------

    Doubly Occupied:                                                      

       1A    -26.320978     2A    -15.563952     3A    -11.339078  
       4A    -11.273272     5A    -11.271943     6A    -11.268184  
       7A    -11.261662     8A    -11.257240     9A    -11.256684  
      10A    -11.252290    11A    -11.248262    12A    -11.240168  
      13A    -11.237571    14A     -1.642189    15A     -1.257081  
      16A     -1.186101    17A     -1.114995    18A     -1.039293  
      19A     -1.034006    20A     -1.028587    21A     -0.892613  
      22A     -0.873009    23A     -0.847843    24A     -0.825848  
      25A     -0.758116    26A     -0.722956    27A     -0.717868  
      28A     -0.708557    29A     -0.671546    30A     -0.663195  
      31A     -0.652756    32A     -0.626539    33A     -0.612254  
      34A     -0.597985    35A     -0.590862    36A     -0.550361  
      37A     -0.539464    38A     -0.525279    39A     -0.518217  
      40A     -0.509401    41A     -0.419624    42A     -0.404400  
      43A     -0.354497    44A     -0.348884    45A     -0.334495  

    Virtual:                                                              

      46A      0.023624    47A      0.029851    48A      0.033758  
      49A      0.038129    50A      0.043705    51A      0.046941  
      52A      0.054171    53A      0.055760    54A      0.070537  
      55A      0.079208    56A      0.084120    57A      0.086935  
      58A      0.092620    59A      0.094584    60A      0.099085  
      61A      0.103437    62A      0.107261    63A      0.108804  
      64A      0.112936    65A      0.114470    66A      0.115631  
      67A      0.119894    68A      0.120530    69A      0.128831  
      70A      0.130329    71A      0.133158    72A      0.135696  
      73A      0.137296    74A      0.143347    75A      0.145507  
      76A      0.149837    77A      0.150847    78A      0.151509  
      79A      0.159079    80A      0.163518    81A      0.169534  
      82A      0.175681    83A      0.178554    84A      0.180983  
      85A      0.187704    86A      0.199516    87A      0.203348  
      88A      0.217654    89A      0.218743    90A      0.224700  
      91A      0.231410    92A      0.232852    93A      0.234573  
      94A      0.237797    95A      0.242761    96A      0.246990  
      97A      0.248649    98A      0.253048    99A      0.258483  
     100A      0.264115   101A      0.268085   102A      0.270090  
     103A      0.273006   104A      0.282167   105A      0.283876  
     106A      0.288518   107A      0.292504   108A      0.296557  
     109A      0.301603   110A      0.305762   111A      0.311092  
     112A      0.314651   113A      0.317916   114A      0.319601  
     115A      0.321495   116A      0.326018   117A      0.330646  
     118A      0.337301   119A      0.338940   120A      0.345740  
     121A      0.347897   122A      0.356879   123A      0.359335  
     124A      0.367016   125A      0.372685   126A      0.379076  
     127A      0.379963   128A      0.387195   129A      0.393920  
     130A      0.398354   131A      0.406920   132A      0.409959  
     133A      0.415609   134A      0.422291   135A      0.424800  
     136A      0.430902   137A      0.434878   138A      0.437021  
     139A      0.437754   140A      0.443029   141A      0.446894  
     142A      0.450893   143A      0.458357   144A      0.465943  
     145A      0.469437   146A      0.470885   147A      0.476115  
     148A      0.477133   149A      0.478688   150A      0.481482  
     151A      0.485555   152A      0.491239   153A      0.492143  
     154A      0.496939   155A      0.497765   156A      0.501596  
     157A      0.507890   158A      0.511354   159A      0.514129  
     160A      0.514754   161A      0.521189   162A      0.522699  
     163A      0.527067   164A      0.529158   165A      0.533564  
     166A      0.538809   167A      0.540256   168A      0.543329  
     169A      0.548515   170A      0.549761   171A      0.556354  
     172A      0.561210   173A      0.572032   174A      0.575840  
     175A      0.579178   176A      0.585392   177A      0.591886  
     178A      0.597010   179A      0.602359   180A      0.608388  
     181A      0.611876   182A      0.624810   183A      0.631492  
     184A      0.636309   185A      0.641115   186A      0.652554  
     187A      0.656633   188A      0.667229   189A      0.677705  
     190A      0.680293   191A      0.683839   192A      0.687422  
     193A      0.695051   194A      0.700939   195A      0.703215  
     196A      0.710054   197A      0.713400   198A      0.723324  
     199A      0.725479   200A      0.731680   201A      0.737052  
     202A      0.742686   203A      0.748197   204A      0.750926  
     205A      0.754126   206A      0.763399   207A      0.766563  
     208A      0.768776   209A      0.779436   210A      0.791312  
     211A      0.796541   212A      0.803803   213A      0.806076  
     214A      0.814286   215A      0.826070   216A      0.835730  
     217A      0.845426   218A      0.851473   219A      0.853092  
     220A      0.857524   221A      0.859073   222A      0.863360  
     223A      0.872390   224A      0.876529   225A      0.878306  
     226A      0.879137   227A      0.882455   228A      0.888460  
     229A      0.892234   230A      0.899375   231A      0.902291  
     232A      0.910930   233A      0.914349   234A      0.920858  
     235A      0.924707   236A      0.932042   237A      0.937121  
     238A      0.938741   239A      0.942077   240A      0.950362  
     241A      0.953169   242A      0.961399   243A      0.964085  
     244A      0.968823   245A      0.978063   246A      0.980268  
     247A      0.984536   248A      0.984927   249A      0.993032  
     250A      1.001608   251A      1.002686   252A      1.009760  
     253A      1.011977   254A      1.015164   255A      1.022149  
     256A      1.026546   257A      1.032947   258A      1.039837  
     259A      1.042079   260A      1.052401   261A      1.053677  
     262A      1.064135   263A      1.068361   264A      1.068793  
     265A      1.073419   266A      1.076168   267A      1.076638  
     268A      1.081818   269A      1.085181   270A      1.090008  
     271A      1.095403   272A      1.108618   273A      1.110394  
     274A      1.113148   275A      1.118901   276A      1.122740  
     277A      1.125660   278A      1.134150   279A      1.138531  
     280A      1.144481   281A      1.147817   282A      1.152811  
     283A      1.160121   284A      1.163861   285A      1.171306  
     286A      1.181579   287A      1.183182   288A      1.185043  
     289A      1.192504   290A      1.198079   291A      1.199926  
     292A      1.203377   293A      1.208379   294A      1.212748  
     295A      1.225911   296A      1.231068   297A      1.235665  
     298A      1.236758   299A      1.242447   300A      1.245750  
     301A      1.254645   302A      1.262097   303A      1.270498  
     304A      1.274588   305A      1.282525   306A      1.286853  
     307A      1.291538   308A      1.296486   309A      1.309897  
     310A      1.319324   311A      1.321081   312A      1.333184  
     313A      1.335142   314A      1.346034   315A      1.350614  
     316A      1.359084   317A      1.367283   318A      1.372428  
     319A      1.379997   320A      1.381001   321A      1.393992  
     322A      1.397590   323A      1.405660   324A      1.410055  
     325A      1.423298   326A      1.424087   327A      1.438931  
     328A      1.442989   329A      1.446222   330A      1.464979  
     331A      1.475930   332A      1.482222   333A      1.489882  
     334A      1.497345   335A      1.500762   336A      1.506885  
     337A      1.509299   338A      1.527786   339A      1.540810  
     340A      1.543755   341A      1.550598   342A      1.567042  
     343A      1.569189   344A      1.583451   345A      1.589366  
     346A      1.592986   347A      1.603933   348A      1.606059  
     349A      1.625889   350A      1.627875   351A      1.645164  
     352A      1.651040   353A      1.654655   354A      1.659170  
     355A      1.669990   356A      1.678105   357A      1.681664  
     358A      1.689923   359A      1.702346   360A      1.710875  
     361A      1.716978   362A      1.721338   363A      1.725867  
     364A      1.730427   365A      1.741374   366A      1.746334  
     367A      1.756247   368A      1.758070   369A      1.768652  
     370A      1.782683   371A      1.787329   372A      1.793148  
     373A      1.810895   374A      1.812462   375A      1.815433  
     376A      1.825340   377A      1.831646   378A      1.845829  
     379A      1.854841   380A      1.867715   381A      1.870826  
     382A      1.879233   383A      1.887396   384A      1.896293  
     385A      1.907848   386A      1.916370   387A      1.921979  
     388A      1.927243   389A      1.936757   390A      1.943292  
     391A      1.953862   392A      1.956550   393A      1.963759  
     394A      1.968779   395A      1.977729   396A      1.992963  
     397A      2.002480   398A      2.004824   399A      2.010008  
     400A      2.013355   401A      2.019537   402A      2.027202  
     403A      2.037893   404A      2.048375   405A      2.051294  
     406A      2.059160   407A      2.064436   408A      2.074045  
[...]
	 R(4,17)          =         2.036894	       1.077878
	 R(5,7)           =         2.618563	       1.385684
	 R(5,10)          =         2.629041	       1.391229
	 R(5,18)          =         2.040411	       1.079739
	 R(6,8)           =         2.618462	       1.385630
	 R(6,10)          =         2.628731	       1.391064
	 R(6,19)          =         2.037492	       1.078194
	 R(7,12)          =         2.522108	       1.334642
	 R(7,20)          =         2.042825	       1.081017
	 R(8,12)          =         2.523346	       1.335297
	 R(8,21)          =         2.042529	       1.080860
	 R(9,10)          =         2.763446	       1.462353
	 R(9,11)          =         2.625717	       1.389470
	 R(11,13)         =         2.544984	       1.346747
	 B(1,2,4)         =         2.093126	     119.927258
	 B(1,2,15)        =         2.102169	     120.445398
	 B(1,3,9)         =         2.120442	     121.492355
	 B(1,3,16)        =         2.096639	     120.128572
	 B(2,1,3)         =         2.091867	     119.855126
	 B(2,1,14)        =         2.098006	     120.206864
	 B(2,4,11)        =         2.077002	     119.003435
	 B(2,4,17)        =         2.127167	     121.877693
	 B(3,1,14)        =         2.093279	     119.936080
	 B(3,9,10)        =         2.107634	     120.758548
	 B(3,9,11)        =         2.040303	     116.900726
	 B(4,2,15)        =         2.087890	     119.627271
	 B(4,11,9)        =         2.143612	     122.819937
	 B(4,11,13)       =         2.061402	     118.109612
	 B(5,7,12)        =         2.156953	     123.584304
	 B(5,7,20)        =         2.096314	     120.109957
	 B(5,10,6)        =         2.044539	     117.143433
	 B(5,10,9)        =         2.104032	     120.552126
	 B(6,8,12)        =         2.160795	     123.804441
	 B(6,8,21)        =         2.094124	     119.984493
	 B(6,10,9)        =         2.134555	     122.301005
	 B(7,5,10)        =         2.084964	     119.459626
	 B(7,5,18)        =         2.097594	     120.183262
	 B(7,12,8)        =         2.037955	     116.766192
	 B(8,6,10)        =         2.081102	     119.238347
	 B(8,6,19)        =         2.096894	     120.143179
	 B(9,3,16)        =         2.065938	     118.369544
	 B(9,11,13)       =         2.077957	     119.058165
	 B(10,5,18)       =         2.100525	     120.351194
	 B(10,6,19)       =         2.105114	     120.614163
	 B(10,9,11)       =         2.135208	     122.338426
	 B(11,4,17)       =         2.079007	     119.118334
	 B(12,7,20)       =         2.029910	     116.305296
	 B(12,8,21)       =         2.028266	     116.211064
	 D(1,2,4,11)      =         0.002525	       0.144646
	 D(1,2,4,17)      =        -3.134367	    -179.586022
	 D(1,3,9,10)      =        -3.136707	    -179.720050
	 D(1,3,9,11)      =        -0.004523	      -0.259173
	 D(2,1,3,9)       =         0.001097	       0.062831
	 D(2,1,3,16)      =        -3.120575	    -178.795779
	 D(2,4,11,9)      =        -0.006336	      -0.363041
	 D(2,4,11,13)     =        -3.125441	    -179.074580
	 D(3,1,2,4)       =        -0.000018	      -0.001035
	 D(3,1,2,15)      =         3.139857	     179.900550
	 D(3,9,10,5)      =        -0.782953	     -44.859893
	 D(3,9,10,6)      =         2.346531	     134.446298
	 D(3,9,11,4)      =         0.007230	       0.414226
	 D(3,9,11,13)     =         3.126131	     179.114088
	 D(4,2,1,14)      =        -3.132785	    -179.495372
	 D(4,11,9,10)     =         3.139252	     179.865898
	 D(5,7,12,8)      =         0.003005	       0.172151
	 D(5,10,6,8)      =         0.012534	       0.718141
	 D(5,10,6,19)     =         3.140963	     179.963928
	 D(5,10,9,11)     =         2.368571	     135.709149
	 D(6,8,12,7)      =        -0.000336	      -0.019265
	 D(6,10,5,7)      =        -0.010117	      -0.579672
	 D(6,10,5,18)     =         3.116059	     178.537049
	 D(6,10,9,11)     =        -0.785130	     -44.984659
	 D(7,5,10,9)      =         3.119973	     178.761306
	 D(7,12,8,21)     =         3.141565	     179.998433
	 D(8,6,10,9)      =        -3.117340	    -178.610429
	 D(8,12,7,20)     =        -3.134352	    -179.585159
	 D(9,3,1,14)      =         3.133888	     179.558549
	 D(9,10,5,18)     =        -0.037035	      -2.121973
	 D(9,10,6,19)     =         0.011089	       0.635358
	 D(9,11,4,17)     =         3.130687	     179.375162
	 D(10,5,7,12)     =         0.002403	       0.137702
	 D(10,5,7,20)     =         3.139607	     179.886208
	 D(10,6,8,12)     =        -0.007663	      -0.439061
	 D(10,6,8,21)     =         3.133610	     179.542608
	 D(10,9,3,16)     =        -0.014695	      -0.841981
	 D(10,9,11,13)    =        -0.025032	      -1.434240
	 D(11,4,2,15)     =        -3.137365	    -179.757749
	 D(11,9,3,16)     =         3.117488	     178.618897
	 D(12,7,5,18)     =        -3.123800	    -178.980529
	 D(12,8,6,19)     =        -3.136155	    -179.688473
	 D(13,11,4,17)    =         0.011582	       0.663622
	 D(14,1,2,15)     =         0.007090	       0.406213
	 D(14,1,3,16)     =         0.012216	       0.699940
	 D(15,2,4,17)     =         0.008929	       0.511583
	 D(18,5,7,20)     =         0.013404	       0.767978
	 D(19,6,8,21)     =         0.005117	       0.293195
	 R(6,13)          =         5.469001	       2.894070

	Current energy   :      -577.7278927031

	Energy change for the previous step:
		Projected    :         0.0000088955
		Actual       :        -0.0000004664

	Performing BFGS update.
	Previous computed or guess Hessian on step 1.
	Steps to be used in Hessian update: 5 4
	Adding user-defined constraint: Fragment 1; Coordinate 67:
		Value =    -0.782953; Fixed value    =    -0.785400
		Force =    -0.001529; Force constant =     0.625000
	Removing off-diagonal coupling between coordinate 67 and others.
	Taking RFO optimization step.
	Going to follow RFO solution 1.
	Using RFO vector 1.
	Norm of target step-size    0.00507
	Projected energy change by RFO approximation:        -0.0000024403

	Back-transformation to cartesian coordinates...
	Successfully converged to displaced geometry.

	--- Internal Coordinate Step in ANG or DEG, aJ/ANG or AJ/DEG ---
	 ---------------------------------------------------------------------------
	   Coordinate                Previous        Force       Change         New 
	   ----------                --------       ------       ------       ------
	    1 R(1,2)          =      1.388087     0.000175     0.000030     1.388117
	    2 R(1,3)          =      1.385492     0.000037     0.000015     1.385507
	    3 R(1,14)         =      1.078449    -0.000008     0.000007     1.078457
	    4 R(2,4)          =      1.386912    -0.000135    -0.000006     1.386906
	    5 R(2,15)         =      1.078772    -0.000004     0.000009     1.078781
	    6 R(3,9)          =      1.395247     0.000039     0.000012     1.395259
	    7 R(3,16)         =      1.079789     0.000027     0.000013     1.079802
	    8 R(4,11)         =      1.379454     0.000288     0.000055     1.379510
	    9 R(4,17)         =      1.077878     0.000001     0.000007     1.077885
	   10 R(5,7)          =      1.385684     0.000108     0.000019     1.385703
	   11 R(5,10)         =      1.391229    -0.000409    -0.000055     1.391173
	   12 R(5,18)         =      1.079739     0.000077     0.000019     1.079758
	   13 R(6,8)          =      1.385630     0.000186     0.000028     1.385659
	   14 R(6,10)         =      1.391064    -0.000304    -0.000043     1.391021
	   15 R(6,19)         =      1.078194     0.000146     0.000036     1.078231
	   16 R(7,12)         =      1.334642    -0.000126    -0.000003     1.334638
	   17 R(7,20)         =      1.081017    -0.000082    -0.000012     1.081005
	   18 R(8,12)         =      1.335297    -0.000223    -0.000015     1.335282
	   19 R(8,21)         =      1.080860    -0.000105    -0.000016     1.080844
	   20 R(9,10)         =      1.462353     0.000825     0.000113     1.462466
	   21 R(9,11)         =      1.389470    -0.000377    -0.000033     1.389436
	   22 R(11,13)        =      1.346747    -0.001021    -0.000101     1.346646
	   23 B(1,2,4)        =    119.927258    -0.000000    -0.000153   119.927105
	   24 B(1,2,15)       =    120.445398    -0.000000    -0.001047   120.444351
	   25 B(1,3,9)        =    121.492355    -0.000000    -0.000351   121.492004
	   26 B(1,3,16)       =    120.128572    -0.000001    -0.005329   120.123243
	   27 B(2,1,3)        =    119.855126    -0.000001    -0.003391   119.851735
	   28 B(2,1,14)       =    120.206864     0.000001     0.002136   120.209000
	   29 B(2,4,11)       =    119.003435     0.000002     0.006111   119.009546
	   30 B(2,4,17)       =    121.877693    -0.000002    -0.006703   121.870990
	   31 B(3,1,14)       =    119.936080     0.000001     0.001359   119.937439
	   32 B(3,9,10)       =    120.758548    -0.000002    -0.007284   120.751264
	   33 B(3,9,11)       =    116.900726     0.000002     0.007683   116.908409
	   34 B(4,2,15)       =    119.627271     0.000000     0.001177   119.628448
	   35 B(4,11,9)       =    122.819937    -0.000003    -0.009992   122.809945
	   36 B(4,11,13)      =    118.109612     0.000002     0.003575   118.113187
	   37 B(5,7,12)       =    123.584304     0.000001     0.004454   123.588758
	   38 B(5,7,20)       =    120.109957     0.000001     0.007104   120.117061
	   39 B(5,10,6)       =    117.143433     0.000000     0.000709   117.144142
	   40 B(5,10,9)       =    120.552126     0.000002     0.004137   120.556263
	   41 B(6,8,12)       =    123.804441     0.000000     0.002267   123.806708
	   42 B(6,8,21)       =    119.984493     0.000002     0.006983   119.991476
	   43 B(6,10,9)       =    122.301005    -0.000002    -0.004903   122.296102
	   44 B(7,5,10)       =    119.459626    -0.000000    -0.001520   119.458106
	   45 B(7,5,18)       =    120.183262    -0.000000    -0.000061   120.183201
	   46 B(7,12,8)       =    116.766192    -0.000002    -0.006062   116.760130
	   47 B(8,6,10)       =    119.238347     0.000000     0.000362   119.238709
	   48 B(8,6,19)       =    120.143179     0.000001     0.004702   120.147881
	   49 B(9,3,16)       =    118.369544     0.000001     0.005495   118.375039
	   50 B(9,11,13)      =    119.058165     0.000001     0.005493   119.063658
	   51 B(10,5,18)      =    120.351194     0.000000     0.001688   120.352882
	   52 B(10,6,19)      =    120.614163    -0.000001    -0.004851   120.609312
	   53 B(10,9,11)      =    122.338426    -0.000001    -0.000392   122.338034
	   54 B(11,4,17)      =    119.118334    -0.000000     0.000523   119.118857
	   55 B(12,7,20)      =    116.305296    -0.000003    -0.012350   116.292946
	   56 B(12,8,21)      =    116.211064    -0.000002    -0.009347   116.201716
	   57 D(1,2,4,11)     =      0.144646    -0.000000    -0.016717     0.127929
	   58 D(1,2,4,17)     =   -179.586022    -0.000000     0.000114  -179.585908
	   59 D(1,3,9,10)     =   -179.720050     0.000000    -0.009094  -179.729145
	   60 D(1,3,9,11)     =     -0.259173    -0.000000    -0.008153    -0.267326
	   61 D(2,1,3,9)      =      0.062831    -0.000000    -0.015495     0.047335
	   62 D(2,1,3,16)     =   -178.795779    -0.000000    -0.004506  -178.800284
	   63 D(2,4,11,9)     =     -0.363041    -0.000000    -0.007770    -0.370812
	   64 D(2,4,11,13)    =   -179.074580     0.000000     0.039692  -179.034888
	   65 D(3,1,2,4)      =     -0.001035     0.000000     0.028113     0.027078
	   66 D(3,1,2,15)     =    179.900550     0.000000     0.013500   179.914050
	   67 D(3,9,10,5)     =    -44.859893    -0.000002    -0.025994   -44.885888
	   68 D(3,9,10,6)     =    134.446298    -0.000001    -0.031685   134.414613
	   69 D(3,9,11,4)     =      0.414226     0.000001     0.019966     0.434192
	   70 D(3,9,11,13)    =    179.114088     0.000000    -0.027954   179.086135
	   71 D(4,2,1,14)     =   -179.495372     0.000000     0.014281  -179.481091
	   72 D(4,11,9,10)    =    179.865898    -0.000000     0.020885   179.886783
	   73 D(5,7,12,8)     =      0.172151    -0.000000    -0.063090     0.109061
	   74 D(5,10,6,8)     =      0.718141     0.000000    -0.033604     0.684537
	   75 D(5,10,6,19)    =    179.963928     0.000000    -0.014730   179.949198
	   76 D(5,10,9,11)    =    135.709149    -0.000001    -0.027029   135.682120
	   77 D(6,8,12,7)     =     -0.019265    -0.000000    -0.010963    -0.030228
	   78 D(6,10,5,7)     =     -0.579672    -0.000001    -0.034141    -0.613813
	   79 D(6,10,5,18)    =    178.537049    -0.000001    -0.026128   178.510921
	   80 D(6,10,9,11)    =    -44.984659    -0.000001    -0.032720   -45.017380
	   81 D(7,5,10,9)     =    178.761306     0.000000    -0.039587   178.721719
	   82 D(7,12,8,21)    =    179.998433     0.000001     0.086652   180.085086
	   83 D(8,6,10,9)     =   -178.610429    -0.000001    -0.028121  -178.638550
	   84 D(8,12,7,20)    =   -179.585159     0.000001     0.099251  -179.485909
	   85 D(9,3,1,14)     =    179.558549     0.000000    -0.001698   179.556852
	   86 D(9,10,5,18)    =     -2.121973     0.000000    -0.031574    -2.153547
	   87 D(9,10,6,19)    =      0.635358    -0.000001    -0.009247     0.626111
	   88 D(9,11,4,17)    =    179.375162    -0.000000    -0.024152   179.351009
	   89 D(10,5,7,12)    =      0.137702     0.000001     0.086915     0.224617
	   90 D(10,5,7,20)    =    179.886208    -0.000001    -0.081390   179.804818
	   91 D(10,6,8,12)    =     -0.439061     0.000000     0.059313    -0.379748
	   92 D(10,6,8,21)    =    179.542608    -0.000000    -0.041816   179.500792
	   93 D(10,9,3,16)    =     -0.841981     0.000000    -0.020016    -0.861997
	   94 D(10,9,11,13)   =     -1.434240    -0.000001    -0.027035    -1.461275
	   95 D(11,4,2,15)    =   -179.757749     0.000000    -0.002222  -179.759970
	   96 D(11,9,3,16)    =    178.618897    -0.000000    -0.019075   178.599822
	   97 D(12,7,5,18)    =   -178.980529     0.000001     0.078900  -178.901629
	   98 D(12,8,6,19)    =   -179.688473     0.000000     0.040601  -179.647872
	   99 D(13,11,4,17)   =      0.663622     0.000000     0.023310     0.686933
	  100 D(14,1,2,15)    =      0.406213    -0.000000    -0.000332     0.405881
	  101 D(14,1,3,16)    =      0.699940     0.000000     0.009292     0.709232
	  102 D(15,2,4,17)    =      0.511583     0.000000     0.014609     0.526193
	  103 D(18,5,7,20)    =      0.767978    -0.000001    -0.089405     0.678573
	  104 D(19,6,8,21)    =      0.293195    -0.000001    -0.060528     0.232667
	  105 R(6,13)         =      2.894070     0.000265     0.000621     2.894692
	 ---------------------------------------------------------------------------
	Successfully symmetrized geometry.
	 Forces used to impose fixed constraints are not included.
	  Forces zeroed: 67 

  ==> Convergence Check <==

  Measures of convergence in internal coordinates in au.
  Criteria marked as inactive (o), active & met (*), and active & unmet ( ).
  ---------------------------------------------------------------------------------------------
   Step     Total Energy     Delta E     MAX Force     RMS Force      MAX Disp      RMS Disp   
  ---------------------------------------------------------------------------------------------
    Convergence Criteria    1.00e-06 *    3.00e-04 *             o    1.20e-03 *             o
  ---------------------------------------------------------------------------------------------
      6    -577.72789270   -4.66e-07 *    1.24e-04 *    2.89e-05 o    1.73e-03      4.95e-04 o  ~
  ---------------------------------------------------------------------------------------------


  **** Optimization is complete! (in 6 steps) ****

  ==> Optimization Summary <==

  Measures of convergence in internal coordinates in au.
  --------------------------------------------------------------------------------------------------------------- ~
   Step         Total Energy             Delta E       MAX Force       RMS Force        MAX Disp        RMS Disp  ~
  --------------------------------------------------------------------------------------------------------------- ~
      1    -577.724428000619   -577.724428000619      0.01507433      0.00436177      0.02931702      0.00977014  ~
      2    -577.727209722322     -0.002781721703      0.00426023      0.00136373      0.05804394      0.00976473  ~
      3    -577.727796902765     -0.000587180443      0.00191542      0.00034130      0.04640901      0.00555927  ~
      4    -577.727875409133     -0.000078506368      0.00063088      0.00013479      0.03302445      0.00372162  ~
      5    -577.727892236696     -0.000016827563      0.00028453      0.00007504      0.00724421      0.00120721  ~
      6    -577.727892703095     -0.000000466399      0.00012814      0.00003148      0.00173226      0.00049504  ~
  --------------------------------------------------------------------------------------------------------------- ~

	Writing optimization data to binary file.
	Final energy is   -577.7278927030949
	Final (previous) structure:
	Cartesian Geometry (in Angstrom)
	    C    -1.3774356217   0.8416598614  -2.6624371318
	    C    -2.4568455539   1.4174274432  -2.0065787534
	    C    -0.3581216297   0.2552788780  -1.9298094057
	    C    -2.5117937908   1.4040307556  -0.6208202765
	    C     1.2184647676  -1.6251792485  -0.1614641303
	    C     1.2712345173   0.2170161114   1.3351795348
	    C     2.2663084953  -2.1779045658   0.5573116293
	    C     2.3185837682  -0.4121866041   1.9887352473
	    C    -0.3868633949   0.2256543222  -0.5351734107
	    C     0.7007551236  -0.3922144482   0.2223222658
	    C    -1.4818255880   0.8161050490   0.0837382332
	    N     2.8225557298  -1.5924354142   1.6198952353
	    F    -1.5627350934   0.7963790624   1.4279083622
	    H    -1.3261235999   0.8567015064  -3.7395601674
	    H    -3.2549527629   1.8779989362  -2.5675140039
	    H     0.4930015249  -0.1766711132  -2.4347375684
	    H    -3.3379237646   1.8359008858  -0.0796934004
	    H     0.7987981429  -2.1548982071  -1.0035529852
	    H     0.9136687232   1.1735413433   1.6811701809
	    H     2.6754166536  -3.1362189137   0.2694554727
	    H     2.7756504315   0.0538712925   2.8502098571
	Saving final (previous) structure.
			--------------------------
			 OPTKING Finished Execution 
			--------------------------

    Final optimized geometry and variables:
    Molecular point group: c1
    Full point group: C1

    Geometry (in Angstrom), charge = 0, multiplicity = 1:

    C           -1.377435621690     0.841659861369    -2.662437131766
    C           -2.456845553876     1.417427443202    -2.006578753365
    C           -0.358121629720     0.255278878015    -1.929809405745
    C           -2.511793790817     1.404030755613    -0.620820276485
    C            1.218464767557    -1.625179248533    -0.161464130268
    C            1.271234517325     0.217016111402     1.335179534812
    C            2.266308495348    -2.177904565768     0.557311629349
    C            2.318583768244    -0.412186604099     1.988735247275
    C           -0.386863394941     0.225654322154    -0.535173410705
    C            0.700755123585    -0.392214448244     0.222322265799
    C           -1.481825588036     0.816105048991     0.083738233249
    N            2.822555729800    -1.592435414193     1.619895235282
    F           -1.562735093420     0.796379062385     1.427908362220
    H           -1.326123599921     0.856701506427    -3.739560167409
    H           -3.254952762902     1.877998936203    -2.567514003946
    H            0.493001524908    -0.176671113194    -2.434737568435
    H           -3.337923764637     1.835900885775    -0.079693400361
    H            0.798798142891    -2.154898207097    -1.003552985246
    H            0.913668723207     1.173541343288     1.681170180857
    H            2.675416653559    -3.136218913665     0.269455472747
    H            2.775650431546     0.053871292534     2.850209857059

	Cleaning optimization helper files.

*** Psi4 exiting successfully. Buy a developer a beer!
