
    -----------------------------------------------------------------------
          Psi4: An Open-Source Ab Initio Electronic Structure Package
                               Psi4 1.1 release

                         Git: Rev {HEAD} add49b9 


    R. M. Parrish, L. A. Burns, D. G. A. Smith, A. C. Simmonett,
    A. E. DePrince III, E. G. Hohenstein, U. Bozkaya, A. Yu. Sokolov,
    R. Di Remigio, R. M. Richard, J. F. Gonthier, A. M. James,
    H. R. McAlexander, A. Kumar, M. Saitow, X. Wang, B. P. Pritchard,
    P. Verma, H. F. Schaefer III, K. Patkowski, R. A. King, E. F. Valeev,
    F. A. Evangelista, J. M. Turney, T. D. Crawford, and C. D. Sherrill,
    J. Chem. Theory Comput. in press (2017).
    (doi: 10.1021/acs.jctc.7b00174)

    -----------------------------------------------------------------------


    Psi4 started on: Sunday, 12 November 2017 09:01AM

    Process ID:   7514
    PSIDATADIR: /cbio/jclab/home/chayas/anaconda/envs/py35/share/psi4
    Memory:     500.0 MiB
    Threads:    8
    
  ==> Input File <==

--------------------------------------------------------------------------

memory 5 Gb

molecule phepyrOH_cation {
  symmetry C1
  1 1 
  C      1.885   -1.036   -0.112
  C      2.878   -1.652   2.002
  C      0.807   -0.463   0.561
  C      1.800   -1.079   2.676
  C      4.440   -1.719   -1.322
  C      4.716   -3.305   0.469
  C      5.516   -2.309   -1.970
  C      5.786   -3.855   -0.224
  C      2.921   -1.631   0.608
  C      4.040   -2.225   -0.090
  C      0.764   -0.484   1.955
  N      6.150   -3.348   -1.409
  O      -0.288   0.076   2.612
  H      1.904   -1.012   -1.199
  H      3.678   -2.112   2.578
  H      0.003   -0.001   -0.006
  H      1.772   -1.098   3.762
  H      3.931   -0.877   -1.782
  H      4.425   -3.721   1.429
  H      5.897   -1.982   -2.928
  H      6.368   -4.693   0.134
  H      6.938   -3.767   -1.902
  H      -0.073   0.196   3.551
  units Angstrom
}

dih_string = "3 11 13 23 195"
set optking fixed_dihedral = $dih_string

optimize('MP2/aug-cc-PVTZ')
--------------------------------------------------------------------------

  Memory set to   4.657 GiB by Python driver.
gradient() will perform analytic gradient computation.

*** tstart() called on gpu-2-10.local
*** at Sun Nov 12 09:01:06 2017

    SCF Algorithm Type (re)set to DF.

*** tstart() called on gpu-2-10.local
*** at Sun Nov 12 09:01:06 2017

   => Loading Basis Set <=

    Name: AUG-CC-PVTZ
    Role: ORBITAL
    Keyword: BASIS
    atoms 1-11  entry C          line   221 file /cbio/jclab/home/chayas/anaconda/envs/py35/share/psi4/basis/aug-cc-pvtz.gbs 
    atoms 12    entry N          line   267 file /cbio/jclab/home/chayas/anaconda/envs/py35/share/psi4/basis/aug-cc-pvtz.gbs 
    atoms 13    entry O          line   313 file /cbio/jclab/home/chayas/anaconda/envs/py35/share/psi4/basis/aug-cc-pvtz.gbs 
    atoms 14-23 entry H          line    34 file /cbio/jclab/home/chayas/anaconda/envs/py35/share/psi4/basis/aug-cc-pvtz.gbs 


         ---------------------------------------------------------
                                   SCF
            by Justin Turney, Rob Parrish, and Andy Simmonett
                              RHF Reference
                        8 Threads,   4768 MiB Core
         ---------------------------------------------------------

  ==> Geometry <==

    Molecular point group: c1
    Full point group: C1

    Geometry (in Angstrom), charge = 1, multiplicity = 1:

       Center              X                  Y                   Z               Mass       
    ------------   -----------------  -----------------  -----------------  -----------------
           C         -1.272112339519     0.718913287243    -0.578943291228    12.000000000000
           C         -0.279112339519     0.102913287243     1.535056708772    12.000000000000
           C         -2.350112339519     1.291913287243     0.094056708772    12.000000000000
           C         -1.357112339519     0.675913287243     2.209056708772    12.000000000000
           C          1.282887660481     0.035913287243    -1.788943291228    12.000000000000
           C          1.558887660481    -1.550086712757     0.002056708772    12.000000000000
           C          2.358887660481    -0.554086712757    -2.436943291228    12.000000000000
           C          2.628887660481    -2.100086712757    -0.690943291228    12.000000000000
           C         -0.236112339519     0.123913287243     0.141056708772    12.000000000000
           C          0.882887660481    -0.470086712757    -0.556943291228    12.000000000000
           C         -2.393112339519     1.270913287243     1.488056708772    12.000000000000
           N          2.992887660481    -1.593086712757    -1.875943291228    14.003074004780
           O         -3.445112339519     1.830913287243     2.145056708772    15.994914619560
           H         -1.253112339519     0.742913287243    -1.665943291228     1.007825032070
           H          0.520887660481    -0.357086712757     2.111056708772     1.007825032070
           H         -3.154112339519     1.753913287243    -0.472943291228     1.007825032070
           H         -1.385112339519     0.656913287243     3.295056708772     1.007825032070
           H          0.773887660481     0.877913287243    -2.248943291228     1.007825032070
           H          1.267887660481    -1.966086712757     0.962056708772     1.007825032070
           H          2.739887660481    -0.227086712757    -3.394943291228     1.007825032070
           H          3.210887660481    -2.938086712757    -0.332943291228     1.007825032070
           H          3.780887660481    -2.012086712757    -2.368943291228     1.007825032070
           H         -3.230112339519     1.950913287243     3.084056708772     1.007825032070

  Running in c1 symmetry.

  Rotational constants: A =      0.09612  B =      0.01336  C =      0.01192 [cm^-1]
  Rotational constants: A =   2881.72698  B =    400.37614  C =    357.44848 [MHz]
  Nuclear repulsion =  713.242470736001337

  Charge       = 1
  Multiplicity = 1
  Electrons    = 90
  Nalpha       = 45
  Nbeta        = 45

  ==> Algorithm <==

  SCF Algorithm Type is DF.
  DIIS enabled.
  MOM disabled.
  Fractional occupation disabled.
  Guess Type is SAD.
  Energy threshold   = 1.00e-10
  Density threshold  = 1.00e-10
  Integral threshold = 0.00e+00

  ==> Primary Basis <==

  Basis Set: AUG-CC-PVTZ
    Blend: AUG-CC-PVTZ
    Number of shells: 272
    Number of basis function: 828
    Number of Cartesian functions: 965
    Spherical Harmonics?: true
    Max angular momentum: 3

   => Loading Basis Set <=

    Name: (AUG-CC-PVTZ AUX)
    Role: JKFIT
    Keyword: DF_BASIS_SCF
    atoms 1-11  entry C          line   161 file /cbio/jclab/home/chayas/anaconda/envs/py35/share/psi4/basis/aug-cc-pvtz-jkfit.gbs 
    atoms 12    entry N          line   223 file /cbio/jclab/home/chayas/anaconda/envs/py35/share/psi4/basis/aug-cc-pvtz-jkfit.gbs 
    atoms 13    entry O          line   285 file /cbio/jclab/home/chayas/anaconda/envs/py35/share/psi4/basis/aug-cc-pvtz-jkfit.gbs 
    atoms 14-23 entry H          line    69 file /cbio/jclab/home/chayas/anaconda/envs/py35/share/psi4/basis/aug-cc-pvtz-jkfit.gbs 

  ==> Pre-Iterations <==

   -------------------------------------------------------
    Irrep   Nso     Nmo     Nalpha   Nbeta   Ndocc  Nsocc
   -------------------------------------------------------
     A        828     828       0       0       0       0
   -------------------------------------------------------
    Total     828     828      45      45      45       0
   -------------------------------------------------------

  ==> Integral Setup <==

  ==> DFJK: Density-Fitted J/K Matrices <==

    J tasked:                  Yes
    K tasked:                  Yes
    wK tasked:                  No
    OpenMP threads:              8
    Integrals threads:           8
    Memory (MB):              3576
    Algorithm:                Disk
    Integral Cache:           NONE
    Schwarz Cutoff:          1E-12
    Fitting Condition:       1E-12

   => Auxiliary Basis Set <=

  Basis Set: (AUG-CC-PVTZ AUX)
    Blend: AUG-CC-PVTZ-JKFIT
    Number of shells: 530
    Number of basis function: 1812
    Number of Cartesian functions: 2253
    Spherical Harmonics?: true
    Max angular momentum: 4

  Minimum eigenvalue in the overlap matrix is 5.5710836280E-07.
  Using Symmetric Orthogonalization.

  SCF Guess: Superposition of Atomic Densities via on-the-fly atomic UHF.

  ==> Iterations <==

                           Total Energy        Delta E     RMS |[F,P]|

   @DF-RHF iter   0:  -557.64437391422325   -5.57644e+02   2.08329e-02 
   @DF-RHF iter   1:  -551.44204673839920    6.20233e+00   1.85291e-03 
   @DF-RHF iter   2:  -551.64309522403096   -2.01048e-01   7.13940e-04 DIIS
   @DF-RHF iter   3:  -551.66778506533808   -2.46898e-02   2.98212e-04 DIIS
   @DF-RHF iter   4:  -551.67459695949742   -6.81189e-03   9.72541e-05 DIIS
   @DF-RHF iter   5:  -551.67540676980263   -8.09810e-04   3.77820e-05 DIIS
   @DF-RHF iter   6:  -551.67558919699229   -1.82427e-04   1.20984e-05 DIIS
   @DF-RHF iter   7:  -551.67561113080865   -2.19338e-05   4.69154e-06 DIIS
   @DF-RHF iter   8:  -551.67561373335479   -2.60255e-06   1.36923e-06 DIIS
   @DF-RHF iter   9:  -551.67561408418715   -3.50832e-07   5.42942e-07 DIIS
   @DF-RHF iter  10:  -551.67561417053946   -8.63523e-08   3.00690e-07 DIIS
   @DF-RHF iter  11:  -551.67561418951368   -1.89742e-08   1.24040e-07 DIIS
   @DF-RHF iter  12:  -551.67561419347430   -3.96062e-09   4.67963e-08 DIIS
   @DF-RHF iter  13:  -551.67561419394144   -4.67139e-10   2.22489e-08 DIIS
   @DF-RHF iter  14:  -551.67561419402796   -8.65157e-11   8.10688e-09 DIIS
   @DF-RHF iter  15:  -551.67561419404365   -1.56888e-11   3.84145e-09 DIIS
   @DF-RHF iter  16:  -551.67561419404501   -1.36424e-12   1.64498e-09 DIIS
   @DF-RHF iter  17:  -551.67561419406434   -1.93268e-11   6.27787e-10 DIIS
   @DF-RHF iter  18:  -551.67561419405808    6.25278e-12   2.19385e-10 DIIS
   @DF-RHF iter  19:  -551.67561419405831   -2.27374e-13   1.01989e-10 DIIS
   @DF-RHF iter  20:  -551.67561419405479    3.52429e-12   3.99149e-11 DIIS

  ==> Post-Iterations <==

    Orbital Energies (a.u.)
    -----------------------

    Doubly Occupied:                                                      

       1A    -20.702566     2A    -15.832707     3A    -11.483667  
       4A    -11.483601     5A    -11.445421     6A    -11.433901  
       7A    -11.414052     8A    -11.413821     9A    -11.380256  
      10A    -11.378603    11A    -11.371668    12A    -11.357692  
      13A    -11.354289    14A     -1.517620    15A     -1.510712  
      16A     -1.320865    17A     -1.264067    18A     -1.236565  
      19A     -1.154698    20A     -1.151515    21A     -1.068085  
      22A     -1.054130    23A     -0.975931    24A     -0.961669  
      25A     -0.950114    26A     -0.870385    27A     -0.859089  
      28A     -0.853932    29A     -0.821737    30A     -0.798229  
      31A     -0.781258    32A     -0.772845    33A     -0.756915  
      34A     -0.733527    35A     -0.720840    36A     -0.706434  
      37A     -0.705127    38A     -0.681865    39A     -0.654048  
      40A     -0.635257    41A     -0.619943    42A     -0.570782  
      43A     -0.537034    44A     -0.470030    45A     -0.438097  

    Virtual:                                                              

      46A     -0.104965    47A     -0.084432    48A     -0.063537  
      49A     -0.062824    50A     -0.059418    51A     -0.049259  
      52A     -0.043425    53A     -0.039744    54A     -0.034898  
      55A     -0.028723    56A     -0.025720    57A     -0.023149  
      58A     -0.017361    59A     -0.010945    60A     -0.006106  
      61A     -0.002589    62A      0.004437    63A      0.005919  
      64A      0.009070    65A      0.014935    66A      0.017714  
      67A      0.021816    68A      0.023760    69A      0.025165  
      70A      0.028593    71A      0.031966    72A      0.036617  
      73A      0.038636    74A      0.039722    75A      0.044963  
      76A      0.049796    77A      0.053869    78A      0.057951  
      79A      0.060805    80A      0.066847    81A      0.068987  
      82A      0.072912    83A      0.073599    84A      0.077940  
      85A      0.083670    86A      0.086256    87A      0.088790  
      88A      0.094934    89A      0.097836    90A      0.108382  
      91A      0.110913    92A      0.114714    93A      0.119829  
      94A      0.122777    95A      0.124913    96A      0.129210  
      97A      0.131604    98A      0.137057    99A      0.139658  
     100A      0.144885   101A      0.154500   102A      0.157783  
     103A      0.162533   104A      0.164865   105A      0.166978  
     106A      0.167831   107A      0.170078   108A      0.174447  
     109A      0.177732   110A      0.181236   111A      0.188462  
     112A      0.190205   113A      0.191610   114A      0.196971  
     115A      0.203467   116A      0.206565   117A      0.208923  
     118A      0.213212   119A      0.217029   120A      0.221509  
     121A      0.225597   122A      0.228849   123A      0.231093  
     124A      0.233022   125A      0.233745   126A      0.239054  
     127A      0.240323   128A      0.248559   129A      0.251698  
     130A      0.255979   131A      0.259566   132A      0.271089  
     133A      0.277521   134A      0.278560   135A      0.279788  
     136A      0.287070   137A      0.288677   138A      0.292929  
     139A      0.300860   140A      0.308913   141A      0.311313  
     142A      0.312514   143A      0.314378   144A      0.320455  
     145A      0.323905   146A      0.324121   147A      0.329248  
     148A      0.334080   149A      0.335013   150A      0.338735  
     151A      0.342587   152A      0.345197   153A      0.347982  
     154A      0.352189   155A      0.354646   156A      0.360355  
     157A      0.366035   158A      0.366719   159A      0.370599  
     160A      0.374441   161A      0.375671   162A      0.378185  
     163A      0.384897   164A      0.387446   165A      0.391032  
     166A      0.395560   167A      0.398780   168A      0.401941  
     169A      0.403549   170A      0.407209   171A      0.410244  
     172A      0.414525   173A      0.417925   174A      0.420105  
     175A      0.423775   176A      0.427646   177A      0.429138  
     178A      0.435977   179A      0.438461   180A      0.443009  
     181A      0.452380   182A      0.453492   183A      0.457293  
     184A      0.466821   185A      0.472095   186A      0.474993  
     187A      0.483037   188A      0.487037   189A      0.494405  
     190A      0.500931   191A      0.505193   192A      0.509874  
     193A      0.519347   194A      0.527746   195A      0.531868  
     196A      0.537166   197A      0.541218   198A      0.548725  
     199A      0.550331   200A      0.561584   201A      0.569210  
     202A      0.572810   203A      0.578373   204A      0.579796  
     205A      0.583877   206A      0.586790   207A      0.596780  
     208A      0.600755   209A      0.607017   210A      0.612371  
     211A      0.619340   212A      0.622033   213A      0.627611  
     214A      0.634075   215A      0.636755   216A      0.641161  
     217A      0.643037   218A      0.648649   219A      0.657658  
     220A      0.666083   221A      0.671207   222A      0.676289  
     223A      0.685030   224A      0.693015   225A      0.701949  
     226A      0.703023   227A      0.710156   228A      0.712855  
     229A      0.717726   230A      0.719947   231A      0.723335  
     232A      0.729268   233A      0.734332   234A      0.740553  
     235A      0.742409   236A      0.748011   237A      0.756235  
     238A      0.756956   239A      0.764981   240A      0.767517  
     241A      0.776251   242A      0.778609   243A      0.782385  
     244A      0.786141   245A      0.789023   246A      0.793549  
     247A      0.799281   248A      0.806512   249A      0.808814  
     250A      0.812300   251A      0.817653   252A      0.821507  
     253A      0.827439   254A      0.830751   255A      0.838207  
     256A      0.846134   257A      0.847747   258A      0.855316  
     259A      0.858814   260A      0.861869   261A      0.864532  
     262A      0.871800   263A      0.873580   264A      0.877155  
     265A      0.878814   266A      0.882668   267A      0.884302  
     268A      0.893514   269A      0.899931   270A      0.905537  
     271A      0.908195   272A      0.919353   273A      0.922580  
     274A      0.927242   275A      0.929891   276A      0.932274  
     277A      0.937238   278A      0.940532   279A      0.945753  
     280A      0.953482   281A      0.956003   282A      0.960901  
     283A      0.963489   284A      0.968241   285A      0.971011  
     286A      0.981684   287A      0.985424   288A      0.986426  
     289A      0.987637   290A      0.992285   291A      0.997119  
     292A      1.000680   293A      1.004012   294A      1.008919  
     295A      1.012971   296A      1.018212   297A      1.022667  
     298A      1.023636   299A      1.030140   300A      1.033987  
     301A      1.043492   302A      1.050228   303A      1.055453  
     304A      1.063029   305A      1.063578   306A      1.069215  
     307A      1.071622   308A      1.073993   309A      1.077682  
     310A      1.085234   311A      1.089692   312A      1.095653  
     313A      1.098739   314A      1.105766   315A      1.110246  
     316A      1.113173   317A      1.122640   318A      1.124179  
     319A      1.131089   320A      1.136883   321A      1.139433  
     322A      1.152880   323A      1.155170   324A      1.159886  
     325A      1.163453   326A      1.167555   327A      1.175156  
     328A      1.181159   329A      1.185206   330A      1.199845  
     331A      1.209076   332A      1.218880   333A      1.225472  
     334A      1.227324   335A      1.232635   336A      1.238056  
     337A      1.245098   338A      1.252000   339A      1.258854  
     340A      1.271147   341A      1.274189   342A      1.278429  
     343A      1.288956   344A      1.297743   345A      1.299692  
     346A      1.305911   347A      1.312805   348A      1.316395  
     349A      1.323867   350A      1.326798   351A      1.339725  
     352A      1.343145   353A      1.355711   354A      1.362304  
     355A      1.364921   356A      1.377160   357A      1.382076  
     358A      1.387194   359A      1.396040   360A      1.401466  
     361A      1.407264   362A      1.409010   363A      1.419738  
     364A      1.421714   365A      1.426356   366A      1.443523  
     367A      1.448833   368A      1.455669   369A      1.467273  
     370A      1.473696   371A      1.478320   372A      1.487572  
     373A      1.494511   374A      1.510482   375A      1.519772  
     376A      1.524753   377A      1.533091   378A      1.537215  
     379A      1.543145   380A      1.546555   381A      1.556727  
     382A      1.563013   383A      1.568703   384A      1.580534  
     385A      1.585454   386A      1.596408   387A      1.601962  
     388A      1.605348   389A      1.618145   390A      1.633784  
     391A      1.640840   392A      1.648251   393A      1.656242  
     394A      1.664379   395A      1.672550   396A      1.675836  
     397A      1.683472   398A      1.699367   399A      1.703278  
     400A      1.704143   401A      1.707011   402A      1.715192  
     403A      1.726323   404A      1.730876   405A      1.734962  
     406A      1.741126   407A      1.754633   408A      1.760064  
     409A      1.766560   410A      1.777439   411A      1.786906  
     412A      1.793188   413A      1.804456   414A      1.813069  
     415A      1.824986   416A      1.829876   417A      1.831275  
     418A      1.842692   419A      1.852410   420A      1.860652  
     421A      1.861455   422A      1.870989   423A      1.880581  
     424A      1.887318   425A      1.896714   426A      1.903124  
     427A      1.908589   428A      1.915135   429A      1.920819  
     430A      1.924874   431A      1.930103   432A      1.942613  
     433A      1.946587   434A      1.950720   435A      1.953479  
     436A      1.964837   437A      1.974996   438A      1.982400  
     439A      1.990596   440A      2.000604   441A      2.005347  
     442A      2.007511   443A      2.019394   444A      2.028637  
     445A      2.032896   446A      2.046605   447A      2.049106  
     448A      2.062990   449A      2.069413   450A      2.080053  
     451A      2.085199   452A      2.093786   453A      2.102620  
     454A      2.118765   455A      2.123908   456A      2.142129  
     457A      2.149408   458A      2.162886   459A      2.189950  
     460A      2.196060   461A      2.203492   462A      2.207143  
     463A      2.211634   464A      2.220327   465A      2.229451  
     466A      2.236771   467A      2.249332   468A      2.257253  
     469A      2.261348   470A      2.280548   471A      2.286780  
     472A      2.289851   473A      2.294342   474A      2.308873  
     475A      2.321917   476A      2.338340   477A      2.341111  
     478A      2.354643   479A      2.370019   480A      2.377209  
     481A      2.391610   482A      2.400271   483A      2.404695  
     484A      2.411636   485A      2.421181   486A      2.429887  
     487A      2.434518   488A      2.439511   489A      2.455985  
     490A      2.476158   491A      2.496748   492A      2.505444  
     493A      2.517628   494A      2.522803   495A      2.548765  
     496A      2.553981   497A      2.564771   498A      2.571783  
     499A      2.595134   500A      2.604928   501A      2.630403  
     502A      2.637193   503A      2.651452   504A      2.667217  
     505A      2.690479   506A      2.709208   507A      2.718780  
     508A      2.738922   509A      2.747307   510A      2.766171  
     511A      2.774007   512A      2.781982   513A      2.814388  
     514A      2.839816   515A      2.862009   516A      2.880964  
     517A      2.897981   518A      2.948815   519A      2.951459  
     520A      2.961624   521A      2.968876   522A      2.990626  
     523A      2.996880   524A      3.011265   525A      3.036739  
     526A      3.062191   527A      3.068041   528A      3.083578  
     529A      3.088821   530A      3.106336   531A      3.140612  
     532A      3.163000   533A      3.168277   534A      3.178220  
     535A      3.183734   536A      3.194927   537A      3.209163  
     538A      3.218400   539A      3.224209   540A      3.234801  
     541A      3.243307   542A      3.257760   543A      3.262351  
     544A      3.274168   545A      3.276548   546A      3.287013  
     547A      3.295462   548A      3.311308   549A      3.334706  
     550A      3.338528   551A      3.352937   552A      3.363127  
     553A      3.368399   554A      3.383789   555A      3.386299  
     556A      3.397019   557A      3.398484   558A      3.405460  
     559A      3.413036   560A      3.415438   561A      3.419804  
     562A      3.431745   563A      3.443466   564A      3.447984  
     565A      3.459926   566A      3.469723   567A      3.475988  
     568A      3.490620   569A      3.506199   570A      3.514659  
     571A      3.521268   572A      3.538009   573A      3.547582  
     574A      3.549097   575A      3.564455   576A      3.567645  
     577A      3.573882   578A      3.598199   579A      3.599698  
     580A      3.614394   581A      3.625877   582A      3.627286  
     583A      3.634454   584A      3.651507   585A      3.657898  
     586A      3.661587   587A      3.663861   588A      3.688842  
     589A      3.698519   590A      3.708532   591A      3.713578  
     592A      3.722444   593A      3.735967   594A      3.740020  
     595A      3.754830   596A      3.757731   597A      3.765327  
     598A      3.767252   599A      3.783911   600A      3.785533  
     601A      3.792918   602A      3.795543   603A      3.818770  
     604A      3.827253   605A      3.837032   606A      3.843378  
     607A      3.853118   608A      3.863945   609A      3.868325  
     610A      3.873377   611A      3.879437   612A      3.881698  
     613A      3.884436   614A      3.895652   615A      3.906140  
     616A      3.913726   617A      3.942782   618A      3.944977  
     619A      3.953374   620A      3.956445   621A      3.974134  
     622A      3.987719   623A      3.990664   624A      4.004001  
     625A      4.016881   626A      4.025770   627A      4.031816  
     628A      4.046977   629A      4.055406   630A      4.060936  
     631A      4.063383   632A      4.080769   633A      4.083997  
     634A      4.090036   635A      4.103161   636A      4.107941  
     637A      4.114444   638A      4.117557   639A      4.135033  
     640A      4.141028   641A      4.150154   642A      4.161908  
     643A      4.176599   644A      4.185267   645A      4.191580  
     646A      4.198642   647A      4.211552   648A      4.213274  
     649A      4.224636   650A      4.226245   651A      4.234201  
     652A      4.242320   653A      4.246913   654A      4.264708  
     655A      4.268558   656A      4.276814   657A      4.279077  
     658A      4.291783   659A      4.302768   660A      4.304340  
     661A      4.319594   662A      4.326071   663A      4.335561  
     664A      4.345911   665A      4.352316   666A      4.363549  
     667A      4.367470   668A      4.371369   669A      4.388643  
     670A      4.396583   671A      4.400906   672A      4.409290  
     673A      4.427193   674A      4.444471   675A      4.452451  
     676A      4.456568   677A      4.465271   678A      4.492890  
     679A      4.494759   680A      4.511003   681A      4.542035  
     682A      4.556252   683A      4.557469   684A      4.580798  
     685A      4.591110   686A      4.605711   687A      4.613124  
     688A      4.621006   689A      4.648599   690A      4.652340  
     691A      4.660866   692A      4.664129   693A      4.676185  
     694A      4.684873   695A      4.723964   696A      4.731741  
     697A      4.748332   698A      4.753235   699A      4.757910  
     700A      4.766335   701A      4.780910   702A      4.798284  
     703A      4.811224   704A      4.824945   705A      4.832672  
     706A      4.834495   707A      4.849677   708A      4.875570  
     709A      4.880481   710A      4.897248   711A      4.903032  
     712A      4.917570   713A      4.938147   714A      4.944810  
     715A      4.948767   716A      4.961515   717A      4.974266  
     718A      4.977305   719A      4.991426   720A      5.001029  
     721A      5.006203   722A      5.012739   723A      5.020811  
     724A      5.037688   725A      5.045401   726A      5.058510  
     727A      5.085279   728A      5.098034   729A      5.114662  
     730A      5.139825   731A      5.150241   732A      5.162795  
     733A      5.175357   734A      5.187306   735A      5.203209  
     736A      5.206686   737A      5.213786   738A      5.231526  
     739A      5.261659   740A      5.273053   741A      5.284289  
     742A      5.301187   743A      5.307891   744A      5.327613  
     745A      5.349416   746A      5.361164   747A      5.382606  
     748A      5.389258   749A      5.416484   750A      5.432508  
     751A      5.439951   752A      5.451473   753A      5.511170  
     754A      5.526678   755A      5.547450   756A      5.558982  
     757A      5.576687   758A      5.588526   759A      5.611400  
     760A      5.616743   761A      5.625914   762A      5.666206  
     763A      5.695310   764A      5.700954   765A      5.719483  
     766A      5.735680   767A      5.779855   768A      5.809685  
     769A      5.843237   770A      5.862369   771A      5.939826  
     772A      5.947858   773A      5.989521   774A      5.995344  
     775A      6.027419   776A      6.047224   777A      6.092000  
     778A      6.126215   779A      6.190996   780A      6.206403  
     781A      6.248716   782A      6.289058   783A      6.306376  
     784A      6.349015   785A      6.369784   786A      6.397477  
     787A      6.416892   788A      6.484218   789A      6.489677  
     790A      6.549016   791A      6.579341   792A      6.624218  
     793A      6.672534   794A      6.752270   795A      6.783628  
     796A      6.797801   797A      6.809009   798A      6.832758  
     799A      6.845074   800A      6.885817   801A      6.970012  
     802A      6.971437   803A      6.988777   804A      7.115184  
     805A      7.173034   806A      7.306742   807A      7.361520  
     808A      7.467837   809A      7.545696   810A      7.587253  
     811A      7.600945   812A      7.652737   813A      7.884675  
     814A      8.277065   815A      8.516375   816A     16.016597  
     817A     16.275917   818A     16.586825   819A     16.664873  
     820A     16.971395   821A     18.796339   822A     19.106179  
     823A     19.375506   824A     19.754989   825A     19.969694  
     826A     20.008364   827A     20.543681   828A     21.780950  

    Final Occupation by Irrep:
              A 
    DOCC [    45 ]

  Energy converged.

  @DF-RHF Final Energy:  -551.67561419405479

   => Energetics <=

    Nuclear Repulsion Energy =            713.2424707360013372
    One-Electron Energy =               -2149.4249960050033224
    Two-Electron Energy =                 884.5069110749470838
    DFT Exchange-Correlation Energy =       0.0000000000000000
    Empirical Dispersion Energy =           0.0000000000000000
    PCM Polarization Energy =               0.0000000000000000
    EFP Energy =                            0.0000000000000000
    Total Energy =                       -551.6756141940547877



Properties will be evaluated at   0.000000,   0.000000,   0.000000 Bohr

Properties computed using the SCF density matrix

  Nuclear Dipole Moment: (a.u.)
     X:     3.0420      Y:    -1.4095      Z:    -0.9521

  Electronic Dipole Moment: (a.u.)
     X:     0.2758      Y:    -0.2048      Z:    -0.4885

  Dipole Moment: (a.u.)
     X:     3.3179      Y:    -1.6143      Z:    -1.4406     Total:     3.9610

  Dipole Moment: (Debye)
     X:     8.4332      Y:    -4.1032      Z:    -3.6617     Total:    10.0679


*** tstop() called on gpu-2-10.local at Sun Nov 12 09:10:01 2017
Module time:
	user time   =    1278.03 seconds =      21.30 minutes
	system time =      55.60 seconds =       0.93 minutes
	total time  =        535 seconds =       8.92 minutes
Total time:
	user time   =    1278.03 seconds =      21.30 minutes
	system time =      55.60 seconds =       0.93 minutes
	total time  =        535 seconds =       8.92 minutes

  //>>>>>>>>>>>>>>>>>>>>>>>>>>>>>>>>>>>//
  //               DFMP2               //
  //<<<<<<<<<<<<<<<<<<<<<<<<<<<<<<<<<<<//

   => Loading Basis Set <=

    Name: (AUG-CC-PVTZ AUX)
    Role: RIFIT
    Keyword: DF_BASIS_MP2
    atoms 1-11  entry C          line   147 file /cbio/jclab/home/chayas/anaconda/envs/py35/share/psi4/basis/aug-cc-pvtz-ri.gbs 
    atoms 12    entry N          line   205 file /cbio/jclab/home/chayas/anaconda/envs/py35/share/psi4/basis/aug-cc-pvtz-ri.gbs 
    atoms 13    entry O          line   263 file /cbio/jclab/home/chayas/anaconda/envs/py35/share/psi4/basis/aug-cc-pvtz-ri.gbs 
    atoms 14-23 entry H          line    29 file /cbio/jclab/home/chayas/anaconda/envs/py35/share/psi4/basis/aug-cc-pvtz-ri.gbs 

	 --------------------------------------------------------
	                          DF-MP2                         
	      2nd-Order Density-Fitted Moller-Plesset Theory     
	              RMP2 Wavefunction,   8 Threads             
	                                                         
	        Rob Parrish, Justin Turney, Andy Simmonett,      
	           Ed Hohenstein, and C. David Sherrill          
	 --------------------------------------------------------

   => Auxiliary Basis Set <=

  Basis Set: (AUG-CC-PVTZ AUX)
    Blend: AUG-CC-PVTZ-RI
    Number of shells: 504
    Number of basis function: 1838
    Number of Cartesian functions: 2318
    Spherical Harmonics?: true
    Max angular momentum: 4

	 --------------------------------------------------------
	                 NBF =   828, NAUX =  1838
	 --------------------------------------------------------
	   CLASS    FOCC     OCC    AOCC    AVIR     VIR    FVIR
	   PAIRS       0      45      45     783     783       0
	 --------------------------------------------------------


         ------------------------------------------------------------
                                     CPHF                           
                                  Rob Parrish                       
         ------------------------------------------------------------

  ==> Geometry <==

    Molecular point group: c1
    Full point group: C1

    Geometry (in Angstrom), charge = 1, multiplicity = 1:

       Center              X                  Y                   Z               Mass       
    ------------   -----------------  -----------------  -----------------  -----------------
           C         -1.272112339519     0.718913287243    -0.578943291228    12.000000000000
           C         -0.279112339519     0.102913287243     1.535056708772    12.000000000000
           C         -2.350112339519     1.291913287243     0.094056708772    12.000000000000
           C         -1.357112339519     0.675913287243     2.209056708772    12.000000000000
           C          1.282887660481     0.035913287243    -1.788943291228    12.000000000000
           C          1.558887660481    -1.550086712757     0.002056708772    12.000000000000
           C          2.358887660481    -0.554086712757    -2.436943291228    12.000000000000
           C          2.628887660481    -2.100086712757    -0.690943291228    12.000000000000
           C         -0.236112339519     0.123913287243     0.141056708772    12.000000000000
           C          0.882887660481    -0.470086712757    -0.556943291228    12.000000000000
           C         -2.393112339519     1.270913287243     1.488056708772    12.000000000000
           N          2.992887660481    -1.593086712757    -1.875943291228    14.003074004780
           O         -3.445112339519     1.830913287243     2.145056708772    15.994914619560
           H         -1.253112339519     0.742913287243    -1.665943291228     1.007825032070
           H          0.520887660481    -0.357086712757     2.111056708772     1.007825032070
           H         -3.154112339519     1.753913287243    -0.472943291228     1.007825032070
           H         -1.385112339519     0.656913287243     3.295056708772     1.007825032070
           H          0.773887660481     0.877913287243    -2.248943291228     1.007825032070
           H          1.267887660481    -1.966086712757     0.962056708772     1.007825032070
           H          2.739887660481    -0.227086712757    -3.394943291228     1.007825032070
           H          3.210887660481    -2.938086712757    -0.332943291228     1.007825032070
           H          3.780887660481    -2.012086712757    -2.368943291228     1.007825032070
           H         -3.230112339519     1.950913287243     3.084056708772     1.007825032070

  Nuclear repulsion =  713.242470736001337
  Reference energy  = -551.675614194054788

  ==> Basis Set <==

  Basis Set: AUG-CC-PVTZ
    Blend: AUG-CC-PVTZ
    Number of shells: 272
    Number of basis function: 828
    Number of Cartesian functions: 965
    Spherical Harmonics?: true
    Max angular momentum: 3

  ==> CGRSolver (by Rob Parrish) <==

   Number of roots    =         1
   Preconditioning    =    JACOBI
   Convergence cutoff =     1E-06
   Maximum iterations =       100

  ==> CPHFRHamiltonian (by Rob Parrish) <== 

  ==> DFJK: Density-Fitted J/K Matrices <==

    J tasked:                  Yes
    K tasked:                  Yes
    wK tasked:                  No
    OpenMP threads:              8
    Integrals threads:           8
    Memory (MB):              3576
    Algorithm:                Disk
    Integral Cache:           NONE
    Schwarz Cutoff:          1E-12
    Fitting Condition:       1E-12

   => Auxiliary Basis Set <=

  Basis Set: (AUG-CC-PVTZ AUX)
    Blend: AUG-CC-PVTZ-JKFIT
    Number of shells: 530
    Number of basis function: 1812
    Number of Cartesian functions: 2253
    Spherical Harmonics?: true
    Max angular momentum: 4

  ==> CPHF Iterations <==

  => Iterations <=

             Iter  Converged  Remaining    Residual
  CGR           1          0          1   1.120E-01
  CGR           2          0          1   5.107E-02
  CGR           3          0          1   2.971E-02
  CGR           4          0          1   9.589E-03
  CGR           5          0          1   4.486E-03
  CGR           6          0          1   2.243E-03
  CGR           7          0          1   6.947E-04
  CGR           8          0          1   2.806E-04
  CGR           9          0          1   1.339E-04
  CGR          10          0          1   4.552E-05
  CGR          11          0          1   1.455E-05
  CGR          12          0          1   5.434E-06
  CGR          13          0          1   1.695E-06
  CGR          14          1          0   5.394E-07

    CGRSolver converged.

  ==> DFCorrGrad: Density-Fitted Correlated Gradients <==

    OpenMP threads:              8
    Integrals threads:           8
    Memory (MB):              3576
    Schwarz Cutoff:          0E+00
    Fitting Condition:       1E-12

   => Auxiliary Basis Set <=

  Basis Set: (AUG-CC-PVTZ AUX)
    Blend: AUG-CC-PVTZ-JKFIT
    Number of shells: 530
    Number of basis function: 1812
    Number of Cartesian functions: 2253
    Spherical Harmonics?: true
    Max angular momentum: 4

	-----------------------------------------------------------
	 ==================> DF-MP2 Energies <==================== 
	-----------------------------------------------------------
	 Reference Energy          =    -551.6756141940547877 [Eh]
	 Singles Energy            =      -0.0000000000000000 [Eh]
	 Same-Spin Energy          =      -0.5966518094386093 [Eh]
	 Opposite-Spin Energy      =      -1.8255436673611329 [Eh]
	 Correlation Energy        =      -2.4221954767997422 [Eh]
	 Total Energy              =    -554.0978096708545309 [Eh]
	-----------------------------------------------------------
	 ================> DF-SCS-MP2 Energies <================== 
	-----------------------------------------------------------
	 SCS Same-Spin Scale       =       0.3333333333333333 [-]
	 SCS Opposite-Spin Scale   =       1.2000000000000000 [-]
	 SCS Same-Spin Energy      =      -0.1988839364795364 [Eh]
	 SCS Opposite-Spin Energy  =      -2.1906524008333594 [Eh]
	 SCS Correlation Energy    =      -2.3895363373128959 [Eh]
	 SCS Total Energy          =    -554.0651505313676353 [Eh]
	-----------------------------------------------------------


  -Total Gradient:
     Atom            X                  Y                   Z
    ------   -----------------  -----------------  -----------------
       1        0.009498823850    -0.008790551752    -0.006586442199
       2        0.010763143897    -0.001139851526    -0.009348647830
       3        0.000172025148     0.001234358960     0.007750556202
       4       -0.012147192364     0.005866959500     0.005805168751
       5       -0.015504959971     0.009094199245     0.013810272759
       6       -0.019363350766     0.008625073193     0.008443760127
       7        0.008612399935    -0.010370586043     0.004650652896
       8        0.005628509115     0.003259981718    -0.013985317666
       9       -0.003029492926     0.001533532931     0.001478769107
      10        0.014629188453    -0.007168720152    -0.009541670187
      11        0.001548527134    -0.002912206759    -0.014052309074
      12       -0.001844074709     0.000574524610     0.001523179641
      13       -0.006222492038    -0.000447488698     0.008402657555
      14        0.001913537426     0.001179307143    -0.006052561506
      15        0.003798688691    -0.004398981651     0.002741724404
      16       -0.002917997632     0.002151263428    -0.005112208985
      17        0.000274294374    -0.000569620460     0.004497450656
      18       -0.005072480111     0.004326720971    -0.002899351410
      19       -0.001578407442    -0.000702458345     0.007032482878
      20        0.001874158676    -0.000462000570    -0.002566931080
      21        0.002426265088    -0.001677199645    -0.000085045938
      22        0.005145539367    -0.002739889353    -0.003234966007
      23        0.001395346796     0.003533633259     0.007328776903


*** tstop() called on gpu-2-10.local at Sun Nov 12 09:43:28 2017
Module time:
	user time   =    5484.53 seconds =      91.41 minutes
	system time =     112.40 seconds =       1.87 minutes
	total time  =       2542 seconds =      42.37 minutes
Total time:
	user time   =    5484.53 seconds =      91.41 minutes
	system time =     112.40 seconds =       1.87 minutes
	total time  =       2542 seconds =      42.37 minutes

			-----------------------------------------
			 OPTKING 2.0: for geometry optimizations 
			  - R.A. King,  Bethel University        
			-----------------------------------------

	Internal coordinates to be generated automatically.
	Detected frag 1 with atoms:  1 2 3 4 5 6 7 8 9 10 11 12 13 14 15 16 17 18 19 20
	 21 22 23
	---Fragment 1 Bond Connectivity---
	 1 : 3 9 14
	 2 : 4 9 15
	 3 : 1 11 16
	 4 : 2 11 17
	 5 : 7 10 18
	 6 : 8 10 19
	 7 : 5 12 20
	 8 : 6 12 21
	 9 : 1 2 10
	 10 : 5 6 9
	 11 : 3 4 13
	 12 : 7 8 22
	 13 : 11 23
	 14 : 1
	 15 : 2
	 16 : 3
	 17 : 4
	 18 : 5
	 19 : 6
	 20 : 7
	 21 : 8
	 22 : 12
	 23 : 13

	Assuming in current code that numbering for constraints corresponds to unified fragment.
	Fixed dihedral atom list: 
	     3    11    13    23
	---Fragment 1 Geometry and Gradient---
	 C          -2.4039439320        1.3585492262       -1.0940442669
	 C          -0.5274458820        0.1944779283        2.9008367780
	 C          -4.4410687032        2.4413623003        0.1777414205
	 C          -2.5645706533        1.2772910025        4.1745121916
	 C           2.4243063376        0.0678662774       -3.3806128877
	 C           2.9458707502       -2.9292393693        0.0038866163
	 C           4.4576516566       -1.0470721410       -4.6051554218
	 C           4.9678777124       -3.9685887424       -1.3056935938
	 C          -0.4461876583        0.2341621771        0.2665585488
	 C           1.6684158844       -0.8883351458       -1.0524702920
	 C          -4.5223269269        2.4016780515        2.8120196498
	 N           5.6557380248       -3.0104975931       -3.5450190612
	 O          -6.5103188187        3.4599246860        4.0535697191
	 H          -2.3680391354        1.4039026534       -3.1481765733
	 H           0.9843350243       -0.6747960928        3.9893190306
	 H          -5.9604085140        3.3144157737       -0.8937332968
	 H          -2.6174829850        1.2413862059        6.2267547719
	 H           1.4624357359        1.6590156813       -4.2498869088
	 H           2.3959604456       -3.7153654406        1.8180237039
	 H           5.1776373132       -0.4291316955       -6.4155130571
	 H           6.0676983218       -5.5521792418       -0.6291716382
	 H           7.1448422175       -3.8022928427       -4.4766540448
	 H          -6.1040277001        3.6866918219        5.8280225579
	             0.0094988238       -0.0087905518       -0.0065864422
	             0.0107631439       -0.0011398515       -0.0093486478
	             0.0001720251        0.0012343590        0.0077505562
	            -0.0121471924        0.0058669595        0.0058051688
	            -0.0155049600        0.0090941992        0.0138102728
	            -0.0193633508        0.0086250732        0.0084437601
	             0.0086123999       -0.0103705860        0.0046506529
	             0.0056285091        0.0032599817       -0.0139853177
	            -0.0030294929        0.0015335329        0.0014787691
	             0.0146291885       -0.0071687202       -0.0095416702
	             0.0015485271       -0.0029122068       -0.0140523091
	            -0.0018440747        0.0005745246        0.0015231796
	            -0.0062224920       -0.0004474887        0.0084026576
	             0.0019135374        0.0011793071       -0.0060525615
	             0.0037986887       -0.0043989817        0.0027417244
	            -0.0029179976        0.0021512634       -0.0051122090
	             0.0002742944       -0.0005696205        0.0044974507
	            -0.0050724801        0.0043267210       -0.0028993514
	            -0.0015784074       -0.0007024583        0.0070324829
	             0.0018741587       -0.0004620006       -0.0025669311
	             0.0024262651       -0.0016771996       -0.0000850459
	             0.0051455394       -0.0027398894       -0.0032349660
	             0.0013953468        0.0035336333        0.0073287769

	Previous optimization step data not found.  Starting new optimization.

	---Fragment 1 Intrafragment Coordinates---
	 - Coordinate -           - BOHR/RAD -       - ANG/DEG -
	 R(1,3)           =         2.634350	       1.394038
	 R(1,9)           =         2.635962	       1.394891
	 R(1,14)          =         2.054947	       1.087431
	 R(2,4)           =         2.635263	       1.394521
	 R(2,9)           =         2.635830	       1.394821
	 R(2,15)          =         2.055702	       1.087831
	 R(3,11)          =         2.635830	       1.394821
	 R(3,16)          =         2.053941	       1.086899
	 R(4,11)          =         2.636938	       1.395407
	 R(4,17)          =         2.053239	       1.086527
	 R(5,7)           =         2.622420	       1.387725
	 R(5,10)          =         2.627915	       1.390633
	 R(5,18)          =         2.052459	       1.086115
	 R(6,8)           =         2.623692	       1.388398
	 R(6,10)          =         2.629272	       1.391351
	 R(6,19)          =         2.052191	       1.085973
	 R(7,12)          =         2.532655	       1.340223
	 R(7,20)          =         2.043924	       1.081598
	 R(8,12)          =         2.530942	       1.339317
	 R(8,21)          =         2.043293	       1.081264
	 R(9,10)          =         2.733384	       1.446444
	 R(11,13)         =         2.571662	       1.360865
	 R(12,22)         =         1.926737	       1.019585
	 R(13,23)         =         1.834442	       0.970745
	 B(1,3,11)        =         2.094553	     120.009056
	 B(1,3,16)        =         2.088505	     119.662516
	 B(1,9,2)         =         2.093692	     119.959722
	 B(1,9,10)        =         2.095161	     120.043881
	 B(2,4,11)        =         2.093699	     119.960108
	 B(2,4,17)        =         2.089577	     119.723926
	 B(2,9,10)        =         2.094332	     119.996376
	 B(3,1,9)         =         2.094940	     120.031219
	 B(3,1,14)        =         2.079469	     119.144799
	 B(3,11,4)        =         2.094306	     119.994870
	 B(3,11,13)       =         2.094549	     120.008801
	 B(4,2,9)         =         2.095181	     120.045019
	 B(4,2,15)        =         2.078675	     119.099297
	 B(4,11,13)       =         2.094331	     119.996326
	 B(5,7,12)        =         2.095473	     120.061759
	 B(5,7,20)        =         2.162990	     123.930212
	 B(5,10,6)        =         2.092808	     119.909049
	 B(5,10,9)        =         2.095104	     120.040644
	 B(6,8,12)        =         2.095689	     120.074121
	 B(6,8,21)        =         2.161055	     123.819347
	 B(6,10,9)        =         2.095271	     120.050189
	 B(7,5,10)        =         2.073747	     118.816947
	 B(7,5,18)        =         2.088865	     119.683141
	 B(7,12,8)        =         2.135611	     122.361511
	 B(7,12,22)       =         2.073499	     118.802740
	 B(8,6,10)        =         2.073041	     118.776513
	 B(8,6,19)        =         2.089782	     119.735704
	 B(8,12,22)       =         2.074075	     118.835741
	 B(9,1,14)        =         2.108776	     120.823969
	 B(9,2,15)        =         2.109330	     120.855683
	 B(10,5,18)       =         2.120573	     121.499869
	 B(10,6,19)       =         2.120361	     121.487761
	 B(11,3,16)       =         2.100127	     120.328425
	 B(11,4,17)       =         2.099910	     120.315955
	 B(11,13,23)      =         1.924794	     110.282553
	 B(12,7,20)       =         2.024722	     116.007998
	 B(12,8,21)       =         2.026441	     116.106509
	 D(1,3,11,4)      =        -0.000325	      -0.018609
	 D(1,3,11,13)     =         3.140978	     179.964785
	 D(1,9,2,4)       =         0.000325	       0.018608
	 D(1,9,2,15)      =        -3.141497	    -179.994534
	 D(1,9,10,5)      =         0.522161	      29.917626
	 D(1,9,10,6)      =        -2.617252	    -149.957477
	 D(2,4,11,3)      =         0.000301	       0.017261
	 D(2,4,11,13)     =        -3.141002	    -179.966135
	 D(2,9,1,3)       =        -0.000348	      -0.019945
	 D(2,9,1,14)      =        -3.141221	    -179.978731
	 D(2,9,10,5)      =        -2.618515	    -150.029870
	 D(2,9,10,6)      =         0.525257	      30.095026
	 D(3,1,9,10)      =        -3.141025	    -179.967461
	 D(3,11,4,17)     =         3.141223	     179.978848
	 D(3,11,13,23)    =        -2.880224	    -165.024702
	 D(4,2,9,10)      =         3.141002	     179.966149
	 D(4,11,3,16)     =         3.141593	     180.000000
	 D(4,11,13,23)    =         0.261078	      14.958692
	 D(5,7,12,8)      =        -0.000900	      -0.051587
	 D(5,7,12,22)     =         3.141281	     179.982140
	 D(5,10,6,8)      =         0.001757	       0.100696
	 D(5,10,6,19)     =        -3.140779	    -179.953357
	 D(6,8,12,7)      =         0.001479	       0.084766
	 D(6,8,12,22)     =        -3.140702	    -179.948971
	 D(6,10,5,7)      =        -0.001201	      -0.068795
	 D(6,10,5,18)     =        -3.141485	    -179.993816
	 D(7,5,10,9)      =        -3.140617	    -179.944076
	 D(7,12,8,21)     =        -3.141052	    -179.969035
	 D(8,6,10,9)      =         3.141173	     179.975965
	 D(8,12,7,20)     =         3.139609	     179.886353
	 D(9,1,3,11)      =         0.000348	       0.019955
	 D(9,1,3,16)      =        -3.141571	    -179.998735
	 D(9,2,4,11)      =        -0.000301	      -0.017270
	 D(9,2,4,17)      =        -3.141228	    -179.979086
	 D(9,10,5,18)     =         0.002285	       0.130903
	 D(9,10,6,19)     =        -0.001363	      -0.078088
	 D(10,5,7,12)     =         0.000747	       0.042772
	 D(10,5,7,20)     =        -3.139673	    -179.890006
	 D(10,6,8,12)     =        -0.001882	      -0.107847
	 D(10,6,8,21)     =         3.140725	     179.950304
	 D(10,9,1,14)     =         0.001287	       0.073752
	 D(10,9,2,15)     =        -0.000820	      -0.046992
	 D(11,3,1,14)     =         3.141234	     179.979432
	 D(11,4,2,15)     =         3.141517	     179.995641
	 D(12,7,5,18)     =         3.141055	     179.969186
	 D(12,8,6,19)     =         3.140637	     179.945236
	 D(13,11,3,16)    =        -0.000286	      -0.016400
	 D(13,11,4,17)    =        -0.000079	      -0.004548
	 D(14,1,3,16)     =        -0.000685	      -0.039257
	 D(15,2,4,17)     =         0.000590	       0.033826
	 D(18,5,7,20)     =         0.000635	       0.036408
	 D(19,6,8,21)     =         0.000059	       0.003387
	 D(20,7,12,22)    =        -0.001395	      -0.079920
	 D(21,8,12,22)    =        -0.000048	      -0.002772

	Current energy   :      -554.0978096709

	Generating empirical Hessian (Schlegel '84) for each fragment.
	Adding user-defined constraint: Fragment 1; Coordinate 76:
		Value =    -2.880224; Fixed value    =    -2.879793
		Force =     0.000216; Force constant =     0.500000
	Removing off-diagonal coupling between coordinate 76 and others.
	Taking RFO optimization step.
	Going to follow RFO solution 1.
	Using RFO vector 1.

	Determining step-restricting scale parameter for RS-RFO.
	Maximum step size allowed    0.10000

	 Iter      |step|        alpha        rfo_root  
	------------------------------------------------
	    0     0.20636       1.00000           1
	    1     0.15633       4.50678           1
	    2     0.12639      12.48267           1
	    3     0.10802      24.36168           1
	    4     0.10100      31.50762           1
	    5     0.10002      32.66240           1
	    6     0.10000      32.68434           1
	------------------------------------------------
	Norm of target step-size    0.10000
	Projected energy change by RFO approximation:        -0.0047865432

	Back-transformation to cartesian coordinates...
	Could not converge backtransformation.
	Using first guess instead.

	--- Internal Coordinate Step in ANG or DEG, aJ/ANG or AJ/DEG ---
	 ---------------------------------------------------------------------------
	   Coordinate                Previous        Force       Change         New 
	   ----------                --------       ------       ------       ------
	    1 R(1,3)          =      1.394038    -0.100411    -0.010497     1.383541
	    2 R(1,9)          =      1.394891     0.021205     0.002400     1.397291
	    3 R(1,14)         =      1.087431    -0.050335    -0.006386     1.081045
	    4 R(2,4)          =      1.394521    -0.101752    -0.010553     1.383968
	    5 R(2,9)          =      1.394821     0.012438     0.001478     1.396300
	    6 R(2,15)         =      1.087831    -0.050301    -0.006416     1.081415
	    7 R(3,11)         =      1.394821    -0.056852    -0.006091     1.388730
	    8 R(3,16)         =      1.086899    -0.047289    -0.005993     1.080906
	    9 R(4,11)         =      1.395407    -0.009413    -0.001097     1.394310
	   10 R(4,17)         =      1.086527    -0.037059    -0.004725     1.081802
	   11 R(5,7)          =      1.387725    -0.115382    -0.011751     1.375974
	   12 R(5,10)         =      1.390633     0.071928     0.007581     1.398214
	   13 R(5,18)         =      1.086115    -0.057337    -0.007270     1.078844
	   14 R(6,8)          =      1.388398    -0.118961    -0.012191     1.376207
	   15 R(6,10)         =      1.391351     0.066483     0.007127     1.398478
	   16 R(6,19)         =      1.085973    -0.056919    -0.007178     1.078794
	   17 R(7,12)         =      1.340223     0.020550     0.001768     1.341991
	   18 R(7,20)         =      1.081598    -0.023020    -0.002865     1.078733
	   19 R(8,12)         =      1.339317     0.025955     0.002254     1.341571
	   20 R(8,21)         =      1.081264    -0.021237    -0.002662     1.078602
	   21 R(9,10)         =      1.446444     0.054018     0.006454     1.452898
	   22 R(11,13)        =      1.360865    -0.103778    -0.009199     1.351666
	   23 R(12,22)        =      1.019585    -0.054927    -0.005925     1.013661
	   24 R(13,23)        =      0.970745    -0.064550    -0.005833     0.964912
	   25 B(1,3,11)       =    120.009056    -0.000050    -0.152437   119.856619
	   26 B(1,3,16)       =    119.662516     0.000220     0.550898   120.213414
	   27 B(1,9,2)        =    119.959722    -0.000466    -0.837155   119.122566
	   28 B(1,9,10)       =    120.043881     0.000228     0.409806   120.453688
	   29 B(2,4,11)       =    119.960108     0.000061     0.100333   120.060442
	   30 B(2,4,17)       =    119.723926     0.000015     0.059657   119.783583
	   31 B(2,9,10)       =    119.996376     0.000238     0.427349   120.423725
	   32 B(3,1,9)        =    120.031219     0.000300     0.610333   120.641552
	   33 B(3,1,14)       =    119.144799    -0.000234    -0.513357   118.631443
	   34 B(3,11,4)       =    119.994870     0.000039     0.015252   120.010122
	   35 B(3,11,13)      =    120.008801    -0.000995    -1.852708   118.156093
	   36 B(4,2,9)        =    120.045019     0.000116     0.263439   120.308458
	   37 B(4,2,15)       =    119.099297    -0.000098    -0.231705   118.867592
	   38 B(4,11,13)      =    119.996326     0.000957     1.837455   121.833781
	   39 B(5,7,12)       =    120.061759    -0.000222    -0.487384   119.574375
	   40 B(5,7,20)       =    123.930212    -0.000010    -0.048524   123.881688
	   41 B(5,10,6)       =    119.909049    -0.000838    -1.559854   118.349195
	   42 B(5,10,9)       =    120.040644     0.000410     0.762653   120.803298
	   43 B(6,8,12)       =    120.074121    -0.000219    -0.482562   119.591558
	   44 B(6,8,21)       =    123.819347     0.000003    -0.016916   123.802431
	   45 B(6,10,9)       =    120.050189     0.000428     0.797217   120.847406
	   46 B(7,5,10)       =    118.816947     0.000526     1.062377   119.879325
	   47 B(7,5,18)       =    119.683141    -0.000350    -0.748416   118.934725
	   48 B(7,12,8)       =    122.361511     0.000216     0.389510   122.751022
	   49 B(7,12,22)      =    118.802740    -0.000107    -0.194003   118.608737
	   50 B(8,6,10)       =    118.776513     0.000537     1.077929   119.854442
	   51 B(8,6,19)       =    119.735704    -0.000361    -0.769616   118.966089
	   52 B(8,12,22)      =    118.835741    -0.000109    -0.195503   118.640238
	   53 B(9,1,14)       =    120.823969    -0.000066    -0.098310   120.725659
	   54 B(9,2,15)       =    120.855683    -0.000018    -0.032916   120.822767
	   55 B(10,5,18)      =    121.499869    -0.000176    -0.314858   121.185012
	   56 B(10,6,19)      =    121.487761    -0.000177    -0.308789   121.178972
	   57 B(11,3,16)      =    120.328425    -0.000170    -0.398487   119.929938
	   58 B(11,4,17)      =    120.315955    -0.000076    -0.159985   120.155969
	   59 B(11,13,23)     =    110.282553    -0.000178    -0.435011   109.847542
	   60 B(12,7,20)      =    116.007998     0.000232     0.535636   116.543634
	   61 B(12,8,21)      =    116.106509     0.000216     0.499199   116.605708
	   62 D(1,3,11,4)     =     -0.018609    -0.000003    -0.031892    -0.050501
	   63 D(1,3,11,13)    =    179.964785     0.000002     0.006967   179.971752
	   64 D(1,9,2,4)      =      0.018608    -0.000004    -0.075782    -0.057174
	   65 D(1,9,2,15)     =   -179.994534     0.000017     0.337464  -179.657070
	   66 D(1,9,10,5)     =     29.917626     0.000007     0.141300    30.058926
	   67 D(1,9,10,6)     =   -149.957477     0.000007     0.134146  -149.823331
	   68 D(2,4,11,3)     =      0.017261    -0.000004    -0.110807    -0.093545
	   69 D(2,4,11,13)    =   -179.966135    -0.000009    -0.150504  -180.116639
	   70 D(2,9,1,3)      =     -0.019945    -0.000003    -0.067799    -0.087744
	   71 D(2,9,1,14)     =   -179.978731     0.000017     0.318948  -179.659783
	   72 D(2,9,10,5)     =   -150.029870     0.000007     0.142066  -149.887805
	   73 D(2,9,10,6)     =     30.095026     0.000007     0.134911    30.229937
	   74 D(3,1,9,10)     =   -179.967461    -0.000004    -0.067702  -180.035163
	   75 D(3,11,4,17)    =    179.978848    -0.000004    -0.100132   179.878716
	   76 D(3,11,13,23)   =   -165.024702    -0.000014    -0.104823  -165.129525
	   77 D(4,2,9,10)     =    179.966149    -0.000004    -0.075888   179.890261
	   78 D(4,11,3,16)    =    180.000000    -0.000007    -0.111111   179.888889
	   79 D(4,11,13,23)   =     14.958692    -0.000009    -0.065536    14.893156
	   80 D(5,7,12,8)     =     -0.051587     0.000001     0.015802    -0.035785
	   81 D(5,7,12,22)    =    179.982140     0.000000     0.005884   179.988024
	   82 D(5,10,6,8)     =      0.100696    -0.000000    -0.010909     0.089787
	   83 D(5,10,6,19)    =   -179.953357     0.000016     0.302287  -179.651070
	   84 D(6,8,12,7)     =      0.084766    -0.000000    -0.003166     0.081600
	   85 D(6,8,12,22)    =   -179.948971     0.000000     0.006755  -179.942217
	   86 D(6,10,5,7)     =     -0.068795     0.000001     0.024044    -0.044750
	   87 D(6,10,5,18)    =   -179.993816     0.000016     0.305363  -179.688453
	   88 D(7,5,10,9)     =   -179.944076     0.000001     0.014187  -179.929889
	   89 D(7,12,8,21)    =   -179.969035    -0.000007    -0.141857  -180.110892
	   90 D(8,6,10,9)     =    179.975965     0.000000    -0.001092   179.974873
	   91 D(8,12,7,20)    =    179.886353    -0.000006    -0.114761   179.771592
	   92 D(9,1,3,11)     =      0.019955     0.000007     0.121469     0.141423
	   93 D(9,1,3,16)     =   -179.998735     0.000011     0.200942  -179.797793
	   94 D(9,2,4,11)     =     -0.017270     0.000008     0.164584     0.147314
	   95 D(9,2,4,17)     =   -179.979086     0.000008     0.154034  -179.825051
	   96 D(9,10,5,18)    =      0.130903     0.000015     0.295505     0.426408
	   97 D(9,10,6,19)    =     -0.078088     0.000016     0.312104     0.234016
	   98 D(10,5,7,12)    =      0.042772    -0.000001    -0.025522     0.017250
	   99 D(10,5,7,20)    =   -179.890006     0.000006     0.114822  -179.775184
	  100 D(10,6,8,12)    =     -0.107847    -0.000000    -0.000093    -0.107940
	  101 D(10,6,8,21)    =    179.950304     0.000008     0.148877   180.099181
	  102 D(10,9,1,14)    =      0.073752     0.000017     0.319046     0.392798
	  103 D(10,9,2,15)    =     -0.046992     0.000017     0.337357     0.290365
	  104 D(11,3,1,14)    =    179.979432    -0.000013    -0.257146   179.722286
	  105 D(11,4,2,15)    =    179.995641    -0.000013    -0.240672   179.754969
	  106 D(12,7,5,18)    =    179.969186    -0.000015    -0.300224   179.668962
	  107 D(12,8,6,19)    =    179.945236    -0.000016    -0.306587   179.638649
	  108 D(13,11,3,16)   =     -0.016400    -0.000002    -0.072459    -0.088858
	  109 D(13,11,4,17)   =     -0.004548    -0.000009    -0.139829    -0.144377
	  110 D(14,1,3,16)    =     -0.039257    -0.000009    -0.177673    -0.216930
	  111 D(15,2,4,17)    =      0.033826    -0.000013    -0.251222    -0.217397
	  112 D(18,5,7,20)    =      0.036408    -0.000008    -0.159880    -0.123472
	  113 D(19,6,8,21)    =      0.003387    -0.000008    -0.157618    -0.154231
	  114 D(20,7,12,22)   =     -0.079920    -0.000006    -0.124679    -0.204599
	  115 D(21,8,12,22)   =     -0.002772    -0.000007    -0.131936    -0.134709
	 ---------------------------------------------------------------------------
	Successfully symmetrized geometry.
	 Forces used to impose fixed constraints are not included.
	  Forces zeroed: 76 

  ==> Convergence Check <==

  Measures of convergence in internal coordinates in au.
  Criteria marked as inactive (o), active & met (*), and active & unmet ( ).
  --------------------------------------------------------------------------------------------- ~
   Step     Total Energy     Delta E     MAX Force     RMS Force      MAX Disp      RMS Disp    ~
  --------------------------------------------------------------------------------------------- ~
    Convergence Criteria    1.00e-06 *    3.00e-04 *             o    1.20e-03 *             o  ~
  --------------------------------------------------------------------------------------------- ~
      1    -554.09780967   -5.54e+02      1.44e-02      4.47e-03 o    3.23e-02      9.31e-03 o  ~
  ---------------------------------------------------------------------------------------------

	Writing optimization data to binary file.
	Structure for next step:
	Cartesian Geometry (in Angstrom)
	    C    -1.2821846255   0.7235444491  -0.5580790776
	    C    -0.2859524345   0.1077767862   1.5465547817
	    C    -2.3528941969   1.2916497603   0.1090217570
	    C    -1.3548143210   0.6782504990   2.2154794762
	    C     1.2983069534   0.0275600753  -1.7924165196
	    C     1.5754949528  -1.5592809523  -0.0111703943
	    C     2.3624689723  -0.5524101482  -2.4439519270
	    C     2.6351043291  -2.1083342530  -0.6965280473
	    C    -0.2377388291   0.1248050718   0.1511917590
	    C     0.8843134474  -0.4712351036  -0.5535400424
	    C    -2.3922639855   1.2712510359   1.4970440401
	    N     2.9945611539  -1.5946513480  -1.8825858165
	    O    -3.4540694816   1.8366718042   2.1133797820
	    H    -1.2740035170   0.7465265642  -1.6388487904
	    H     0.5100681190  -0.3433218731   2.1230261995
	    H    -3.1587258758   1.7501133752  -0.4466802888
	    H    -1.3821158455   0.6627645166   3.2968257498
	    H     0.8010961989   0.8682683711  -2.2505603554
	    H     1.2913761597  -1.9840205462   0.9389192062
	    H     2.7376371015  -0.2183529818  -3.3985827077
	    H     3.2108167253  -2.9474906990  -0.3391009546
	    H     3.7765324073  -2.0107947995  -2.3753873249
	    H    -3.2585972171   1.9667160022   3.0492937969
			--------------------------
			 OPTKING Finished Execution 
			--------------------------

    Structure for next step:
    Molecular point group: c1
    Full point group: C1

    Geometry (in Angstrom), charge = 1, multiplicity = 1:

    C           -1.283132726938     0.723957580958    -0.557819705724
    C           -0.286900535926     0.108189918089     1.546814153656
    C           -2.353842298321     1.292062892168     0.109281128875
    C           -1.355762422421     0.678663630849     2.215738848083
    C            1.297358852052     0.027973207181    -1.792157147729
    C            1.574546851377    -1.558867820414    -0.010911022340
    C            2.361520870921    -0.551997016346    -2.443692555108
    C            2.634156227666    -2.107921121175    -0.696268675417
    C           -0.238686930442     0.125218203639     0.151451130889
    C            0.883365346059    -0.470821971760    -0.553280670458
    C           -2.393212086920     1.271664167772     1.497303411988
    N            2.993613052519    -1.594238216145    -1.882326444612
    O           -3.455017582942     1.837084936033     2.113639153962
    H           -1.274951618370     0.746939696101    -1.638589418484
    H            0.509120017565    -0.342908741232     2.123285571404
    H           -3.159673977158     1.750526507087    -0.446420916903
    H           -1.383063946886     0.663177648482     3.297085121710
    H            0.800148097501     0.868681502980    -2.250300983499
    H            1.290428058315    -1.983607414309     0.939178578161
    H            2.736689000121    -0.217939849958    -3.398323335756
    H            3.209868623863    -2.947077567175    -0.338841582641
    H            3.775584305936    -2.010381667685    -2.375127952979
    H           -3.259545318455     1.967129134031     3.049553168793

gradient() will perform analytic gradient computation.

*** tstart() called on gpu-2-10.local
*** at Sun Nov 12 09:43:30 2017

    SCF Algorithm Type (re)set to DF.

*** tstart() called on gpu-2-10.local
*** at Sun Nov 12 09:43:30 2017

   => Loading Basis Set <=

    Name: AUG-CC-PVTZ
    Role: ORBITAL
    Keyword: BASIS
    atoms 1-11  entry C          line   221 file /cbio/jclab/home/chayas/anaconda/envs/py35/share/psi4/basis/aug-cc-pvtz.gbs 
    atoms 12    entry N          line   267 file /cbio/jclab/home/chayas/anaconda/envs/py35/share/psi4/basis/aug-cc-pvtz.gbs 
    atoms 13    entry O          line   313 file /cbio/jclab/home/chayas/anaconda/envs/py35/share/psi4/basis/aug-cc-pvtz.gbs 
    atoms 14-23 entry H          line    34 file /cbio/jclab/home/chayas/anaconda/envs/py35/share/psi4/basis/aug-cc-pvtz.gbs 


         ---------------------------------------------------------
                                   SCF
            by Justin Turney, Rob Parrish, and Andy Simmonett
                              RHF Reference
                        8 Threads,   4768 MiB Core
         ---------------------------------------------------------

  ==> Geometry <==

    Molecular point group: c1
    Full point group: C1

    Geometry (in Angstrom), charge = 1, multiplicity = 1:

       Center              X                  Y                   Z               Mass       
    ------------   -----------------  -----------------  -----------------  -----------------
           C         -1.283132726938     0.723957580958    -0.557819705724    12.000000000000
           C         -0.286900535926     0.108189918089     1.546814153656    12.000000000000
           C         -2.353842298321     1.292062892168     0.109281128875    12.000000000000
           C         -1.355762422421     0.678663630849     2.215738848083    12.000000000000
           C          1.297358852052     0.027973207181    -1.792157147729    12.000000000000
           C          1.574546851377    -1.558867820414    -0.010911022340    12.000000000000
           C          2.361520870921    -0.551997016346    -2.443692555108    12.000000000000
           C          2.634156227666    -2.107921121175    -0.696268675417    12.000000000000
           C         -0.238686930442     0.125218203639     0.151451130889    12.000000000000
           C          0.883365346059    -0.470821971760    -0.553280670458    12.000000000000
           C         -2.393212086920     1.271664167772     1.497303411988    12.000000000000
           N          2.993613052519    -1.594238216145    -1.882326444612    14.003074004780
           O         -3.455017582942     1.837084936033     2.113639153962    15.994914619560
           H         -1.274951618370     0.746939696101    -1.638589418484     1.007825032070
           H          0.509120017565    -0.342908741232     2.123285571404     1.007825032070
           H         -3.159673977158     1.750526507087    -0.446420916903     1.007825032070
           H         -1.383063946886     0.663177648482     3.297085121710     1.007825032070
           H          0.800148097501     0.868681502980    -2.250300983499     1.007825032070
           H          1.290428058315    -1.983607414309     0.939178578161     1.007825032070
           H          2.736689000121    -0.217939849958    -3.398323335756     1.007825032070
           H          3.209868623863    -2.947077567175    -0.338841582641     1.007825032070
           H          3.775584305936    -2.010381667685    -2.375127952979     1.007825032070
           H         -3.259545318455     1.967129134031     3.049553168793     1.007825032070

  Running in c1 symmetry.

  Rotational constants: A =      0.09642  B =      0.01330  C =      0.01189 [cm^-1]
  Rotational constants: A =   2890.53902  B =    398.76831  C =    356.36117 [MHz]
  Nuclear repulsion =  713.439163797464403

  Charge       = 1
  Multiplicity = 1
  Electrons    = 90
  Nalpha       = 45
  Nbeta        = 45

  ==> Algorithm <==

  SCF Algorithm Type is DF.
  DIIS enabled.
  MOM disabled.
  Fractional occupation disabled.
  Guess Type is READ.
  Energy threshold   = 1.00e-10
  Density threshold  = 1.00e-10
  Integral threshold = 0.00e+00

  ==> Primary Basis <==

  Basis Set: AUG-CC-PVTZ
    Blend: AUG-CC-PVTZ
    Number of shells: 272
    Number of basis function: 828
    Number of Cartesian functions: 965
    Spherical Harmonics?: true
    Max angular momentum: 3

   => Loading Basis Set <=

    Name: (AUG-CC-PVTZ AUX)
    Role: JKFIT
    Keyword: DF_BASIS_SCF
    atoms 1-11  entry C          line   161 file /cbio/jclab/home/chayas/anaconda/envs/py35/share/psi4/basis/aug-cc-pvtz-jkfit.gbs 
    atoms 12    entry N          line   223 file /cbio/jclab/home/chayas/anaconda/envs/py35/share/psi4/basis/aug-cc-pvtz-jkfit.gbs 
    atoms 13    entry O          line   285 file /cbio/jclab/home/chayas/anaconda/envs/py35/share/psi4/basis/aug-cc-pvtz-jkfit.gbs 
    atoms 14-23 entry H          line    69 file /cbio/jclab/home/chayas/anaconda/envs/py35/share/psi4/basis/aug-cc-pvtz-jkfit.gbs 

  Reading orbitals from file 180, no projection.

  ==> Pre-Iterations <==

   -------------------------------------------------------
    Irrep   Nso     Nmo     Nalpha   Nbeta   Ndocc  Nsocc
   -------------------------------------------------------
     A        828     828       0       0       0       0
   -------------------------------------------------------
    Total     828     828      45      45      45       0
   -------------------------------------------------------

  ==> Integral Setup <==

  ==> DFJK: Density-Fitted J/K Matrices <==

    J tasked:                  Yes
    K tasked:                  Yes
    wK tasked:                  No
    OpenMP threads:              8
    Integrals threads:           8
    Memory (MB):              3576
    Algorithm:                Disk
    Integral Cache:           NONE
    Schwarz Cutoff:          1E-12
    Fitting Condition:       1E-12

   => Auxiliary Basis Set <=

  Basis Set: (AUG-CC-PVTZ AUX)
    Blend: AUG-CC-PVTZ-JKFIT
    Number of shells: 530
    Number of basis function: 1812
    Number of Cartesian functions: 2253
    Spherical Harmonics?: true
    Max angular momentum: 4

  Minimum eigenvalue in the overlap matrix is 5.4373172182E-07.
  Using Symmetric Orthogonalization.

  SCF Guess: Orbitals guess was supplied from a previous computation.

  ==> Iterations <==

                           Total Energy        Delta E     RMS |[F,P]|

   @DF-RHF iter   0:  -551.79279163225033   -5.51793e+02   4.40340e-04 
   @DF-RHF iter   1:  -551.68043028843181    1.12361e-01   1.11253e-04 
   @DF-RHF iter   2:  -551.68083175112486   -4.01463e-04   7.02365e-05 DIIS
   @DF-RHF iter   3:  -551.68114052765281   -3.08777e-04   1.24852e-05 DIIS
   @DF-RHF iter   4:  -551.68114925829536   -8.73064e-06   4.50826e-06 DIIS
   @DF-RHF iter   5:  -551.68115146471428   -2.20642e-06   1.37944e-06 DIIS
   @DF-RHF iter   6:  -551.68115189864125   -4.33927e-07   8.11997e-07 DIIS
   @DF-RHF iter   7:  -551.68115206472987   -1.66089e-07   4.26501e-07 DIIS
   @DF-RHF iter   8:  -551.68115211749068   -5.27608e-08   1.41880e-07 DIIS
   @DF-RHF iter   9:  -551.68115212312864   -5.63796e-09   5.11503e-08 DIIS
   @DF-RHF iter  10:  -551.68115212349426   -3.65617e-10   1.96243e-08 DIIS
   @DF-RHF iter  11:  -551.68115212355383   -5.95719e-11   5.35173e-09 DIIS
   @DF-RHF iter  12:  -551.68115212354405    9.77707e-12   1.91954e-09 DIIS
   @DF-RHF iter  13:  -551.68115212354326    7.95808e-13   1.01368e-09 DIIS
   @DF-RHF iter  14:  -551.68115212354962   -6.36646e-12   4.46814e-10 DIIS
   @DF-RHF iter  15:  -551.68115212355019   -5.68434e-13   1.86177e-10 DIIS
   @DF-RHF iter  16:  -551.68115212355281   -2.61480e-12   6.52189e-11 DIIS

  ==> Post-Iterations <==

    Orbital Energies (a.u.)
    -----------------------

    Doubly Occupied:                                                      

       1A    -20.704591     2A    -15.829573     3A    -11.481143  
       4A    -11.481036     5A    -11.449065     6A    -11.433090  
       7A    -11.411296     8A    -11.411047     9A    -11.379287  
      10A    -11.376821    11A    -11.372824    12A    -11.355834  
      13A    -11.350002    14A     -1.525029    15A     -1.508674  
      16A     -1.318568    17A     -1.266215    18A     -1.238404  
      19A     -1.156109    20A     -1.154411    21A     -1.065032  
      22A     -1.056311    23A     -0.977877    24A     -0.962211  
      25A     -0.952139    26A     -0.871592    27A     -0.860983  
      28A     -0.854705    29A     -0.820996    30A     -0.800354  
      31A     -0.782991    32A     -0.772571    33A     -0.757826  
      34A     -0.734033    35A     -0.721824    36A     -0.709765  
      37A     -0.705021    38A     -0.684379    39A     -0.657643  
      40A     -0.634957    41A     -0.620172    42A     -0.570346  
      43A     -0.539130    44A     -0.472444    45A     -0.437755  

    Virtual:                                                              

      46A     -0.106138    47A     -0.083622    48A     -0.062530  
      49A     -0.060450    50A     -0.058607    51A     -0.049173  
      52A     -0.043409    53A     -0.039663    54A     -0.034514  
      55A     -0.028499    56A     -0.025380    57A     -0.022972  
      58A     -0.017333    59A     -0.009683    60A     -0.005551  
      61A     -0.002567    62A      0.004465    63A      0.006431  
      64A      0.009359    65A      0.015196    66A      0.017786  
      67A      0.021704    68A      0.023936    69A      0.025233  
      70A      0.028840    71A      0.031969    72A      0.036620  
      73A      0.038358    74A      0.039989    75A      0.045034  
      76A      0.049782    77A      0.054095    78A      0.058093  
      79A      0.060953    80A      0.067198    81A      0.068920  
      82A      0.072889    83A      0.073636    84A      0.078070  
      85A      0.083662    86A      0.086430    87A      0.089002  
      88A      0.095129    89A      0.097752    90A      0.108675  
      91A      0.111126    92A      0.114899    93A      0.119902  
      94A      0.123087    95A      0.125293    96A      0.129694  
      97A      0.132459    98A      0.137372    99A      0.139987  
     100A      0.145042   101A      0.154913   102A      0.157806  
     103A      0.162600   104A      0.165231   105A      0.167029  
     106A      0.168849   107A      0.170083   108A      0.173769  
     109A      0.177319   110A      0.182568   111A      0.189141  
     112A      0.190157   113A      0.191478   114A      0.197185  
     115A      0.203917   116A      0.207065   117A      0.209328  
     118A      0.213582   119A      0.216639   120A      0.222267  
     121A      0.226071   122A      0.229422   123A      0.231103  
     124A      0.233528   125A      0.233760   126A      0.240448  
     127A      0.241949   128A      0.248936   129A      0.251593  
     130A      0.255862   131A      0.259889   132A      0.270500  
     133A      0.277885   134A      0.279404   135A      0.280444  
     136A      0.286923   137A      0.289409   138A      0.293290  
     139A      0.302009   140A      0.309258   141A      0.310983  
     142A      0.311521   143A      0.314533   144A      0.321234  
     145A      0.324262   146A      0.324962   147A      0.329931  
     148A      0.333816   149A      0.334978   150A      0.338488  
     151A      0.343396   152A      0.345299   153A      0.348115  
     154A      0.352292   155A      0.355516   156A      0.360718  
     157A      0.365846   158A      0.367095   159A      0.370642  
     160A      0.374962   161A      0.375608   162A      0.379492  
     163A      0.385426   164A      0.387742   165A      0.391164  
     166A      0.396141   167A      0.398427   168A      0.402013  
     169A      0.404071   170A      0.407060   171A      0.412399  
     172A      0.414538   173A      0.419270   174A      0.420997  
     175A      0.424038   176A      0.427951   177A      0.428648  
     178A      0.435988   179A      0.438632   180A      0.442828  
     181A      0.452038   182A      0.454397   183A      0.458103  
     184A      0.466121   185A      0.472515   186A      0.475504  
     187A      0.481968   188A      0.487452   189A      0.493998  
     190A      0.500992   191A      0.506625   192A      0.508431  
     193A      0.519653   194A      0.527702   195A      0.531594  
     196A      0.536947   197A      0.540852   198A      0.548839  
     199A      0.551119   200A      0.561902   201A      0.570775  
     202A      0.573788   203A      0.579346   204A      0.579685  
     205A      0.584671   206A      0.587566   207A      0.596603  
     208A      0.601585   209A      0.607825   210A      0.612573  
     211A      0.619894   212A      0.621457   213A      0.628398  
     214A      0.633724   215A      0.639044   216A      0.641449  
     217A      0.644376   218A      0.648972   219A      0.655948  
     220A      0.665289   221A      0.671525   222A      0.677082  
     223A      0.685176   224A      0.694302   225A      0.701714  
     226A      0.703205   227A      0.710861   228A      0.712792  
     229A      0.719005   230A      0.720794   231A      0.724818  
     232A      0.729580   233A      0.734822   234A      0.739887  
     235A      0.742074   236A      0.750260   237A      0.756682  
     238A      0.757756   239A      0.765170   240A      0.767366  
     241A      0.776118   242A      0.778539   243A      0.781766  
     244A      0.786450   245A      0.789246   246A      0.792871  
     247A      0.799945   248A      0.806502   249A      0.809221  
     250A      0.813883   251A      0.818069   252A      0.822351  
[...]
	 B(5,7,12)        =         2.085922	     119.514547
	 B(5,7,20)        =         2.156663	     123.567684
	 B(5,10,6)        =         2.036657	     116.691828
	 B(5,10,9)        =         2.122859	     121.630841
	 B(6,8,12)        =         2.085814	     119.508326
	 B(6,8,21)        =         2.156741	     123.572131
	 B(6,10,9)        =         2.123669	     121.677261
	 B(7,5,10)        =         2.111157	     120.960395
	 B(7,5,18)        =         2.062773	     118.188168
	 B(7,12,8)        =         2.135507	     122.355562
	 B(7,12,22)       =         2.073806	     118.820304
	 B(8,6,10)        =         2.111311	     120.969209
	 B(8,6,19)        =         2.062709	     118.184495
	 B(8,12,22)       =         2.073872	     118.824126
	 B(9,1,14)        =         2.102999	     120.492940
	 B(9,2,15)        =         2.103360	     120.513622
	 B(10,5,18)       =         2.108819	     120.826409
	 B(10,6,19)       =         2.108693	     120.819229
	 B(11,3,16)       =         2.072690	     118.756396
	 B(11,4,17)       =         2.094827	     120.024733
	 B(11,13,23)      =         1.931074	     110.642390
	 B(12,7,20)       =         2.040539	     116.914250
	 B(12,8,21)       =         2.040559	     116.915414
	 D(1,3,11,4)      =         0.005763	       0.330208
	 D(1,3,11,13)     =        -3.138874	    -179.844255
	 D(1,9,2,4)       =        -0.002424	      -0.138874
	 D(1,9,2,15)      =        -3.095709	    -177.371046
	 D(1,9,10,5)      =         0.448589	      25.702228
	 D(1,9,10,6)      =        -2.691264	    -154.198054
	 D(2,4,11,3)      =        -0.014730	      -0.843970
	 D(2,4,11,13)     =         3.130114	     179.342330
	 D(2,9,1,3)       =        -0.006642	      -0.380536
	 D(2,9,1,14)      =        -3.105886	    -177.954143
	 D(2,9,10,5)      =        -2.690277	    -154.141494
	 D(2,9,10,6)      =         0.453056	      25.958223
	 D(3,1,9,10)      =         3.137620	     179.772402
	 D(3,11,4,17)     =         3.123644	     178.971603
	 D(3,11,13,23)    =        -2.883733	    -165.225742
	 D(4,2,9,10)      =         3.136500	     179.708236
	 D(4,11,3,16)     =         3.136276	     179.695376
	 D(4,11,13,23)    =         0.254695	      14.592977
	 D(5,7,12,8)      =         0.000727	       0.041680
	 D(5,7,12,22)     =        -3.141427	    -179.990495
	 D(5,10,6,8)      =         0.001119	       0.064129
	 D(5,10,6,19)     =        -3.106845	    -178.009083
	 D(6,8,12,7)      =         0.001137	       0.065138
	 D(6,8,12,22)     =        -3.139894	    -179.902686
	 D(6,10,5,7)      =         0.000747	       0.042784
	 D(6,10,5,18)     =        -3.108509	    -178.104438
	 D(7,5,10,9)      =        -3.139188	    -179.862233
	 D(7,12,8,21)     =         3.130291	     179.352489
	 D(8,6,10,9)      =         3.141053	     179.969099
	 D(8,12,7,20)     =         3.130836	     179.383700
	 D(9,1,3,11)      =         0.004956	       0.283955
	 D(9,1,3,16)      =        -3.125278	    -179.065257
	 D(9,2,4,11)      =         0.013077	       0.749250
	 D(9,2,4,17)      =        -3.125298	    -179.066404
	 D(9,10,5,18)     =         0.034742	       1.990545
	 D(9,10,6,19)     =         0.033089	       1.895886
	 D(10,5,7,12)     =        -0.001675	      -0.095955
	 D(10,5,7,20)     =        -3.130978	    -179.391814
	 D(10,6,8,12)     =        -0.002068	      -0.118469
	 D(10,6,8,21)     =        -3.130349	    -179.355793
	 D(10,9,1,14)     =         0.038376	       2.198795
	 D(10,9,2,15)     =         0.043215	       2.476064
	 D(11,3,1,14)     =         3.104983	     177.902440
	 D(11,4,2,15)     =         3.107259	     178.032854
	 D(12,7,5,18)     =         3.108413	     178.098953
	 D(12,8,6,19)     =         3.106760	     178.004259
	 D(13,11,3,16)    =        -0.008362	      -0.479087
	 D(13,11,4,17)    =        -0.014697	      -0.842096
	 D(14,1,3,16)     =        -0.025251	      -1.446772
	 D(15,2,4,17)     =        -0.031116	      -1.782799
	 D(18,5,7,20)     =        -0.020890	      -1.196907
	 D(19,6,8,21)     =        -0.021521	      -1.233064
	 D(20,7,12,22)    =        -0.011318	      -0.648475
	 D(21,8,12,22)    =        -0.010740	      -0.615335

	Current energy   :      -554.1016224009

	Energy change for the previous step:
		Projected    :        -0.0000052886
		Actual       :        -0.0000017104

	Performing BFGS update.
	Previous computed or guess Hessian on step 1.
	Steps to be used in Hessian update: 5 4
	Adding user-defined constraint: Fragment 1; Coordinate 76:
		Value =    -2.883733; Fixed value    =    -2.879790
		Force =     0.002465; Force constant =     0.625000
	Removing off-diagonal coupling between coordinate 76 and others.
	Taking RFO optimization step.
	Going to follow RFO solution 1.
	Rejecting RFO root 1 because normalization gives large value.
	Using RFO vector 2.
	Norm of target step-size    0.00251
	Projected energy change by RFO approximation:        -0.0000005919

	Back-transformation to cartesian coordinates...
	Successfully converged to displaced geometry.

	--- Internal Coordinate Step in ANG or DEG, aJ/ANG or AJ/DEG ---
	 ---------------------------------------------------------------------------
	   Coordinate                Previous        Force       Change         New 
	   ----------                --------       ------       ------       ------
	    1 R(1,3)          =      1.377234     0.000204     0.000023     1.377257
	    2 R(1,9)          =      1.400075    -0.000367    -0.000051     1.400024
	    3 R(1,14)         =      1.079360    -0.000139    -0.000016     1.079344
	    4 R(2,4)          =      1.379789    -0.000183    -0.000027     1.379762
	    5 R(2,9)          =      1.398201    -0.000156    -0.000021     1.398180
	    6 R(2,15)         =      1.079441    -0.000132    -0.000017     1.079424
	    7 R(3,11)         =      1.393249    -0.000522    -0.000045     1.393204
	    8 R(3,16)         =      1.078587    -0.000157    -0.000025     1.078562
	    9 R(4,11)         =      1.393084     0.000239     0.000038     1.393123
	   10 R(4,17)         =      1.080211    -0.000136    -0.000019     1.080192
	   11 R(5,7)          =      1.371330    -0.000091    -0.000017     1.371313
	   12 R(5,10)         =      1.402199    -0.000087    -0.000005     1.402194
	   13 R(5,18)         =      1.077301    -0.000140    -0.000010     1.077291
	   14 R(6,8)          =      1.371310    -0.000076    -0.000015     1.371295
	   15 R(6,10)         =      1.402121    -0.000113    -0.000011     1.402110
	   16 R(6,19)         =      1.077331    -0.000144    -0.000011     1.077320
	   17 R(7,12)         =      1.343496     0.000081     0.000024     1.343519
	   18 R(7,20)         =      1.077277    -0.000053    -0.000006     1.077271
	   19 R(8,12)         =      1.343505     0.000047     0.000020     1.343525
	   20 R(8,21)         =      1.077241    -0.000045    -0.000004     1.077237
	   21 R(9,10)         =      1.443847     0.000231    -0.000005     1.443842
	   22 R(11,13)        =      1.344192    -0.000055    -0.000020     1.344172
	   23 R(12,22)        =      1.011604    -0.000132    -0.000019     1.011585
	   24 R(13,23)        =      0.963709    -0.000137    -0.000017     0.963692
	   25 B(1,3,11)       =    120.020149    -0.000000    -0.002279   120.017869
	   26 B(1,3,16)       =    121.220333    -0.000003    -0.013268   121.207066
	   27 B(1,9,2)        =    118.539271    -0.000001    -0.001434   118.537837
	   28 B(1,9,10)       =    120.745542    -0.000000    -0.000617   120.744925
	   29 B(2,4,11)       =    119.993477     0.000001     0.003995   119.997472
	   30 B(2,4,17)       =    119.981533    -0.000001    -0.004732   119.976800
	   31 B(2,9,10)       =    120.715008     0.000001     0.002024   120.717031
	   32 B(3,1,9)        =    120.856284     0.000002     0.004837   120.861120
	   33 B(3,1,14)       =    118.607484    -0.000004    -0.014210   118.593274
	   34 B(3,11,4)       =    119.776047    -0.000001    -0.003117   119.772930
	   35 B(3,11,13)      =    116.873569    -0.000000    -0.004047   116.869522
	   36 B(4,2,9)        =    120.809047    -0.000000    -0.001685   120.807362
	   37 B(4,2,15)       =    118.620973    -0.000003    -0.008439   118.612534
	   38 B(4,11,13)      =    123.350138     0.000002     0.007105   123.357243
	   39 B(5,7,12)       =    119.514547    -0.000001    -0.003400   119.511147
	   40 B(5,7,20)       =    123.567684    -0.000001    -0.002969   123.564715
	   41 B(5,10,6)       =    116.691828    -0.000001    -0.002474   116.689354
	   42 B(5,10,9)       =    121.630841    -0.000000     0.000304   121.631144
	   43 B(6,8,12)       =    119.508326    -0.000001    -0.003327   119.505000
	   44 B(6,8,21)       =    123.572131    -0.000001    -0.003173   123.568958
	   45 B(6,10,9)       =    121.677261     0.000001     0.002192   121.679454
	   46 B(7,5,10)       =    120.960395     0.000001     0.003479   120.963874
	   47 B(7,5,18)       =    118.188168    -0.000003    -0.008883   118.179285
	   48 B(7,12,8)       =    122.355562     0.000000     0.002212   122.357774
	   49 B(7,12,22)      =    118.820304    -0.000000    -0.001134   118.819170
	   50 B(8,6,10)       =    120.969209     0.000001     0.003564   120.972774
	   51 B(8,6,19)       =    118.184495    -0.000003    -0.008588   118.175907
	   52 B(8,12,22)      =    118.824126    -0.000000    -0.001076   118.823050
	   53 B(9,1,14)       =    120.492940     0.000002     0.010189   120.503128
	   54 B(9,2,15)       =    120.513622     0.000003     0.011054   120.524677
	   55 B(10,5,18)      =    120.826409     0.000002     0.004879   120.831288
	   56 B(10,6,19)      =    120.819229     0.000002     0.004501   120.823730
	   57 B(11,3,16)      =    118.756396     0.000004     0.015073   118.771469
	   58 B(11,4,17)      =    120.024733     0.000000     0.000634   120.025368
	   59 B(11,13,23)     =    110.642390    -0.000002    -0.009139   110.633251
	   60 B(12,7,20)      =    116.914250     0.000001     0.006501   116.920751
	   61 B(12,8,21)      =    116.915414     0.000001     0.006613   116.922027
	   62 D(1,3,11,4)     =      0.330208     0.000001     0.027113     0.357321
	   63 D(1,3,11,13)    =   -179.844255    -0.000001     0.007475  -179.836779
	   64 D(1,9,2,4)      =     -0.138874     0.000000     0.023498    -0.115375
	   65 D(1,9,2,15)     =   -177.371046     0.000000     0.000817  -177.370229
	   66 D(1,9,10,5)     =     25.702228    -0.000000    -0.026659    25.675570
	   67 D(1,9,10,6)     =   -154.198054    -0.000000    -0.044086  -154.242140
	   68 D(2,4,11,3)     =     -0.843970    -0.000001     0.008976    -0.834995
	   69 D(2,4,11,13)    =    179.342330     0.000001     0.029970   179.372300
	   70 D(2,9,1,3)      =     -0.380536    -0.000000     0.012985    -0.367551
	   71 D(2,9,1,14)     =   -177.954143    -0.000000    -0.009606  -177.963749
	   72 D(2,9,10,5)     =   -154.141494     0.000000    -0.015220  -154.156714
	   73 D(2,9,10,6)     =     25.958223    -0.000000    -0.032647    25.925576
	   74 D(3,1,9,10)     =    179.772402     0.000000     0.024174   179.796576
	   75 D(3,11,4,17)    =    178.971603    -0.000001    -0.024995   178.946609
	   76 D(3,11,13,23)   =   -165.225742     0.000005     0.021741  -165.204001
	   77 D(4,2,9,10)     =    179.708236     0.000000     0.012308   179.720545
	   78 D(4,11,3,16)    =    179.695376     0.000000    -0.019487   179.675888
	   79 D(4,11,13,23)   =     14.592977     0.000004     0.001314    14.594290
	   80 D(5,7,12,8)     =      0.041680    -0.000000    -0.017454     0.024227
	   81 D(5,7,12,22)    =   -179.990495    -0.000000    -0.012746  -180.003241
	   82 D(5,10,6,8)     =      0.064129    -0.000000    -0.021416     0.042714
	   83 D(5,10,6,19)    =   -178.009083     0.000000    -0.002733  -178.011816
	   84 D(6,8,12,7)     =      0.065138    -0.000000    -0.008070     0.057068
	   85 D(6,8,12,22)    =   -179.902686    -0.000000    -0.012777  -179.915463
	   86 D(6,10,5,7)     =      0.042784    -0.000000    -0.004121     0.038663
	   87 D(6,10,5,18)    =   -178.104438     0.000000     0.015379  -178.089059
	   88 D(7,5,10,9)     =   -179.862233    -0.000000    -0.020725  -179.882958
	   89 D(7,12,8,21)    =    179.352489    -0.000000     0.001735   179.354223
	   90 D(8,6,10,9)     =    179.969099    -0.000000    -0.004806   179.964293
	   91 D(8,12,7,20)    =    179.383700    -0.000000    -0.005109   179.378591
	   92 D(9,1,3,11)     =      0.283955    -0.000000    -0.038182     0.245772
	   93 D(9,1,3,16)     =   -179.065257    -0.000000     0.009390  -179.055867
	   94 D(9,2,4,11)     =      0.749250     0.000000    -0.034412     0.714838
	   95 D(9,2,4,17)     =   -179.066404     0.000000    -0.000468  -179.066872
	   96 D(9,10,5,18)    =      1.990545     0.000000    -0.001225     1.989320
	   97 D(9,10,6,19)    =      1.895886     0.000000     0.013878     1.909764
	   98 D(10,5,7,12)    =     -0.095955     0.000000     0.023337    -0.072618
	   99 D(10,5,7,20)    =   -179.391814     0.000000     0.010063  -179.381752
	  100 D(10,6,8,12)    =     -0.118469     0.000000     0.027890    -0.090579
	  101 D(10,6,8,21)    =   -179.355793     0.000000     0.017326  -179.338467
	  102 D(10,9,1,14)    =      2.198795    -0.000000     0.001583     2.200378
	  103 D(10,9,2,15)    =      2.476064     0.000000    -0.010373     2.465691
	  104 D(11,3,1,14)    =    177.902440    -0.000000    -0.015443   177.886997
	  105 D(11,4,2,15)    =    178.032854     0.000000    -0.011629   178.021226
	  106 D(12,7,5,18)    =    178.098953     0.000000     0.004583   178.103536
	  107 D(12,8,6,19)    =    178.004259     0.000000     0.009929   178.014188
	  108 D(13,11,3,16)   =     -0.479087    -0.000001    -0.039125    -0.518212
	  109 D(13,11,4,17)   =     -0.842096     0.000001    -0.004001    -0.846097
	  110 D(14,1,3,16)    =     -1.446772     0.000000     0.032129    -1.414643
	  111 D(15,2,4,17)    =     -1.782799     0.000000     0.022315    -1.760484
	  112 D(18,5,7,20)    =     -1.196907    -0.000000    -0.008691    -1.205598
	  113 D(19,6,8,21)    =     -1.233064     0.000000    -0.000636    -1.233700
	  114 D(20,7,12,22)   =     -0.648475    -0.000000    -0.000402    -0.648877
	  115 D(21,8,12,22)   =     -0.615335    -0.000000    -0.002973    -0.618308
	 ---------------------------------------------------------------------------
	Successfully symmetrized geometry.
	 Forces used to impose fixed constraints are not included.
	  Forces zeroed: 76 

  ==> Convergence Check <==

  Measures of convergence in internal coordinates in au.
  Criteria marked as inactive (o), active & met (*), and active & unmet ( ).
  ---------------------------------------------------------------------------------------------
   Step     Total Energy     Delta E     MAX Force     RMS Force      MAX Disp      RMS Disp   
  ---------------------------------------------------------------------------------------------
    Convergence Criteria    1.00e-06 *    3.00e-04 *             o    1.20e-03 *             o
  ---------------------------------------------------------------------------------------------
      6    -554.10162240   -1.71e-06      2.10e-04 *    2.83e-05 o    7.69e-04 *    2.34e-04 o  ~
  ---------------------------------------------------------------------------------------------


  **** Optimization is complete! (in 6 steps) ****

  ==> Optimization Summary <==

  Measures of convergence in internal coordinates in au.
  --------------------------------------------------------------------------------------------------------------- ~
   Step         Total Energy             Delta E       MAX Force       RMS Force        MAX Disp        RMS Disp  ~
  --------------------------------------------------------------------------------------------------------------- ~
      1    -554.097809670855   -554.097809670855      0.01443926      0.00447145      0.03233586      0.00931116  ~
      2    -554.100832446503     -0.003022775648      0.00529921      0.00148263      0.02276987      0.00932509  ~
      3    -554.101516517338     -0.000684070835      0.00158309      0.00034956      0.03464750      0.00843352  ~
      4    -554.101610866485     -0.000094349147      0.00043328      0.00011415      0.01666145      0.00334353  ~
      5    -554.101620690526     -0.000009824042      0.00024138      0.00005571      0.00749478      0.00142652  ~
      6    -554.101622400933     -0.000001710406      0.00029357      0.00003935      0.00076945      0.00023423  ~
  --------------------------------------------------------------------------------------------------------------- ~

	Writing optimization data to binary file.
	Final energy is   -554.1016224009328
	Final (previous) structure:
	Cartesian Geometry (in Angstrom)
	    C    -1.2644128487   0.7701503827  -0.5476690103
	    C    -0.3127415597   0.0741962531   1.5489147410
	    C    -2.3300320558   1.3332003730   0.1188174816
	    C    -1.3730224340   0.6461443040   2.2215942990
	    C     1.2773704505  -0.0099009861  -1.8110437920
	    C     1.6080847660  -1.5305135878  -0.0008673717
	    C     2.3354419649  -0.5858263425  -2.4662852333
	    C     2.6629369313  -2.0839847778  -0.6801675462
	    C    -0.2377234285   0.1265774572   0.1537106006
	    C     0.8758833389  -0.4671534612  -0.5477585819
	    C    -2.3935719484   1.2720517322   1.5092728446
	    N     2.9981293129  -1.6016897268  -1.8884897829
	    O    -3.4627699163   1.8391085635   2.0941779497
	    H    -1.2552243317   0.8005180139  -1.6265624675
	    H     0.4817658591  -0.3766589326   2.1239638084
	    H    -3.1315704679   1.8173160967  -0.4164568259
	    H    -1.4098973912   0.6109849280   3.3006033012
	    H     0.7809571115   0.8233171145  -2.2799778624
	    H     1.3372209526  -1.9549766795   0.9515533383
	    H     2.6851932120  -0.2623095295  -3.4324825372
	    H     3.2471766132  -2.9074160327  -0.3045706896
	    H     3.7770892142  -2.0186759348  -2.3811229073
	    H    -3.3126271351   1.9526569528   3.0393227204
	Saving final (previous) structure.
			--------------------------
			 OPTKING Finished Execution 
			--------------------------

    Final optimized geometry and variables:
    Molecular point group: c1
    Full point group: C1

    Geometry (in Angstrom), charge = 1, multiplicity = 1:

    C           -1.264412848712     0.770150382704    -0.547669010318
    C           -0.312741559671     0.074196253148     1.548914741032
    C           -2.330032055754     1.333200373037     0.118817481628
    C           -1.373022433964     0.646144303975     2.221594299005
    C            1.277370450525    -0.009900986128    -1.811043792036
    C            1.608084766029    -1.530513587786    -0.000867371727
    C            2.335441964908    -0.585826342512    -2.466285233281
    C            2.662936931334    -2.083984777764    -0.680167546204
    C           -0.237723428541     0.126577457214     0.153710600574
    C            0.875883338926    -0.467153461186    -0.547758581898
    C           -2.393571948372     1.272051732232     1.509272844618
    N            2.998129312934    -1.601689726754    -1.888489782901
    O           -3.462769916336     1.839108563507     2.094177949665
    H           -1.255224331750     0.800518013916    -1.626562467476
    H            0.481765859103    -0.376658932590     2.123963808369
    H           -3.131570467938     1.817316096704    -0.416456825860
    H           -1.409897391245     0.610984928029     3.300603301237
    H            0.780957111454     0.823317114487    -2.279977862383
    H            1.337220952570    -1.954976679548     0.951553338307
    H            2.685193212022    -0.262309529511    -3.432482537192
    H            3.247176613219    -2.907416032740    -0.304570689595
    H            3.777089214157    -2.018675934813    -2.381122907312
    H           -3.312627135115     1.952656952799     3.039322720437

	Cleaning optimization helper files.

*** Psi4 exiting successfully. Buy a developer a beer!
