
    -----------------------------------------------------------------------
          Psi4: An Open-Source Ab Initio Electronic Structure Package
                               Psi4 1.1 release

                         Git: Rev {HEAD} add49b9 


    R. M. Parrish, L. A. Burns, D. G. A. Smith, A. C. Simmonett,
    A. E. DePrince III, E. G. Hohenstein, U. Bozkaya, A. Yu. Sokolov,
    R. Di Remigio, R. M. Richard, J. F. Gonthier, A. M. James,
    H. R. McAlexander, A. Kumar, M. Saitow, X. Wang, B. P. Pritchard,
    P. Verma, H. F. Schaefer III, K. Patkowski, R. A. King, E. F. Valeev,
    F. A. Evangelista, J. M. Turney, T. D. Crawford, and C. D. Sherrill,
    J. Chem. Theory Comput. in press (2017).
    (doi: 10.1021/acs.jctc.7b00174)

    -----------------------------------------------------------------------


    Psi4 started on: Sunday, 12 November 2017 01:02PM

    Process ID:  24623
    PSIDATADIR: /cbio/jclab/home/chayas/anaconda/envs/py35/share/psi4
    Memory:     500.0 MiB
    Threads:    8
    
  ==> Input File <==

--------------------------------------------------------------------------

memory 5 Gb

molecule phepyrOH_neutral {
  symmetry C1
  0 1 
  C      1.885   -1.036   -0.112
  C      2.878   -1.652   2.002
  C      0.807   -0.463   0.561
  C      1.800   -1.079   2.676
  C      5.012   -1.416   -0.667
  C      4.147   -3.608   -0.186
  C      6.064   -2.035   -1.323
  C      5.238   -4.128   -0.864
  C      2.921   -1.631   0.608
  C      4.040   -2.225   -0.090
  C      0.764   -0.484   1.955
  N      6.203   -3.375   -1.437
  O      -0.288   0.076   2.612
  H      1.904   -1.012   -1.199
  H      3.678   -2.112   2.578
  H      0.003   -0.001   -0.006
  H      1.772   -1.098   3.762
  H      4.964   -0.333   -0.612
  H      3.407   -4.271   0.251
  H      6.850   -1.448   -1.788
  H      5.367   -5.201   -0.968
  H      -0.175   -0.018   3.571
  units Angstrom
}

dih_string = "1 9 10 5 75"
set optking fixed_dihedral = $dih_string

optimize('MP2/aug-cc-PVTZ')
--------------------------------------------------------------------------

  Memory set to   4.657 GiB by Python driver.
gradient() will perform analytic gradient computation.

*** tstart() called on gpu-3-8.local
*** at Sun Nov 12 13:02:34 2017

    SCF Algorithm Type (re)set to DF.

*** tstart() called on gpu-3-8.local
*** at Sun Nov 12 13:02:34 2017

   => Loading Basis Set <=

    Name: AUG-CC-PVTZ
    Role: ORBITAL
    Keyword: BASIS
    atoms 1-11  entry C          line   221 file /cbio/jclab/home/chayas/anaconda/envs/py35/share/psi4/basis/aug-cc-pvtz.gbs 
    atoms 12    entry N          line   267 file /cbio/jclab/home/chayas/anaconda/envs/py35/share/psi4/basis/aug-cc-pvtz.gbs 
    atoms 13    entry O          line   313 file /cbio/jclab/home/chayas/anaconda/envs/py35/share/psi4/basis/aug-cc-pvtz.gbs 
    atoms 14-22 entry H          line    34 file /cbio/jclab/home/chayas/anaconda/envs/py35/share/psi4/basis/aug-cc-pvtz.gbs 


         ---------------------------------------------------------
                                   SCF
            by Justin Turney, Rob Parrish, and Andy Simmonett
                              RHF Reference
                        8 Threads,   4768 MiB Core
         ---------------------------------------------------------

  ==> Geometry <==

    Molecular point group: c1
    Full point group: C1

    Geometry (in Angstrom), charge = 0, multiplicity = 1:

       Center              X                  Y                   Z               Mass       
    ------------   -----------------  -----------------  -----------------  -----------------
           C         -1.253591289301     0.710342270139    -0.591393196382    12.000000000000
           C         -0.260591289301     0.094342270139     1.522606803618    12.000000000000
           C         -2.331591289301     1.283342270139     0.081606803618    12.000000000000
           C         -1.338591289301     0.667342270139     2.196606803618    12.000000000000
           C          1.873408710699     0.330342270139    -1.146393196382    12.000000000000
           C          1.008408710699    -1.861657729861    -0.665393196382    12.000000000000
           C          2.925408710699    -0.288657729861    -1.802393196382    12.000000000000
           C          2.099408710699    -2.381657729861    -1.343393196382    12.000000000000
           C         -0.217591289301     0.115342270139     0.128606803618    12.000000000000
           C          0.901408710699    -0.478657729861    -0.569393196382    12.000000000000
           C         -2.374591289301     1.262342270139     1.475606803618    12.000000000000
           N          3.064408710699    -1.628657729861    -1.916393196382    14.003074004780
           O         -3.426591289301     1.822342270139     2.132606803618    15.994914619560
           H         -1.234591289301     0.734342270139    -1.678393196382     1.007825032070
           H          0.539408710699    -0.365657729861     2.098606803618     1.007825032070
           H         -3.135591289301     1.745342270139    -0.485393196382     1.007825032070
           H         -1.366591289301     0.648342270139     3.282606803618     1.007825032070
           H          1.825408710699     1.413342270139    -1.091393196382     1.007825032070
           H          0.268408710699    -2.524657729861    -0.228393196382     1.007825032070
           H          3.711408710699     0.298342270139    -2.267393196382     1.007825032070
           H          2.228408710699    -3.454657729861    -1.447393196382     1.007825032070
           H         -3.313591289301     1.728342270139     3.091606803618     1.007825032070

  Running in c1 symmetry.

  Rotational constants: A =      0.09695  B =      0.01300  C =      0.01256 [cm^-1]
  Rotational constants: A =   2906.47800  B =    389.68196  C =    376.50556 [MHz]
  Nuclear repulsion =  697.231587019021617

  Charge       = 0
  Multiplicity = 1
  Electrons    = 90
  Nalpha       = 45
  Nbeta        = 45

  ==> Algorithm <==

  SCF Algorithm Type is DF.
  DIIS enabled.
  MOM disabled.
  Fractional occupation disabled.
  Guess Type is SAD.
  Energy threshold   = 1.00e-10
  Density threshold  = 1.00e-10
  Integral threshold = 0.00e+00

  ==> Primary Basis <==

  Basis Set: AUG-CC-PVTZ
    Blend: AUG-CC-PVTZ
    Number of shells: 263
    Number of basis function: 805
    Number of Cartesian functions: 940
    Spherical Harmonics?: true
    Max angular momentum: 3

   => Loading Basis Set <=

    Name: (AUG-CC-PVTZ AUX)
    Role: JKFIT
    Keyword: DF_BASIS_SCF
    atoms 1-11  entry C          line   161 file /cbio/jclab/home/chayas/anaconda/envs/py35/share/psi4/basis/aug-cc-pvtz-jkfit.gbs 
    atoms 12    entry N          line   223 file /cbio/jclab/home/chayas/anaconda/envs/py35/share/psi4/basis/aug-cc-pvtz-jkfit.gbs 
    atoms 13    entry O          line   285 file /cbio/jclab/home/chayas/anaconda/envs/py35/share/psi4/basis/aug-cc-pvtz-jkfit.gbs 
    atoms 14-22 entry H          line    69 file /cbio/jclab/home/chayas/anaconda/envs/py35/share/psi4/basis/aug-cc-pvtz-jkfit.gbs 

  ==> Pre-Iterations <==

   -------------------------------------------------------
    Irrep   Nso     Nmo     Nalpha   Nbeta   Ndocc  Nsocc
   -------------------------------------------------------
     A        805     805       0       0       0       0
   -------------------------------------------------------
    Total     805     805      45      45      45       0
   -------------------------------------------------------

  ==> Integral Setup <==

  ==> DFJK: Density-Fitted J/K Matrices <==

    J tasked:                  Yes
    K tasked:                  Yes
    wK tasked:                  No
    OpenMP threads:              8
    Integrals threads:           8
    Memory (MB):              3576
    Algorithm:                Disk
    Integral Cache:           NONE
    Schwarz Cutoff:          1E-12
    Fitting Condition:       1E-12

   => Auxiliary Basis Set <=

  Basis Set: (AUG-CC-PVTZ AUX)
    Blend: AUG-CC-PVTZ-JKFIT
    Number of shells: 516
    Number of basis function: 1766
    Number of Cartesian functions: 2198
    Spherical Harmonics?: true
    Max angular momentum: 4

  Minimum eigenvalue in the overlap matrix is 5.8612816012E-07.
  Using Symmetric Orthogonalization.

  SCF Guess: Superposition of Atomic Densities via on-the-fly atomic UHF.

  ==> Iterations <==

                           Total Energy        Delta E     RMS |[F,P]|

   @DF-RHF iter   0:  -558.50564248616149   -5.58506e+02   2.40552e-02 
   @DF-RHF iter   1:  -550.97269206110195    7.53295e+00   2.02187e-03 
   @DF-RHF iter   2:  -551.23618303868193   -2.63491e-01   8.96602e-04 DIIS
   @DF-RHF iter   3:  -551.27262093606123   -3.64379e-02   3.68323e-04 DIIS
   @DF-RHF iter   4:  -551.28325157396171   -1.06306e-02   1.31453e-04 DIIS
   @DF-RHF iter   5:  -551.28442268730350   -1.17111e-03   4.31670e-05 DIIS
   @DF-RHF iter   6:  -551.28467047275808   -2.47785e-04   2.20192e-05 DIIS
   @DF-RHF iter   7:  -551.28473768036872   -6.72076e-05   8.99918e-06 DIIS
   @DF-RHF iter   8:  -551.28475025164050   -1.25713e-05   4.02780e-06 DIIS
   @DF-RHF iter   9:  -551.28475386857872   -3.61694e-06   1.71827e-06 DIIS
   @DF-RHF iter  10:  -551.28475466754662   -7.98968e-07   5.24159e-07 DIIS
   @DF-RHF iter  11:  -551.28475472876755   -6.12209e-08   1.44532e-07 DIIS
   @DF-RHF iter  12:  -551.28475473409264   -5.32509e-09   5.14183e-08 DIIS
   @DF-RHF iter  13:  -551.28475473439767   -3.05022e-10   1.77861e-08 DIIS
   @DF-RHF iter  14:  -551.28475473443643   -3.87672e-11   5.08095e-09 DIIS
   @DF-RHF iter  15:  -551.28475473443473    1.70530e-12   2.70197e-09 DIIS
   @DF-RHF iter  16:  -551.28475473446849   -3.37650e-11   1.40844e-09 DIIS
   @DF-RHF iter  17:  -551.28475473446883   -3.41061e-13   6.48854e-10 DIIS
   @DF-RHF iter  18:  -551.28475473445428    1.45519e-11   2.58775e-10 DIIS
   @DF-RHF iter  19:  -551.28475473445405    2.27374e-13   1.19905e-10 DIIS
   @DF-RHF iter  20:  -551.28475473446508   -1.10276e-11   5.14784e-11 DIIS

  ==> Post-Iterations <==

    Orbital Energies (a.u.)
    -----------------------

    Doubly Occupied:                                                      

       1A    -20.598284     2A    -15.564828     3A    -11.312439  
       4A    -11.274605     5A    -11.274588     6A    -11.261683  
       7A    -11.252409     8A    -11.251191     9A    -11.243765  
      10A    -11.242505    11A    -11.240356    12A    -11.237575  
      13A    -11.237511    14A     -1.413633    15A     -1.250097  
      16A     -1.171481    17A     -1.103411    18A     -1.034725  
      19A     -1.030314    20A     -1.009070    21A     -0.879895  
      22A     -0.859913    23A     -0.850583    24A     -0.809897  
      25A     -0.744253    26A     -0.724090    27A     -0.677227  
      28A     -0.664285    29A     -0.656668    30A     -0.634739  
      31A     -0.615264    32A     -0.600404    33A     -0.599871  
      34A     -0.597761    35A     -0.576978    36A     -0.535933  
      37A     -0.525623    38A     -0.523451    39A     -0.505208  
      40A     -0.487410    41A     -0.418641    42A     -0.377343  
      43A     -0.356144    44A     -0.346620    45A     -0.319771  

    Virtual:                                                              

      46A      0.022188    47A      0.031000    48A      0.033320  
      49A      0.035804    50A      0.042272    51A      0.048996  
      52A      0.050158    53A      0.052671    54A      0.061823  
      55A      0.083018    56A      0.085123    57A      0.088326  
      58A      0.091038    59A      0.097113    60A      0.099231  
      61A      0.100430    62A      0.105820    63A      0.107325  
      64A      0.109141    65A      0.111175    66A      0.114133  
      67A      0.117313    68A      0.120812    69A      0.124685  
      70A      0.126061    71A      0.127452    72A      0.131974  
      73A      0.135851    74A      0.140455    75A      0.141985  
      76A      0.144357    77A      0.144874    78A      0.152977  
      79A      0.154714    80A      0.157060    81A      0.159579  
      82A      0.167455    83A      0.171271    84A      0.175495  
      85A      0.188278    86A      0.190173    87A      0.196378  
      88A      0.202410    89A      0.206138    90A      0.218915  
      91A      0.224264    92A      0.228994    93A      0.232424  
      94A      0.238002    95A      0.240221    96A      0.243722  
      97A      0.244937    98A      0.250206    99A      0.254250  
     100A      0.256906   101A      0.258157   102A      0.262939  
     103A      0.266529   104A      0.270411   105A      0.273575  
     106A      0.280006   107A      0.283176   108A      0.284754  
     109A      0.288402   110A      0.294201   111A      0.301922  
     112A      0.305936   113A      0.306969   114A      0.311518  
     115A      0.314299   116A      0.316740   117A      0.318953  
     118A      0.326145   119A      0.327056   120A      0.334316  
     121A      0.338852   122A      0.342847   123A      0.346242  
     124A      0.351052   125A      0.354553   126A      0.363648  
     127A      0.368988   128A      0.372581   129A      0.379226  
     130A      0.389891   131A      0.395314   132A      0.400322  
     133A      0.402220   134A      0.408192   135A      0.411478  
     136A      0.412959   137A      0.417366   138A      0.422946  
     139A      0.430105   140A      0.435313   141A      0.438397  
     142A      0.440561   143A      0.442266   144A      0.445027  
     145A      0.447698   146A      0.448638   147A      0.457609  
     148A      0.462114   149A      0.468426   150A      0.472335  
     151A      0.473465   152A      0.476038   153A      0.477043  
     154A      0.484877   155A      0.487346   156A      0.488843  
     157A      0.494802   158A      0.495742   159A      0.498013  
     160A      0.503709   161A      0.508338   162A      0.509379  
     163A      0.513043   164A      0.513577   165A      0.518334  
     166A      0.523992   167A      0.527930   168A      0.535440  
     169A      0.537208   170A      0.542207   171A      0.543261  
     172A      0.545048   173A      0.549882   174A      0.552767  
     175A      0.558644   176A      0.564777   177A      0.570637  
     178A      0.575458   179A      0.583619   180A      0.586244  
     181A      0.590632   182A      0.596678   183A      0.610049  
     184A      0.612742   185A      0.616598   186A      0.622213  
     187A      0.627247   188A      0.634338   189A      0.636540  
     190A      0.637527   191A      0.641096   192A      0.655875  
     193A      0.664437   194A      0.673288   195A      0.676863  
     196A      0.680606   197A      0.690511   198A      0.695146  
     199A      0.697090   200A      0.703451   201A      0.711361  
     202A      0.714946   203A      0.724885   204A      0.726458  
     205A      0.732391   206A      0.739395   207A      0.741654  
     208A      0.743468   209A      0.751532   210A      0.759717  
     211A      0.763055   212A      0.771812   213A      0.779189  
     214A      0.785883   215A      0.787651   216A      0.789338  
     217A      0.791921   218A      0.800798   219A      0.802261  
     220A      0.806507   221A      0.813650   222A      0.816961  
     223A      0.826679   224A      0.837378   225A      0.845976  
     226A      0.847355   227A      0.851854   228A      0.859698  
     229A      0.869586   230A      0.880778   231A      0.883642  
     232A      0.887708   233A      0.890801   234A      0.892518  
     235A      0.896224   236A      0.903060   237A      0.907463  
     238A      0.912049   239A      0.914210   240A      0.919607  
     241A      0.924374   242A      0.926770   243A      0.931260  
     244A      0.935303   245A      0.941119   246A      0.948874  
     247A      0.952719   248A      0.956386   249A      0.958854  
     250A      0.959836   251A      0.964401   252A      0.965856  
     253A      0.981907   254A      0.984942   255A      0.986010  
     256A      0.991802   257A      0.993147   258A      0.999502  
     259A      1.003515   260A      1.010959   261A      1.013846  
     262A      1.018274   263A      1.021885   264A      1.026731  
     265A      1.031587   266A      1.037220   267A      1.039489  
     268A      1.046942   269A      1.050523   270A      1.051206  
     271A      1.057742   272A      1.058426   273A      1.068238  
     274A      1.072745   275A      1.081085   276A      1.084510  
     277A      1.088894   278A      1.092516   279A      1.094988  
     280A      1.102732   281A      1.109150   282A      1.112770  
     283A      1.117881   284A      1.124564   285A      1.126255  
     286A      1.132915   287A      1.138356   288A      1.148329  
     289A      1.151884   290A      1.154227   291A      1.156861  
     292A      1.160778   293A      1.167299   294A      1.174266  
     295A      1.175521   296A      1.179481   297A      1.184990  
     298A      1.189649   299A      1.192347   300A      1.194704  
     301A      1.202311   302A      1.207976   303A      1.214752  
     304A      1.218302   305A      1.225536   306A      1.228544  
     307A      1.236533   308A      1.242307   309A      1.246649  
     310A      1.253178   311A      1.264280   312A      1.265918  
     313A      1.274049   314A      1.277738   315A      1.288933  
     316A      1.290209   317A      1.294328   318A      1.299988  
     319A      1.304305   320A      1.315987   321A      1.318543  
     322A      1.321836   323A      1.329513   324A      1.330246  
     325A      1.337118   326A      1.350662   327A      1.368152  
     328A      1.372838   329A      1.377583   330A      1.385802  
     331A      1.393752   332A      1.407001   333A      1.412279  
     334A      1.418990   335A      1.421385   336A      1.427125  
     337A      1.429437   338A      1.439911   339A      1.448664  
     340A      1.458921   341A      1.463799   342A      1.481763  
     343A      1.488712   344A      1.491211   345A      1.498774  
     346A      1.505204   347A      1.511050   348A      1.520647  
     349A      1.535846   350A      1.540166   351A      1.544862  
     352A      1.552312   353A      1.563112   354A      1.565067  
     355A      1.573513   356A      1.575081   357A      1.580620  
     358A      1.593104   359A      1.601693   360A      1.612497  
     361A      1.613152   362A      1.625000   363A      1.633519  
     364A      1.638123   365A      1.646899   366A      1.661433  
     367A      1.668377   368A      1.671443   369A      1.677009  
     370A      1.687261   371A      1.693201   372A      1.704252  
     373A      1.710519   374A      1.713887   375A      1.724915  
     376A      1.735275   377A      1.744323   378A      1.744910  
     379A      1.750662   380A      1.755887   381A      1.763775  
     382A      1.772965   383A      1.780245   384A      1.786858  
     385A      1.789249   386A      1.799794   387A      1.807049  
     388A      1.818400   389A      1.823841   390A      1.837341  
     391A      1.846744   392A      1.851387   393A      1.853519  
     394A      1.860899   395A      1.870908   396A      1.881601  
     397A      1.894528   398A      1.895816   399A      1.902047  
     400A      1.907040   401A      1.919243   402A      1.920690  
     403A      1.940575   404A      1.946340   405A      1.947411  
     406A      1.955196   407A      1.964639   408A      1.976089  
     409A      1.979050   410A      1.984504   411A      1.998492  
     412A      2.001470   413A      2.027969   414A      2.031696  
     415A      2.034896   416A      2.043396   417A      2.046616  
     418A      2.051393   419A      2.055044   420A      2.063140  
     421A      2.078131   422A      2.083310   423A      2.100615  
     424A      2.103933   425A      2.109775   426A      2.120737  
     427A      2.122559   428A      2.130841   429A      2.138385  
     430A      2.139580   431A      2.144143   432A      2.157894  
     433A      2.163902   434A      2.178933   435A      2.180759  
     436A      2.185586   437A      2.201079   438A      2.202351  
     439A      2.210144   440A      2.214485   441A      2.224702  
     442A      2.243279   443A      2.251524   444A      2.259572  
     445A      2.265257   446A      2.275054   447A      2.282374  
     448A      2.287624   449A      2.297962   450A      2.309069  
     451A      2.319114   452A      2.341828   453A      2.345509  
     454A      2.350726   455A      2.372768   456A      2.383036  
     457A      2.386246   458A      2.391690   459A      2.411172  
     460A      2.416641   461A      2.428628   462A      2.433160  
     463A      2.438627   464A      2.450499   465A      2.455516  
     466A      2.473603   467A      2.491934   468A      2.499033  
     469A      2.522705   470A      2.526313   471A      2.548135  
     472A      2.562739   473A      2.570188   474A      2.574805  
     475A      2.587416   476A      2.592135   477A      2.599261  
     478A      2.606509   479A      2.609785   480A      2.627893  
     481A      2.645079   482A      2.655807   483A      2.664137  
     484A      2.670059   485A      2.695722   486A      2.731104  
     487A      2.741718   488A      2.755160   489A      2.765369  
     490A      2.802569   491A      2.820430   492A      2.824338  
     493A      2.846034   494A      2.849780   495A      2.861453  
     496A      2.873897   497A      2.883564   498A      2.890926  
     499A      2.927426   500A      2.938843   501A      2.972811  
     502A      2.998076   503A      3.008500   504A      3.039128  
     505A      3.064420   506A      3.066303   507A      3.075353  
     508A      3.119228   509A      3.154351   510A      3.159912  
     511A      3.200965   512A      3.211824   513A      3.226639  
     514A      3.229912   515A      3.238625   516A      3.243749  
     517A      3.266720   518A      3.274561   519A      3.279899  
     520A      3.293347   521A      3.313279   522A      3.318558  
     523A      3.343093   524A      3.366934   525A      3.385035  
     526A      3.392360   527A      3.396931   528A      3.410316  
     529A      3.416233   530A      3.423183   531A      3.428620  
     532A      3.436885   533A      3.447064   534A      3.454691  
     535A      3.461595   536A      3.471816   537A      3.480416  
     538A      3.487143   539A      3.496954   540A      3.514384  
     541A      3.529737   542A      3.533397   543A      3.535998  
     544A      3.544640   545A      3.549782   546A      3.554422  
     547A      3.556535   548A      3.577144   549A      3.580794  
     550A      3.584009   551A      3.592926   552A      3.597838  
     553A      3.615248   554A      3.618906   555A      3.622108  
     556A      3.632564   557A      3.648233   558A      3.655388  
     559A      3.662539   560A      3.672768   561A      3.685925  
     562A      3.689496   563A      3.708957   564A      3.717365  
     565A      3.729273   566A      3.733306   567A      3.747413  
     568A      3.760374   569A      3.780961   570A      3.783339  
     571A      3.785318   572A      3.787980   573A      3.811412  
     574A      3.813328   575A      3.827924   576A      3.834140  
     577A      3.854221   578A      3.859840   579A      3.873132  
     580A      3.876999   581A      3.889970   582A      3.896133  
     583A      3.906431   584A      3.910897   585A      3.918380  
     586A      3.921138   587A      3.929206   588A      3.937512  
     589A      3.953641   590A      3.961549   591A      3.963560  
     592A      3.968024   593A      3.972948   594A      3.994945  
     595A      3.998429   596A      4.004697   597A      4.014237  
     598A      4.032040   599A      4.036232   600A      4.043778  
     601A      4.050673   602A      4.075212   603A      4.080709  
     604A      4.081442   605A      4.089797   606A      4.109025  
     607A      4.116228   608A      4.118929   609A      4.123996  
     610A      4.135928   611A      4.147112   612A      4.158204  
     613A      4.167012   614A      4.173156   615A      4.181659  
     616A      4.197184   617A      4.203778   618A      4.209590  
     619A      4.212097   620A      4.221094   621A      4.231243  
     622A      4.232375   623A      4.236194   624A      4.249779  
     625A      4.258665   626A      4.279993   627A      4.288817  
     628A      4.293405   629A      4.304828   630A      4.311951  
     631A      4.318165   632A      4.327851   633A      4.353279  
     634A      4.355336   635A      4.372202   636A      4.375325  
     637A      4.383559   638A      4.395814   639A      4.400413  
     640A      4.404216   641A      4.430281   642A      4.433469  
     643A      4.439215   644A      4.441476   645A      4.445723  
     646A      4.453739   647A      4.459709   648A      4.468265  
     649A      4.473715   650A      4.482606   651A      4.512707  
     652A      4.520067   653A      4.529951   654A      4.533529  
     655A      4.547329   656A      4.557453   657A      4.562180  
     658A      4.578614   659A      4.580596   660A      4.604704  
     661A      4.624184   662A      4.627602   663A      4.648953  
     664A      4.654505   665A      4.672276   666A      4.691531  
     667A      4.700304   668A      4.710637   669A      4.731162  
     670A      4.750846   671A      4.754810   672A      4.766413  
     673A      4.778633   674A      4.791918   675A      4.834487  
     676A      4.846697   677A      4.861934   678A      4.889267  
     679A      4.894276   680A      4.903077   681A      4.922162  
     682A      4.930526   683A      4.945778   684A      4.956237  
     685A      4.963463   686A      4.973955   687A      4.979021  
     688A      4.988744   689A      5.020377   690A      5.025490  
     691A      5.031942   692A      5.034836   693A      5.050773  
     694A      5.062381   695A      5.064817   696A      5.071843  
     697A      5.086140   698A      5.099724   699A      5.113226  
     700A      5.126347   701A      5.135421   702A      5.156326  
     703A      5.164147   704A      5.165272   705A      5.172416  
     706A      5.179700   707A      5.181900   708A      5.205645  
     709A      5.213010   710A      5.220406   711A      5.242682  
     712A      5.279146   713A      5.284080   714A      5.310984  
     715A      5.316261   716A      5.330746   717A      5.344001  
     718A      5.353932   719A      5.373082   720A      5.386311  
     721A      5.392325   722A      5.422466   723A      5.433275  
     724A      5.445931   725A      5.456112   726A      5.464024  
     727A      5.476214   728A      5.483126   729A      5.492755  
     730A      5.546698   731A      5.555067   732A      5.556746  
     733A      5.571677   734A      5.636606   735A      5.670593  
     736A      5.687580   737A      5.694396   738A      5.733230  
     739A      5.735649   740A      5.768715   741A      5.791977  
     742A      5.833829   743A      5.847685   744A      5.857217  
     745A      5.879679   746A      5.888221   747A      5.911697  
     748A      5.929441   749A      6.023153   750A      6.050644  
     751A      6.079862   752A      6.107227   753A      6.141986  
     754A      6.176783   755A      6.222999   756A      6.244370  
     757A      6.262847   758A      6.307812   759A      6.320754  
     760A      6.374013   761A      6.407977   762A      6.455068  
     763A      6.475561   764A      6.504923   765A      6.557364  
     766A      6.571051   767A      6.581427   768A      6.694807  
     769A      6.700846   770A      6.722219   771A      6.777269  
     772A      6.873424   773A      6.878339   774A      6.893155  
     775A      6.895742   776A      6.937903   777A      7.005261  
     778A      7.026408   779A      7.057004   780A      7.070183  
     781A      7.094282   782A      7.212532   783A      7.261485  
     784A      7.410762   785A      7.422136   786A      7.435886  
     787A      7.693745   788A      7.705517   789A      7.760127  
     790A      8.016488   791A      8.391293   792A      8.641485  
     793A     15.601903   794A     16.221002   795A     16.536773  
     796A     16.708819   797A     16.793585   798A     18.476268  
     799A     18.773485   800A     19.195654   801A     19.598657  
     802A     20.043682   803A     20.101570   804A     20.238468  
     805A     21.811682  

    Final Occupation by Irrep:
              A 
    DOCC [    45 ]

  Energy converged.

  @DF-RHF Final Energy:  -551.28475473446508

   => Energetics <=

    Nuclear Repulsion Energy =            697.2315870190216174
    One-Electron Energy =               -2131.2477999961001842
    Two-Electron Energy =                 882.7314582426134848
    DFT Exchange-Correlation Energy =       0.0000000000000000
    Empirical Dispersion Energy =           0.0000000000000000
    PCM Polarization Energy =               0.0000000000000000
    EFP Energy =                            0.0000000000000000
    Total Energy =                       -551.2847547344650820



Properties will be evaluated at   0.000000,   0.000000,   0.000000 Bohr

Properties computed using the SCF density matrix

  Nuclear Dipole Moment: (a.u.)
     X:    -0.4728      Y:     0.2226      Z:     1.2106

  Electronic Dipole Moment: (a.u.)
     X:    -0.0755      Y:     0.0511      Z:    -0.2771

  Dipole Moment: (a.u.)
     X:    -0.5483      Y:     0.2737      Z:     0.9335     Total:     1.1167

  Dipole Moment: (Debye)
     X:    -1.3937      Y:     0.6957      Z:     2.3727     Total:     2.8383


*** tstop() called on gpu-3-8.local at Sun Nov 12 13:10:22 2017
Module time:
	user time   =    1101.67 seconds =      18.36 minutes
	system time =      49.70 seconds =       0.83 minutes
	total time  =        468 seconds =       7.80 minutes
Total time:
	user time   =    1101.68 seconds =      18.36 minutes
	system time =      49.70 seconds =       0.83 minutes
	total time  =        468 seconds =       7.80 minutes

  //>>>>>>>>>>>>>>>>>>>>>>>>>>>>>>>>>>>//
  //               DFMP2               //
  //<<<<<<<<<<<<<<<<<<<<<<<<<<<<<<<<<<<//

   => Loading Basis Set <=

    Name: (AUG-CC-PVTZ AUX)
    Role: RIFIT
    Keyword: DF_BASIS_MP2
    atoms 1-11  entry C          line   147 file /cbio/jclab/home/chayas/anaconda/envs/py35/share/psi4/basis/aug-cc-pvtz-ri.gbs 
    atoms 12    entry N          line   205 file /cbio/jclab/home/chayas/anaconda/envs/py35/share/psi4/basis/aug-cc-pvtz-ri.gbs 
    atoms 13    entry O          line   263 file /cbio/jclab/home/chayas/anaconda/envs/py35/share/psi4/basis/aug-cc-pvtz-ri.gbs 
    atoms 14-22 entry H          line    29 file /cbio/jclab/home/chayas/anaconda/envs/py35/share/psi4/basis/aug-cc-pvtz-ri.gbs 

	 --------------------------------------------------------
	                          DF-MP2                         
	      2nd-Order Density-Fitted Moller-Plesset Theory     
	              RMP2 Wavefunction,   8 Threads             
	                                                         
	        Rob Parrish, Justin Turney, Andy Simmonett,      
	           Ed Hohenstein, and C. David Sherrill          
	 --------------------------------------------------------

   => Auxiliary Basis Set <=

  Basis Set: (AUG-CC-PVTZ AUX)
    Blend: AUG-CC-PVTZ-RI
    Number of shells: 490
    Number of basis function: 1792
    Number of Cartesian functions: 2263
    Spherical Harmonics?: true
    Max angular momentum: 4

	 --------------------------------------------------------
	                 NBF =   805, NAUX =  1792
	 --------------------------------------------------------
	   CLASS    FOCC     OCC    AOCC    AVIR     VIR    FVIR
	   PAIRS       0      45      45     760     760       0
	 --------------------------------------------------------


         ------------------------------------------------------------
                                     CPHF                           
                                  Rob Parrish                       
         ------------------------------------------------------------

  ==> Geometry <==

    Molecular point group: c1
    Full point group: C1

    Geometry (in Angstrom), charge = 0, multiplicity = 1:

       Center              X                  Y                   Z               Mass       
    ------------   -----------------  -----------------  -----------------  -----------------
           C         -1.253591289301     0.710342270139    -0.591393196382    12.000000000000
           C         -0.260591289301     0.094342270139     1.522606803618    12.000000000000
           C         -2.331591289301     1.283342270139     0.081606803618    12.000000000000
           C         -1.338591289301     0.667342270139     2.196606803618    12.000000000000
           C          1.873408710699     0.330342270139    -1.146393196382    12.000000000000
           C          1.008408710699    -1.861657729861    -0.665393196382    12.000000000000
           C          2.925408710699    -0.288657729861    -1.802393196382    12.000000000000
           C          2.099408710699    -2.381657729861    -1.343393196382    12.000000000000
           C         -0.217591289301     0.115342270139     0.128606803618    12.000000000000
           C          0.901408710699    -0.478657729861    -0.569393196382    12.000000000000
           C         -2.374591289301     1.262342270139     1.475606803618    12.000000000000
           N          3.064408710699    -1.628657729861    -1.916393196382    14.003074004780
           O         -3.426591289301     1.822342270139     2.132606803618    15.994914619560
           H         -1.234591289301     0.734342270139    -1.678393196382     1.007825032070
           H          0.539408710699    -0.365657729861     2.098606803618     1.007825032070
           H         -3.135591289301     1.745342270139    -0.485393196382     1.007825032070
           H         -1.366591289301     0.648342270139     3.282606803618     1.007825032070
           H          1.825408710699     1.413342270139    -1.091393196382     1.007825032070
           H          0.268408710699    -2.524657729861    -0.228393196382     1.007825032070
           H          3.711408710699     0.298342270139    -2.267393196382     1.007825032070
           H          2.228408710699    -3.454657729861    -1.447393196382     1.007825032070
           H         -3.313591289301     1.728342270139     3.091606803618     1.007825032070

  Nuclear repulsion =  697.231587019021617
  Reference energy  = -551.284754734465082

  ==> Basis Set <==

  Basis Set: AUG-CC-PVTZ
    Blend: AUG-CC-PVTZ
    Number of shells: 263
    Number of basis function: 805
    Number of Cartesian functions: 940
    Spherical Harmonics?: true
    Max angular momentum: 3

  ==> CGRSolver (by Rob Parrish) <==

   Number of roots    =         1
   Preconditioning    =    JACOBI
   Convergence cutoff =     1E-06
   Maximum iterations =       100

  ==> CPHFRHamiltonian (by Rob Parrish) <== 

  ==> DFJK: Density-Fitted J/K Matrices <==

    J tasked:                  Yes
    K tasked:                  Yes
    wK tasked:                  No
    OpenMP threads:              8
    Integrals threads:           8
    Memory (MB):              3576
    Algorithm:                Disk
    Integral Cache:           NONE
    Schwarz Cutoff:          1E-12
    Fitting Condition:       1E-12

   => Auxiliary Basis Set <=

  Basis Set: (AUG-CC-PVTZ AUX)
    Blend: AUG-CC-PVTZ-JKFIT
    Number of shells: 516
    Number of basis function: 1766
    Number of Cartesian functions: 2198
    Spherical Harmonics?: true
    Max angular momentum: 4

  ==> CPHF Iterations <==

  => Iterations <=

             Iter  Converged  Remaining    Residual
  CGR           1          0          1   8.750E-02
  CGR           2          0          1   3.317E-02
  CGR           3          0          1   2.222E-02
  CGR           4          0          1   9.384E-03
  CGR           5          0          1   3.679E-03
  CGR           6          0          1   1.492E-03
  CGR           7          0          1   4.088E-04
  CGR           8          0          1   1.101E-04
  CGR           9          0          1   4.266E-05
  CGR          10          0          1   1.136E-05
  CGR          11          0          1   5.315E-06
  CGR          12          0          1   2.385E-06
  CGR          13          0          1   1.052E-06
  CGR          14          1          0   3.967E-07

    CGRSolver converged.

  ==> DFCorrGrad: Density-Fitted Correlated Gradients <==

    OpenMP threads:              8
    Integrals threads:           8
    Memory (MB):              3576
    Schwarz Cutoff:          0E+00
    Fitting Condition:       1E-12

   => Auxiliary Basis Set <=

  Basis Set: (AUG-CC-PVTZ AUX)
    Blend: AUG-CC-PVTZ-JKFIT
    Number of shells: 516
    Number of basis function: 1766
    Number of Cartesian functions: 2198
    Spherical Harmonics?: true
    Max angular momentum: 4

	-----------------------------------------------------------
	 ==================> DF-MP2 Energies <==================== 
	-----------------------------------------------------------
	 Reference Energy          =    -551.2847547344650820 [Eh]
	 Singles Energy            =      -0.0000000000000001 [Eh]
	 Same-Spin Energy          =      -0.6042056806889847 [Eh]
	 Opposite-Spin Energy      =      -1.8300231635562865 [Eh]
	 Correlation Energy        =      -2.4342288442452711 [Eh]
	 Total Energy              =    -553.7189835787103220 [Eh]
	-----------------------------------------------------------
	 ================> DF-SCS-MP2 Energies <================== 
	-----------------------------------------------------------
	 SCS Same-Spin Scale       =       0.3333333333333333 [-]
	 SCS Opposite-Spin Scale   =       1.2000000000000000 [-]
	 SCS Same-Spin Energy      =      -0.2014018935629949 [Eh]
	 SCS Opposite-Spin Energy  =      -2.1960277962675439 [Eh]
	 SCS Correlation Energy    =      -2.3974296898305387 [Eh]
	 SCS Total Energy          =    -553.6821844242956558 [Eh]
	-----------------------------------------------------------


  -Total Gradient:
     Atom            X                  Y                   Z
    ------   -----------------  -----------------  -----------------
       1        0.005235785201    -0.004331083980    -0.008079818293
       2        0.007567595556    -0.002252761484    -0.003525613290
       3        0.002447150793    -0.001555095392     0.000945734227
       4       -0.005073039566     0.002702258652     0.006951682789
       5       -0.003666510659     0.006468294460     0.003892619870
       6       -0.007764724636    -0.000783781848     0.003045215730
       7       -0.006616768968     0.011614150809     0.004523669745
       8       -0.011769190448    -0.001475777891     0.006963850669
       9        0.008271178018    -0.004514526532    -0.005559234293
      10       -0.001615932269     0.001226622991     0.000877417843
      11       -0.007729744455     0.004487624080    -0.007603792049
      12        0.013328487510    -0.007455321417    -0.008306829795
      13        0.006050329049    -0.003304503749     0.000259085006
      14       -0.001475998049     0.001174212097    -0.005639885827
      15        0.002916148538    -0.001965199708     0.005015046526
      16       -0.002613287918     0.001822774160    -0.005117495550
      17        0.000735227368    -0.000726734636     0.003622435458
      18        0.001823111226     0.004782841394    -0.001208333398
      19       -0.001806617786    -0.004681052442     0.001292111549
      20        0.002480631751     0.001204626319    -0.001545530396
      21        0.000941257968    -0.003022834500    -0.000551806871
      22       -0.001665088232     0.000585268620     0.009749470358


*** tstop() called on gpu-3-8.local at Sun Nov 12 13:41:24 2017
Module time:
	user time   =    5133.71 seconds =      85.56 minutes
	system time =     107.81 seconds =       1.80 minutes
	total time  =       2330 seconds =      38.83 minutes
Total time:
	user time   =    5133.72 seconds =      85.56 minutes
	system time =     107.81 seconds =       1.80 minutes
	total time  =       2330 seconds =      38.83 minutes

			-----------------------------------------
			 OPTKING 2.0: for geometry optimizations 
			  - R.A. King,  Bethel University        
			-----------------------------------------

	Internal coordinates to be generated automatically.
	Detected frag 1 with atoms:  1 2 3 4 5 6 7 8 9 10 11 12 13 14 15 16 17 18 19 20
	 21 22
	---Fragment 1 Bond Connectivity---
	 1 : 3 9 14
	 2 : 4 9 15
	 3 : 1 11 16
	 4 : 2 11 17
	 5 : 7 10 18
	 6 : 8 10 19
	 7 : 5 12 20
	 8 : 6 12 21
	 9 : 1 2 10
	 10 : 5 6 9
	 11 : 3 4 13
	 12 : 7 8
	 13 : 11 22
	 14 : 1
	 15 : 2
	 16 : 3
	 17 : 4
	 18 : 5
	 19 : 6
	 20 : 7
	 21 : 8
	 22 : 13

	Assuming in current code that numbering for constraints corresponds to unified fragment.
	Fixed dihedral atom list: 
	     1     9    10     5
	---Fragment 1 Geometry and Gradient---
	 C          -2.3689442194        1.3423523512       -1.1175711780
	 C          -0.4924461694        0.1782810533        2.8773098669
	 C          -4.4060689906        2.4251654253        0.1542145094
	 C          -2.5295709406        1.2610941275        4.1509852805
	 C           3.5402293982        0.6242564207       -2.1663691818
	 C           1.9056162932       -3.5180232626       -1.2574109118
	 C           5.5282212900       -0.5454840556       -3.4060295249
	 C           3.9673075042       -4.5006808517       -2.5386452299
	 C          -0.4111879457        0.2179653021        0.2430316377
	 C           1.7034155970       -0.9045320208       -1.0759972031
	 C          -4.4873272143        2.3854811765        2.7884927387
	 N           5.7908932225       -3.0777170736       -3.6214583041
	 O          -6.4753191061        3.4437278109        4.0300428080
	 H          -2.3330394228        1.3877057784       -3.1717034845
	 H           1.0193347369       -0.6909929678        3.9657921194
	 H          -5.9254088014        3.2982188987       -0.9172602079
	 H          -2.5824832724        1.2251893309        6.2032278608
	 H           3.4495225438        2.6708298226       -2.0624342445
	 H           0.5072189549       -4.7709116887       -0.4316005918
	 H           7.0135460304        0.5637851844       -4.2847521767
	 H           4.2110821754       -6.5283569923       -2.7351767478
	 H          -6.2617800531        3.2660935545        5.8422901694
	             0.0052357852       -0.0043310840       -0.0080798183
	             0.0075675956       -0.0022527615       -0.0035256133
	             0.0024471508       -0.0015550954        0.0009457342
	            -0.0050730396        0.0027022587        0.0069516828
	            -0.0036665107        0.0064682945        0.0038926199
	            -0.0077647246       -0.0007837818        0.0030452157
	            -0.0066167690        0.0116141508        0.0045236697
	            -0.0117691904       -0.0014757779        0.0069638507
	             0.0082711780       -0.0045145265       -0.0055592343
	            -0.0016159323        0.0012266230        0.0008774178
	            -0.0077297445        0.0044876241       -0.0076037920
	             0.0133284875       -0.0074553214       -0.0083068298
	             0.0060503290       -0.0033045037        0.0002590850
	            -0.0014759980        0.0011742121       -0.0056398858
	             0.0029161485       -0.0019651997        0.0050150465
	            -0.0026132879        0.0018227742       -0.0051174956
	             0.0007352274       -0.0007267346        0.0036224355
	             0.0018231112        0.0047828414       -0.0012083334
	            -0.0018066178       -0.0046810524        0.0012921115
	             0.0024806318        0.0012046263       -0.0015455304
	             0.0009412580       -0.0030228345       -0.0005518069
	            -0.0016650882        0.0005852686        0.0097494704

	Previous optimization step data not found.  Starting new optimization.

	---Fragment 1 Intrafragment Coordinates---
	 - Coordinate -           - BOHR/RAD -       - ANG/DEG -
	 R(1,3)           =         2.634350	       1.394038
	 R(1,9)           =         2.635962	       1.394891
	 R(1,14)          =         2.054947	       1.087431
	 R(2,4)           =         2.635263	       1.394521
	 R(2,9)           =         2.635830	       1.394821
	 R(2,15)          =         2.055702	       1.087831
	 R(3,11)          =         2.635830	       1.394821
	 R(3,16)          =         2.053941	       1.086899
	 R(4,11)          =         2.636938	       1.395407
	 R(4,17)          =         2.053239	       1.086527
	 R(5,7)           =         2.618618	       1.385713
	 R(5,10)          =         2.626783	       1.390034
	 R(5,18)          =         2.051217	       1.085458
	 R(6,8)           =         2.618730	       1.385772
	 R(6,10)          =         2.627572	       1.390451
	 R(6,19)          =         2.051148	       1.085421
	 R(7,12)          =         2.554919	       1.352005
	 R(7,20)          =         2.051541	       1.085629
	 R(8,12)          =         2.553972	       1.351504
	 R(8,21)          =         2.051712	       1.085719
	 R(9,10)          =         2.733384	       1.446444
	 R(11,13)         =         2.571662	       1.360865
	 R(13,22)         =         1.833410	       0.970199
	 B(1,3,11)        =         2.094553	     120.009056
	 B(1,3,16)        =         2.088505	     119.662516
	 B(1,9,2)         =         2.093692	     119.959722
	 B(1,9,10)        =         2.095161	     120.043881
	 B(2,4,11)        =         2.093699	     119.960108
	 B(2,4,17)        =         2.089577	     119.723926
	 B(2,9,10)        =         2.094332	     119.996376
	 B(3,1,9)         =         2.094940	     120.031219
	 B(3,1,14)        =         2.079469	     119.144799
	 B(3,11,4)        =         2.094306	     119.994870
	 B(3,11,13)       =         2.094549	     120.008801
	 B(4,2,9)         =         2.095181	     120.045019
	 B(4,2,15)        =         2.078675	     119.099297
	 B(4,11,13)       =         2.094331	     119.996326
	 B(5,7,12)        =         2.166031	     124.104431
	 B(5,7,20)        =         2.107009	     120.722745
	 B(5,10,6)        =         2.090256	     119.762863
	 B(5,10,9)        =         2.097019	     120.150319
	 B(6,8,12)        =         2.165787	     124.090440
	 B(6,8,21)        =         2.107439	     120.747346
	 B(6,10,9)        =         2.095910	     120.086818
	 B(7,5,10)        =         2.057135	     117.865140
	 B(7,5,18)        =         2.098151	     120.215172
	 B(7,12,8)        =         2.029797	     116.298799
	 B(8,6,10)        =         2.057365	     117.878304
	 B(8,6,19)        =         2.099618	     120.299242
	 B(9,1,14)        =         2.108776	     120.823969
	 B(9,2,15)        =         2.109330	     120.855683
	 B(10,5,18)       =         2.127897	     121.919516
	 B(10,6,19)       =         2.126203	     121.822451
	 B(11,3,16)       =         2.100127	     120.328425
	 B(11,4,17)       =         2.099910	     120.315955
	 B(11,13,22)      =         1.925489	     110.322421
	 B(12,7,20)       =         2.010143	     115.172721
	 B(12,8,21)       =         2.009959	     115.162167
	 D(1,3,11,4)      =        -0.000325	      -0.018609
	 D(1,3,11,13)     =         3.140978	     179.964785
	 D(1,9,2,4)       =         0.000325	       0.018608
	 D(1,9,2,15)      =        -3.141497	    -179.994534
	 D(1,9,10,5)      =         1.307751	      74.928593
	 D(1,9,10,6)      =        -1.833896	    -105.074511
	 D(2,4,11,3)      =         0.000301	       0.017261
	 D(2,4,11,13)     =        -3.141002	    -179.966135
	 D(2,9,1,3)       =        -0.000348	      -0.019945
	 D(2,9,1,14)      =        -3.141221	    -179.978731
	 D(2,9,10,5)      =        -1.832926	    -105.018904
	 D(2,9,10,6)      =         1.308613	      74.977992
	 D(3,1,9,10)      =        -3.141025	    -179.967461
	 D(3,11,4,17)     =         3.141223	     179.978848
	 D(3,11,13,22)    =         3.140828	     179.956172
	 D(4,2,9,10)      =         3.141002	     179.966149
	 D(4,11,3,16)     =         3.141593	     180.000000
	 D(4,11,13,22)    =        -0.001055	      -0.060434
	 D(5,7,12,8)      =         0.000047	       0.002684
	 D(5,10,6,8)      =         0.000802	       0.045963
	 D(5,10,6,19)     =        -3.140445	    -179.934271
	 D(6,8,12,7)      =        -0.000294	      -0.016824
	 D(6,10,5,7)      =        -0.001023	      -0.058605
	 D(6,10,5,18)     =        -3.139994	    -179.908407
	 D(7,5,10,9)      =         3.140516	     179.938301
	 D(7,12,8,21)     =         3.139937	     179.905114
	 D(8,6,10,9)      =        -3.140736	    -179.950945
	 D(8,12,7,20)     =         3.139608	     179.886312
	 D(9,1,3,11)      =         0.000348	       0.019955
	 D(9,1,3,16)      =        -3.141571	    -179.998735
	 D(9,2,4,11)      =        -0.000301	      -0.017270
	 D(9,2,4,17)      =        -3.141228	    -179.979086
	 D(9,10,5,18)     =         0.001545	       0.088499
	 D(9,10,6,19)     =         0.001201	       0.068821
	 D(10,5,7,12)     =         0.000607	       0.034771
	 D(10,5,7,20)     =        -3.138848	    -179.842714
	 D(10,6,8,12)     =        -0.000130	      -0.007439
	 D(10,6,8,21)     =        -3.140288	    -179.925229
	 D(10,9,1,14)     =         0.001287	       0.073752
	 D(10,9,2,15)     =        -0.000820	      -0.046992
	 D(11,3,1,14)     =         3.141234	     179.979432
	 D(11,4,2,15)     =         3.141517	     179.995641
	 D(12,7,5,18)     =         3.139625	     179.887241
	 D(12,8,6,19)     =         3.141123	     179.973109
	 D(13,11,3,16)    =        -0.000286	      -0.016400
	 D(13,11,4,17)    =        -0.000079	      -0.004548
	 D(14,1,3,16)     =        -0.000685	      -0.039257
	 D(15,2,4,17)     =         0.000590	       0.033826
	 D(18,5,7,20)     =         0.000170	       0.009755
	 D(19,6,8,21)     =         0.000966	       0.055319

	Current energy   :      -553.7189835787

	Generating empirical Hessian (Schlegel '84) for each fragment.
	Adding user-defined constraint: Fragment 1; Coordinate 63:
		Value =     1.307751; Fixed value    =     1.308997
		Force =     0.000623; Force constant =     0.500000
	Removing off-diagonal coupling between coordinate 63 and others.
	Taking RFO optimization step.
	Going to follow RFO solution 1.
	Using RFO vector 1.

	Determining step-restricting scale parameter for RS-RFO.
	Maximum step size allowed    0.10000

	 Iter      |step|        alpha        rfo_root  
	------------------------------------------------
	    0     0.16129       1.00000           1
	    1     0.13416       6.02345           1
	    2     0.11241      17.60776           1
	    3     0.10212      27.15502           1
	    4     0.10008      29.51099           1
	    5     0.10000      29.60447           1
	------------------------------------------------
	Norm of target step-size    0.10000
	Projected energy change by RFO approximation:        -0.0042409442

	Back-transformation to cartesian coordinates...
	Could not converge backtransformation.
	Using first guess instead.

	--- Internal Coordinate Step in ANG or DEG, aJ/ANG or AJ/DEG ---
	 ---------------------------------------------------------------------------
	   Coordinate                Previous        Force       Change         New 
	   ----------                --------       ------       ------       ------
	    1 R(1,3)          =      1.394038    -0.048202    -0.005243     1.388795
	    2 R(1,9)          =      1.394891    -0.023861    -0.002415     1.392476
	    3 R(1,14)         =      1.087431    -0.046448    -0.006212     1.081219
	    4 R(2,4)          =      1.394521    -0.050414    -0.005402     1.389119
	    5 R(2,9)          =      1.394821    -0.035521    -0.003724     1.391097
	    6 R(2,15)         =      1.087831    -0.046393    -0.006185     1.081646
	    7 R(3,11)         =      1.394821    -0.082960    -0.009065     1.385756
	    8 R(3,16)         =      1.086899    -0.044304    -0.005867     1.081032
	    9 R(4,11)         =      1.395407    -0.036562    -0.003994     1.391413
	   10 R(4,17)         =      1.086527    -0.029779    -0.003974     1.082554
	   11 R(5,7)          =      1.385713     0.008418     0.000878     1.386591
	   12 R(5,10)         =      1.390034    -0.014395    -0.001050     1.388984
	   13 R(5,18)         =      1.085458    -0.038146    -0.005075     1.080383
	   14 R(6,8)          =      1.385772     0.007855     0.000819     1.386591
	   15 R(6,10)         =      1.390451    -0.016902    -0.001315     1.389136
	   16 R(6,19)         =      1.085421    -0.037991    -0.005052     1.080369
	   17 R(7,12)         =      1.352005    -0.120340    -0.011744     1.340261
	   18 R(7,20)         =      1.085629    -0.025617    -0.003405     1.082224
	   19 R(8,12)         =      1.351504    -0.117023    -0.011403     1.340101
	   20 R(8,21)         =      1.085719    -0.025970    -0.003456     1.082263
	   21 R(9,10)         =      1.446444     0.155842     0.019400     1.465844
	   22 R(11,13)        =      1.360865    -0.002661     0.000250     1.361114
	   23 R(13,22)        =      0.970199    -0.077332    -0.007471     0.962728
	   24 B(1,3,11)       =    120.009056    -0.000043    -0.136300   119.872757
	   25 B(1,3,16)       =    119.662516     0.000234     0.624279   120.286795
	   26 B(1,9,2)        =    119.959722    -0.000512    -1.009337   118.950385
	   27 B(1,9,10)       =    120.043881     0.000270     0.534825   120.578706
	   28 B(2,4,11)       =    119.960108     0.000101     0.198203   120.158311
	   29 B(2,4,17)       =    119.723926     0.000031     0.114384   119.838310
	   30 B(2,9,10)       =    119.996376     0.000242     0.474453   120.470829
	   31 B(3,1,9)        =    120.031219     0.000373     0.790714   120.821933
	   32 B(3,1,14)       =    119.144799    -0.000039    -0.010506   119.134293
	   33 B(3,11,4)       =    119.994870    -0.000088    -0.216437   119.778434
	   34 B(3,11,13)      =    120.008801    -0.000836    -1.640390   118.368412
	   35 B(4,2,9)        =    120.045019     0.000169     0.373116   120.418135
	   36 B(4,2,15)       =    119.099297     0.000104     0.305591   119.404888
	   37 B(4,11,13)      =    119.996326     0.000924     1.856828   121.853154
	   38 B(5,7,12)       =    124.104431    -0.000036    -0.152803   123.951628
	   39 B(5,7,20)       =    120.722745    -0.000026    -0.039687   120.683058
	   40 B(5,10,6)       =    119.762863    -0.000901    -1.684496   118.078366
	   41 B(5,10,9)       =    120.150319     0.000444     0.829538   120.979858
	   42 B(6,8,12)       =    124.090440    -0.000033    -0.144419   123.946020
	   43 B(6,8,21)       =    120.747346    -0.000032    -0.054813   120.692534
	   44 B(6,10,9)       =    120.086818     0.000457     0.854787   120.941605
	   45 B(7,5,10)       =    117.865140     0.000411     0.940043   118.805184
	   46 B(7,5,18)       =    120.215172    -0.000011     0.036796   120.251968
	   47 B(7,12,8)       =    116.298799     0.000151     0.109139   116.407938
	   48 B(8,6,10)       =    117.878304     0.000408     0.932554   118.810858
	   49 B(8,6,19)       =    120.299242    -0.000021     0.012252   120.311495
	   50 B(9,1,14)       =    120.823969    -0.000334    -0.780258   120.043711
	   51 B(9,2,15)       =    120.855683    -0.000272    -0.678731   120.176951
	   52 B(10,5,18)      =    121.919516    -0.000400    -0.976876   120.942641
	   53 B(10,6,19)      =    121.822451    -0.000387    -0.944855   120.877595
	   54 B(11,3,16)      =    120.328425    -0.000191    -0.487978   119.840447
	   55 B(11,4,17)      =    120.315955    -0.000132    -0.312591   120.003363
	   56 B(11,13,22)     =    110.322421    -0.000443    -1.149521   109.172899
	   57 B(12,7,20)      =    115.172721     0.000062     0.192405   115.365126
	   58 B(12,8,21)      =    115.162167     0.000065     0.199190   115.361357
	   59 D(1,3,11,4)     =     -0.018609    -0.000001    -0.029949    -0.048558
	   60 D(1,3,11,13)    =    179.964785    -0.000000    -0.007404   179.957381
	   61 D(1,9,2,4)      =      0.018608    -0.000003    -0.091416    -0.072808
	   62 D(1,9,2,15)     =   -179.994534    -0.000000    -0.019239  -180.013773
	   63 D(1,9,10,5)     =     74.928593    -0.000008    -0.078514    74.850079
	   64 D(1,9,10,6)     =   -105.074511    -0.000013    -0.228518  -105.303029
	   65 D(2,4,11,3)     =      0.017261    -0.000000    -0.007243     0.010019
	   66 D(2,4,11,13)    =   -179.966135    -0.000001    -0.029999  -179.996134
	   67 D(2,9,1,3)      =     -0.019945     0.000002     0.054038     0.034093
	   68 D(2,9,1,14)     =   -179.978731     0.000004     0.104250  -179.874481
	   69 D(2,9,10,5)     =   -105.018904    -0.000013    -0.235209  -105.254113
	   70 D(2,9,10,6)     =     74.977992    -0.000018    -0.385213    74.592779
	   71 D(3,1,9,10)     =   -179.967461    -0.000004    -0.101072  -180.068533
	   72 D(3,11,4,17)    =    179.978848    -0.000001    -0.013699   179.965150
	   73 D(3,11,13,22)   =    179.956172    -0.000000    -0.005881   179.950291
	   74 D(4,2,9,10)     =    179.966149     0.000002     0.063555   180.029704
	   75 D(4,11,3,16)    =    180.000000    -0.000003    -0.061118   179.938882
	   76 D(4,11,13,22)   =     -0.060434     0.000001     0.016794    -0.043640
	   77 D(5,7,12,8)     =      0.002684    -0.000000    -0.009633    -0.006950
	   78 D(5,10,6,8)     =      0.045963    -0.000002    -0.074689    -0.028726
	   79 D(5,10,6,19)    =   -179.934271     0.000000    -0.011529  -179.945800
	   80 D(6,8,12,7)     =     -0.016824     0.000001     0.017830     0.001006
	   81 D(6,10,5,7)     =     -0.058605     0.000003     0.081949     0.023344
	   82 D(6,10,5,18)    =   -179.908407     0.000004     0.096985  -179.811422
	   83 D(7,5,10,9)     =    179.938301    -0.000002    -0.063793   179.874508
	   84 D(7,12,8,21)    =    179.905114    -0.000001    -0.012077   179.893037
	   85 D(8,6,10,9)     =   -179.950945     0.000002     0.070996  -179.879949
	   86 D(8,12,7,20)    =    179.886312    -0.000002    -0.050375   179.835937
	   87 D(9,1,3,11)     =      0.019955     0.000001     0.006523     0.026478
	   88 D(9,1,3,16)     =   -179.998735     0.000002     0.037829  -179.960905
	   89 D(9,2,4,11)     =     -0.017270     0.000003     0.068623     0.051353
	   90 D(9,2,4,17)     =   -179.979086     0.000003     0.075234  -179.903852
	   91 D(9,10,5,18)    =      0.088499    -0.000001    -0.048758     0.039742
	   92 D(9,10,6,19)    =      0.068821     0.000005     0.134156     0.202977
	   93 D(10,5,7,12)    =      0.034771    -0.000001    -0.040254    -0.005483
	   94 D(10,5,7,20)    =   -179.842714     0.000000     0.002309  -179.840406
	   95 D(10,6,8,12)    =     -0.007439     0.000001     0.024568     0.017129
	   96 D(10,6,8,21)    =   -179.925229     0.000002     0.055814  -179.869414
	   97 D(10,9,1,14)    =      0.073752    -0.000001    -0.050860     0.022893
	   98 D(10,9,2,15)    =     -0.046992     0.000005     0.135732     0.088739
	   99 D(11,3,1,14)    =    179.979432    -0.000002    -0.043560   179.935872
	  100 D(11,4,2,15)    =    179.995641    -0.000000    -0.002870   179.992772
	  101 D(12,7,5,18)    =    179.887241    -0.000002    -0.056784   179.830457
	  102 D(12,8,6,19)    =    179.973109    -0.000002    -0.038424   179.934685
	  103 D(13,11,3,16)   =     -0.016400    -0.000002    -0.038779    -0.055178
	  104 D(13,11,4,17)   =     -0.004548    -0.000002    -0.036455    -0.041003
	  105 D(14,1,3,16)    =     -0.039257    -0.000000    -0.012255    -0.051511
	  106 D(15,2,4,17)    =      0.033826     0.000000     0.003741     0.037566
	  107 D(18,5,7,20)    =      0.009755    -0.000001    -0.014221    -0.004466
	  108 D(19,6,8,21)    =      0.055319    -0.000000    -0.007177     0.048142
	 ---------------------------------------------------------------------------
	Successfully symmetrized geometry.
	 Forces used to impose fixed constraints are not included.
	  Forces zeroed: 63 

  ==> Convergence Check <==

  Measures of convergence in internal coordinates in au.
  Criteria marked as inactive (o), active & met (*), and active & unmet ( ).
  --------------------------------------------------------------------------------------------- ~
   Step     Total Energy     Delta E     MAX Force     RMS Force      MAX Disp      RMS Disp    ~
  --------------------------------------------------------------------------------------------- ~
    Convergence Criteria    1.00e-06 *    3.00e-04 *             o    1.20e-03 *             o  ~
  --------------------------------------------------------------------------------------------- ~
      1    -553.71898358   -5.54e+02      1.89e-02      4.35e-03 o    3.67e-02      9.62e-03 o  ~
  ---------------------------------------------------------------------------------------------

	Writing optimization data to binary file.
	Structure for next step:
	Cartesian Geometry (in Angstrom)
	    C    -1.2654882487   0.7195655220  -0.5637544996
	    C    -0.2744455051   0.0996854579   1.5298087113
	    C    -2.3404311358   1.2901566557   0.1053301299
	    C    -1.3473517842   0.6699340478   2.2031149177
	    C     1.8866956395   0.3102619699  -1.1576412909
	    C     1.0325582957  -1.8611404044  -0.6772527020
	    C     2.9385595587  -0.3067640394  -1.8175627149
	    C     2.1217188567  -2.3832164975  -1.3582819073
	    C    -0.2239023064   0.1202975359   0.1397828243
	    C     0.9073913023  -0.4816718015  -0.5719100636
	    C    -2.3826532155   1.2665877621   1.4902427002
	    N     3.0756614921  -1.6352752284  -1.9296385746
	    O    -3.4500085275   1.8355266625   2.1144973330
	    H    -1.2452526817   0.7437667545  -1.6445129544
	    H     0.5238008615  -0.3607834348   2.0961384152
	    H    -3.1447324066   1.7525756815  -0.4495557882
	    H    -1.3763422101   0.6499626489   3.2850958818
	    H     1.8368055985   1.3880156286  -1.1012056315
	    H     0.2965262381  -2.5197011401  -0.2393588337
	    H     3.7194818426   0.2807606038  -2.2825184683
	    H     2.2481681973  -3.4531903569  -1.4605532724
	    H    -3.3447682260   1.7441759148   3.0670854677
			--------------------------
			 OPTKING Finished Execution 
			--------------------------

    Structure for next step:
    Molecular point group: c1
    Full point group: C1

    Geometry (in Angstrom), charge = 0, multiplicity = 1:

    C           -1.265650890837     0.719495876172    -0.563423656667
    C           -0.274608147303     0.099615812099     1.530139554252
    C           -2.340593778019     1.290087009918     0.105660972821
    C           -1.347514426343     0.669864402010     2.203445760623
    C            1.886532997349     0.310192324120    -1.157310447918
    C            1.032395653474    -1.861210050168    -0.676921859078
    C            2.938396916498    -0.306833685225    -1.817231871929
    C            2.121556214493    -2.383286143366    -1.357951064387
    C           -0.224064948618     0.120227890080     0.140113667247
    C            0.907228660144    -0.481741447321    -0.571579220658
    C           -2.382815857662     1.266518116266     1.490573543142
    N            3.075498849892    -1.635344874211    -1.929307731601
    O           -3.450171169656     1.835457016699     2.114828175988
    H           -1.245415323886     0.743697108669    -1.644182111426
    H            0.523638219288    -0.360853080623     2.096469258111
    H           -3.144895048768     1.752506035686    -0.449224945249
    H           -1.376504852259     0.649893003115     3.285426724771
    H            1.836642956299     1.387945982815    -1.100874788504
    H            0.296363595936    -2.519770785916    -0.239027990716
    H            3.719319200448     0.280690957950    -2.282187625371
    H            2.248005555136    -3.453260002681    -1.460222429414
    H           -3.344930868156     1.744106269016     3.067416310645

gradient() will perform analytic gradient computation.

*** tstart() called on gpu-3-8.local
*** at Sun Nov 12 13:41:27 2017

    SCF Algorithm Type (re)set to DF.

*** tstart() called on gpu-3-8.local
*** at Sun Nov 12 13:41:27 2017

   => Loading Basis Set <=

    Name: AUG-CC-PVTZ
    Role: ORBITAL
    Keyword: BASIS
    atoms 1-11  entry C          line   221 file /cbio/jclab/home/chayas/anaconda/envs/py35/share/psi4/basis/aug-cc-pvtz.gbs 
    atoms 12    entry N          line   267 file /cbio/jclab/home/chayas/anaconda/envs/py35/share/psi4/basis/aug-cc-pvtz.gbs 
    atoms 13    entry O          line   313 file /cbio/jclab/home/chayas/anaconda/envs/py35/share/psi4/basis/aug-cc-pvtz.gbs 
    atoms 14-22 entry H          line    34 file /cbio/jclab/home/chayas/anaconda/envs/py35/share/psi4/basis/aug-cc-pvtz.gbs 


         ---------------------------------------------------------
                                   SCF
            by Justin Turney, Rob Parrish, and Andy Simmonett
                              RHF Reference
                        8 Threads,   4768 MiB Core
         ---------------------------------------------------------

  ==> Geometry <==

    Molecular point group: c1
    Full point group: C1

    Geometry (in Angstrom), charge = 0, multiplicity = 1:

       Center              X                  Y                   Z               Mass       
    ------------   -----------------  -----------------  -----------------  -----------------
           C         -1.265650890837     0.719495876172    -0.563423656667    12.000000000000
           C         -0.274608147303     0.099615812099     1.530139554252    12.000000000000
           C         -2.340593778019     1.290087009918     0.105660972821    12.000000000000
           C         -1.347514426343     0.669864402010     2.203445760623    12.000000000000
           C          1.886532997349     0.310192324120    -1.157310447918    12.000000000000
           C          1.032395653474    -1.861210050168    -0.676921859078    12.000000000000
           C          2.938396916498    -0.306833685225    -1.817231871929    12.000000000000
           C          2.121556214493    -2.383286143366    -1.357951064387    12.000000000000
           C         -0.224064948618     0.120227890080     0.140113667247    12.000000000000
           C          0.907228660144    -0.481741447321    -0.571579220658    12.000000000000
           C         -2.382815857662     1.266518116266     1.490573543142    12.000000000000
           N          3.075498849892    -1.635344874211    -1.929307731601    14.003074004780
           O         -3.450171169656     1.835457016699     2.114828175988    15.994914619560
           H         -1.245415323886     0.743697108669    -1.644182111426     1.007825032070
           H          0.523638219288    -0.360853080623     2.096469258111     1.007825032070
           H         -3.144895048768     1.752506035686    -0.449224945249     1.007825032070
           H         -1.376504852259     0.649893003115     3.285426724771     1.007825032070
           H          1.836642956299     1.387945982815    -1.100874788504     1.007825032070
           H          0.296363595936    -2.519770785916    -0.239027990716     1.007825032070
           H          3.719319200448     0.280690957950    -2.282187625371     1.007825032070
           H          2.248005555136    -3.453260002681    -1.460222429414     1.007825032070
           H         -3.344930868156     1.744106269016     3.067416310645     1.007825032070

  Running in c1 symmetry.

  Rotational constants: A =      0.09843  B =      0.01286  C =      0.01243 [cm^-1]
  Rotational constants: A =   2950.83135  B =    385.51953  C =    372.62717 [MHz]
  Nuclear repulsion =  697.018946923077465

  Charge       = 0
  Multiplicity = 1
  Electrons    = 90
  Nalpha       = 45
  Nbeta        = 45

  ==> Algorithm <==

  SCF Algorithm Type is DF.
  DIIS enabled.
  MOM disabled.
  Fractional occupation disabled.
  Guess Type is READ.
  Energy threshold   = 1.00e-10
  Density threshold  = 1.00e-10
  Integral threshold = 0.00e+00

  ==> Primary Basis <==

  Basis Set: AUG-CC-PVTZ
    Blend: AUG-CC-PVTZ
    Number of shells: 263
    Number of basis function: 805
    Number of Cartesian functions: 940
    Spherical Harmonics?: true
    Max angular momentum: 3

   => Loading Basis Set <=

    Name: (AUG-CC-PVTZ AUX)
    Role: JKFIT
    Keyword: DF_BASIS_SCF
    atoms 1-11  entry C          line   161 file /cbio/jclab/home/chayas/anaconda/envs/py35/share/psi4/basis/aug-cc-pvtz-jkfit.gbs 
    atoms 12    entry N          line   223 file /cbio/jclab/home/chayas/anaconda/envs/py35/share/psi4/basis/aug-cc-pvtz-jkfit.gbs 
    atoms 13    entry O          line   285 file /cbio/jclab/home/chayas/anaconda/envs/py35/share/psi4/basis/aug-cc-pvtz-jkfit.gbs 
    atoms 14-22 entry H          line    69 file /cbio/jclab/home/chayas/anaconda/envs/py35/share/psi4/basis/aug-cc-pvtz-jkfit.gbs 

  Reading orbitals from file 180, no projection.

  ==> Pre-Iterations <==

   -------------------------------------------------------
    Irrep   Nso     Nmo     Nalpha   Nbeta   Ndocc  Nsocc
   -------------------------------------------------------
     A        805     805       0       0       0       0
   -------------------------------------------------------
    Total     805     805      45      45      45       0
   -------------------------------------------------------

  ==> Integral Setup <==

  ==> DFJK: Density-Fitted J/K Matrices <==

    J tasked:                  Yes
    K tasked:                  Yes
    wK tasked:                  No
    OpenMP threads:              8
    Integrals threads:           8
    Memory (MB):              3576
    Algorithm:                Disk
    Integral Cache:           NONE
    Schwarz Cutoff:          1E-12
    Fitting Condition:       1E-12

   => Auxiliary Basis Set <=

  Basis Set: (AUG-CC-PVTZ AUX)
    Blend: AUG-CC-PVTZ-JKFIT
    Number of shells: 516
    Number of basis function: 1766
    Number of Cartesian functions: 2198
    Spherical Harmonics?: true
    Max angular momentum: 4

  Minimum eigenvalue in the overlap matrix is 5.7128716143E-07.
  Using Symmetric Orthogonalization.

  SCF Guess: Orbitals guess was supplied from a previous computation.

  ==> Iterations <==

                           Total Energy        Delta E     RMS |[F,P]|

   @DF-RHF iter   0:  -551.38766289168507   -5.51388e+02   5.31920e-04 
   @DF-RHF iter   1:  -551.28924394695252    9.84189e-02   8.31156e-05 
   @DF-RHF iter   2:  -551.28976668535006   -5.22738e-04   9.01037e-05 DIIS
   @DF-RHF iter   3:  -551.29015163853535   -3.84953e-04   1.37907e-05 DIIS
   @DF-RHF iter   4:  -551.29016065818689   -9.01965e-06   3.06008e-06 DIIS
   @DF-RHF iter   5:  -551.29016259661842   -1.93843e-06   1.11677e-06 DIIS
   @DF-RHF iter   6:  -551.29016291218534   -3.15567e-07   7.96183e-07 DIIS
   @DF-RHF iter   7:  -551.29016303575690   -1.23572e-07   3.86173e-07 DIIS
   @DF-RHF iter   8:  -551.29016307558231   -3.98254e-08   1.25083e-07 DIIS
   @DF-RHF iter   9:  -551.29016308000689   -4.42458e-09   4.21732e-08 DIIS
   @DF-RHF iter  10:  -551.29016308030054   -2.93653e-10   1.48498e-08 DIIS
   @DF-RHF iter  11:  -551.29016308034409   -4.35421e-11   3.71319e-09 DIIS
   @DF-RHF iter  12:  -551.29016308033238    1.17097e-11   1.94664e-09 DIIS
   @DF-RHF iter  13:  -551.29016308037330   -4.09273e-11   8.31394e-10 DIIS
   @DF-RHF iter  14:  -551.29016308035636    1.69393e-11   3.51182e-10 DIIS
   @DF-RHF iter  15:  -551.29016308034534    1.10276e-11   1.52375e-10 DIIS
   @DF-RHF iter  16:  -551.29016308034090    4.43379e-12   5.01758e-11 DIIS

  ==> Post-Iterations <==

    Orbital Energies (a.u.)
    -----------------------

    Doubly Occupied:                                                      

       1A    -20.598855     2A    -15.563216     3A    -11.310386  
       4A    -11.272685     5A    -11.272649     6A    -11.262933  
       7A    -11.251004     8A    -11.249110     9A    -11.243845  
      10A    -11.242606    11A    -11.236740    12A    -11.236728  
      13A    -11.236669    14A     -1.416448    15A     -1.256351  
      16A     -1.172722    17A     -1.104536    18A     -1.034664  
      19A     -1.031736    20A     -1.011893    21A     -0.879137  
      22A     -0.861869    23A     -0.853180    24A     -0.811271  
      25A     -0.745802    26A     -0.724781    27A     -0.678871  
      28A     -0.666087    29A     -0.656641    30A     -0.636893  
      31A     -0.616371    32A     -0.601081    33A     -0.600758  
      34A     -0.596636    35A     -0.580381    36A     -0.539013  
      37A     -0.527435    38A     -0.523557    39A     -0.505509  
      40A     -0.489497    41A     -0.418330    42A     -0.380111  
      43A     -0.355991    44A     -0.346219    45A     -0.321936  

    Virtual:                                                              

      46A      0.022254    47A      0.031123    48A      0.033372  
      49A      0.035928    50A      0.042187    51A      0.049041  
      52A      0.050354    53A      0.052716    54A      0.061636  
      55A      0.083851    56A      0.085116    57A      0.088462  
      58A      0.091125    59A      0.097436    60A      0.099777  
      61A      0.100354    62A      0.106094    63A      0.107722  
      64A      0.109041    65A      0.111182    66A      0.114226  
      67A      0.117449    68A      0.120694    69A      0.124607  
      70A      0.126246    71A      0.127423    72A      0.132130  
      73A      0.135872    74A      0.140715    75A      0.142132  
      76A      0.144576    77A      0.144949    78A      0.152731  
      79A      0.154679    80A      0.156697    81A      0.159565  
      82A      0.167040    83A      0.171185    84A      0.175288  
      85A      0.188452    86A      0.190123    87A      0.196573  
      88A      0.202311    89A      0.206243    90A      0.218978  
      91A      0.224083    92A      0.229053    93A      0.232545  
      94A      0.237571    95A      0.239840    96A      0.243537  
      97A      0.245071    98A      0.250728    99A      0.254009  
     100A      0.256899   101A      0.258772   102A      0.262741  
     103A      0.266613   104A      0.270440   105A      0.274423  
     106A      0.280185   107A      0.283319   108A      0.284743  
     109A      0.289081   110A      0.294405   111A      0.302273  
     112A      0.305562   113A      0.307967   114A      0.312791  
     115A      0.315273   116A      0.317687   117A      0.319751  
     118A      0.327196   119A      0.327317   120A      0.334318  
     121A      0.338915   122A      0.342784   123A      0.346714  
     124A      0.350786   125A      0.354923   126A      0.364133  
     127A      0.368703   128A      0.373200   129A      0.378831  
     130A      0.390470   131A      0.395493   132A      0.400246  
     133A      0.402344   134A      0.408036   135A      0.411002  
     136A      0.413305   137A      0.418810   138A      0.423229  
     139A      0.429938   140A      0.434737   141A      0.438752  
     142A      0.440345   143A      0.442045   144A      0.444723  
     145A      0.449447   146A      0.449971   147A      0.456369  
     148A      0.461879   149A      0.469185   150A      0.472765  
     151A      0.474195   152A      0.477085   153A      0.478892  
     154A      0.484498   155A      0.487506   156A      0.488996  
     157A      0.495435   158A      0.496029   159A      0.499043  
     160A      0.504947   161A      0.508947   162A      0.509518  
     163A      0.513621   164A      0.514383   165A      0.518999  
     166A      0.524247   167A      0.528795   168A      0.535937  
     169A      0.537753   170A      0.542558   171A      0.543182  
     172A      0.546345   173A      0.550832   174A      0.552628  
     175A      0.559295   176A      0.563269   177A      0.569134  
     178A      0.575964   179A      0.582373   180A      0.587509  
     181A      0.591137   182A      0.595916   183A      0.609250  
     184A      0.611550   185A      0.617180   186A      0.622387  
     187A      0.628015   188A      0.633470   189A      0.636832  
     190A      0.639312   191A      0.640833   192A      0.656629  
     193A      0.664701   194A      0.674618   195A      0.678927  
     196A      0.680949   197A      0.690956   198A      0.694902  
     199A      0.697771   200A      0.704551   201A      0.712423  
     202A      0.717008   203A      0.724073   204A      0.726536  
     205A      0.732086   206A      0.738927   207A      0.743328  
     208A      0.745107   209A      0.752252   210A      0.761569  
     211A      0.763793   212A      0.773167   213A      0.780196  
     214A      0.785062   215A      0.787384   216A      0.789824  
     217A      0.792802   218A      0.799154   219A      0.802561  
     220A      0.805827   221A      0.812996   222A      0.817260  
     223A      0.826241   224A      0.838536   225A      0.845633  
     226A      0.846817   227A      0.850254   228A      0.859521  
     229A      0.870825   230A      0.880928   231A      0.885354  
     232A      0.886652   233A      0.892606   234A      0.893797  
     235A      0.897744   236A      0.904796   237A      0.907718  
     238A      0.912811   239A      0.914515   240A      0.921789  
     241A      0.922958   242A      0.927176   243A      0.931240  
     244A      0.936165   245A      0.941399   246A      0.948487  
     247A      0.951681   248A      0.955356   249A      0.957603  
     250A      0.959086   251A      0.965226   252A      0.966586  
     253A      0.982302   254A      0.984319   255A      0.987809  
     256A      0.991585   257A      0.992776   258A      0.996397  
     259A      1.003656   260A      1.008143   261A      1.012001  
     262A      1.019488   263A      1.022170   264A      1.026947  
     265A      1.030383   266A      1.035901   267A      1.039479  
     268A      1.047242   269A      1.051038   270A      1.051813  
     271A      1.056565   272A      1.058211   273A      1.067152  
     274A      1.071486   275A      1.080734   276A      1.084392  
     277A      1.087912   278A      1.092477   279A      1.097994  
     280A      1.102754   281A      1.108467   282A      1.113333  
     283A      1.117781   284A      1.123491   285A      1.125893  
     286A      1.132514   287A      1.138597   288A      1.146424  
     289A      1.150741   290A      1.154785   291A      1.159575  
     292A      1.161815   293A      1.168383   294A      1.174672  
     295A      1.177182   296A      1.180341   297A      1.185965  
     298A      1.191001   299A      1.193926   300A      1.196875  
     301A      1.201791   302A      1.209661   303A      1.215067  
     304A      1.218371   305A      1.226925   306A      1.230127  
     307A      1.236850   308A      1.244969   309A      1.247692  
     310A      1.254255   311A      1.266988   312A      1.268242  
     313A      1.274079   314A      1.276240   315A      1.288957  
     316A      1.291933   317A      1.295059   318A      1.300260  
     319A      1.304924   320A      1.315055   321A      1.321408  
     322A      1.322669   323A      1.326812   324A      1.331320  
     325A      1.337148   326A      1.351409   327A      1.370908  
     328A      1.372295   329A      1.380609   330A      1.392445  
     331A      1.395448   332A      1.406013   333A      1.412251  
     334A      1.417412   335A      1.419199   336A      1.428406  
     337A      1.431027   338A      1.440733   339A      1.449233  
     340A      1.459049   341A      1.464104   342A      1.477956  
     343A      1.488709   344A      1.491463   345A      1.500172  
     346A      1.503580   347A      1.509406   348A      1.523819  
[...]
	 R(8,21)          =         2.043018	       1.081119
	 R(9,10)          =         2.774405	       1.468152
	 R(11,13)         =         2.575120	       1.362695
	 R(13,22)         =         1.817585	       0.961824
	 B(1,3,11)        =         2.091525	     119.835551
	 B(1,3,16)        =         2.115264	     121.195709
	 B(1,9,2)         =         2.069771	     118.589172
	 B(1,9,10)        =         2.109139	     120.844778
	 B(2,4,11)        =         2.094056	     119.980573
	 B(2,4,17)        =         2.094951	     120.031855
	 B(2,9,10)        =         2.103450	     120.518809
	 B(3,1,9)         =         2.111502	     120.980179
	 B(3,1,14)        =         2.088048	     119.636341
	 B(3,11,4)        =         2.091695	     119.845280
	 B(3,11,13)       =         2.046291	     117.243846
	 B(4,2,9)         =         2.107676	     120.760926
	 B(4,2,15)        =         2.089310	     119.708652
	 B(4,11,13)       =         2.145197	     122.910745
	 B(5,7,12)        =         2.157337	     123.606291
	 B(5,7,20)        =         2.097620	     120.184790
	 B(5,10,6)        =         2.045334	     117.189008
	 B(5,10,9)        =         2.120336	     121.486297
	 B(6,8,12)        =         2.157509	     123.616164
	 B(6,8,21)        =         2.097501	     120.177940
	 B(6,10,9)        =         2.116794	     121.283357
	 B(7,5,10)        =         2.083504	     119.375992
	 B(7,5,18)        =         2.101544	     120.409598
	 B(7,12,8)        =         2.039185	     116.836697
	 B(8,6,10)        =         2.083396	     119.369777
	 B(8,6,19)        =         2.101938	     120.432149
	 B(9,1,14)        =         2.083632	     119.383297
	 B(9,2,15)        =         2.086161	     119.528202
	 B(10,5,18)       =         2.098135	     120.214306
	 B(10,6,19)       =         2.097817	     120.196080
	 B(11,3,16)       =         2.076374	     118.967445
	 B(11,4,17)       =         2.094178	     119.987560
	 B(11,13,22)      =         1.901785	     108.964231
	 B(12,7,20)       =         2.028210	     116.207868
	 B(12,8,21)       =         2.028175	     116.205895
	 D(1,3,11,4)      =        -0.003778	      -0.216491
	 D(1,3,11,13)     =         3.140022	     179.910034
	 D(1,9,2,4)       =        -0.019091	      -1.093845
	 D(1,9,2,15)      =         3.131990	     179.449786
	 D(1,9,10,5)      =         1.303761	      74.699979
	 D(1,9,10,6)      =        -1.879798	    -107.704464
	 D(2,4,11,3)      =         0.001053	       0.060322
	 D(2,4,11,13)     =         3.140307	     179.926329
	 D(2,9,1,3)       =         0.016366	       0.937688
	 D(2,9,1,14)      =        -3.122497	    -178.905894
	 D(2,9,10,5)      =        -1.882077	    -107.835059
	 D(2,9,10,6)      =         1.217550	      69.760498
	 D(3,1,9,10)      =         3.114551	     178.450638
	 D(3,11,4,17)     =        -3.141256	    -179.980728
	 D(3,11,13,22)    =         3.138994	     179.851127
	 D(4,2,9,10)      =        -3.117423	    -178.615181
	 D(4,11,3,16)     =         3.130676	     179.374532
	 D(4,11,13,22)    =        -0.000317	      -0.018149
	 D(5,7,12,8)      =        -0.000649	      -0.037177
	 D(5,10,6,8)      =        -0.014708	      -0.842721
	 D(5,10,6,19)     =         3.135811	     179.668710
	 D(6,8,12,7)      =         0.001681	       0.096342
	 D(6,10,5,7)      =         0.015655	       0.896974
	 D(6,10,5,18)     =        -3.123894	    -178.985928
	 D(7,5,10,9)      =         3.116930	     178.586907
	 D(7,12,8,21)     =        -3.139997	    -179.908569
	 D(8,6,10,9)      =        -3.116070	    -178.537643
	 D(8,12,7,20)     =         3.134428	     179.589516
	 D(9,1,3,11)      =        -0.005086	      -0.291397
	 D(9,1,3,16)      =        -3.139378	    -179.873101
	 D(9,2,4,11)      =         0.010596	       0.607099
	 D(9,2,4,17)      =        -3.130280	    -179.351832
	 D(9,10,5,18)     =        -0.022619	      -1.295994
	 D(9,10,6,19)     =         0.034449	       1.973788
	 D(10,5,7,12)     =        -0.008326	      -0.477017
	 D(10,5,7,20)     =         3.140030	     179.910451
	 D(10,6,8,12)     =         0.006285	       0.360095
	 D(10,6,8,21)     =        -3.135219	    -179.634808
	 D(10,9,1,14)     =        -0.024311	      -1.392944
	 D(10,9,2,15)     =         0.033658	       1.928451
	 D(11,3,1,14)     =         3.133770	     179.551793
	 D(11,4,2,15)     =        -3.140502	    -179.937507
	 D(12,7,5,18)     =         3.131219	     179.405650
	 D(12,8,6,19)     =         3.138930	     179.847431
	 D(13,11,3,16)    =        -0.008708	      -0.498943
	 D(13,11,4,17)    =        -0.002002	      -0.114721
	 D(14,1,3,16)     =        -0.000522	      -0.029911
	 D(15,2,4,17)     =         0.001808	       0.103562
	 D(18,5,7,20)     =        -0.003611	      -0.206881
	 D(19,6,8,21)     =        -0.002574	      -0.147473

	Current energy   :      -553.7221890199

	Energy change for the previous step:
		Projected    :        -0.0000024809
		Actual       :         0.0000026941

	Performing BFGS update.
	Previous computed or guess Hessian on step 1.
	Steps to be used in Hessian update: 5 4
	Adding user-defined constraint: Fragment 1; Coordinate 63:
		Value =     1.303761; Fixed value    =     1.309000
		Force =     0.003275; Force constant =     0.625000
	Removing off-diagonal coupling between coordinate 63 and others.
	Taking RFO optimization step.
	Going to follow RFO solution 1.
	Rejecting RFO root 1 because normalization gives large value.
	Using RFO vector 2.
	Norm of target step-size    0.00201
	Projected energy change by RFO approximation:         0.0000000605

	Back-transformation to cartesian coordinates...
	Successfully converged to displaced geometry.

	--- Internal Coordinate Step in ANG or DEG, aJ/ANG or AJ/DEG ---
	 ---------------------------------------------------------------------------
	   Coordinate                Previous        Force       Change         New 
	   ----------                --------       ------       ------       ------
	    1 R(1,3)          =      1.384691    -0.000121     0.000056     1.384746
	    2 R(1,9)          =      1.393085     0.000245    -0.000069     1.393016
	    3 R(1,14)         =      1.079927     0.000204    -0.000009     1.079918
	    4 R(2,4)          =      1.386956     0.000002    -0.000022     1.386934
	    5 R(2,9)          =      1.391087     0.000002     0.000019     1.391106
	    6 R(2,15)         =      1.079960     0.000187    -0.000012     1.079948
	    7 R(3,11)         =      1.387619     0.000318    -0.000070     1.387549
	    8 R(3,16)         =      1.078890     0.000114    -0.000006     1.078885
	    9 R(4,11)         =      1.388162     0.000046     0.000049     1.388211
	   10 R(4,17)         =      1.081377     0.000024     0.000002     1.081379
	   11 R(5,7)          =      1.386708     0.000321    -0.000003     1.386705
	   12 R(5,10)         =      1.390072    -0.000264    -0.000066     1.390007
	   13 R(5,18)         =      1.079660     0.000259    -0.000011     1.079649
	   14 R(6,8)          =      1.386639     0.000206    -0.000009     1.386630
	   15 R(6,10)         =      1.390115    -0.000210    -0.000027     1.390088
	   16 R(6,19)         =      1.079701     0.000232    -0.000012     1.079689
	   17 R(7,12)         =      1.335079    -0.000458     0.000014     1.335093
	   18 R(7,20)         =      1.081061    -0.000078    -0.000015     1.081046
	   19 R(8,12)         =      1.335053    -0.000309     0.000017     1.335070
	   20 R(8,21)         =      1.081119    -0.000178    -0.000006     1.081113
	   21 R(9,10)         =      1.468152    -0.000473     0.000126     1.468278
	   22 R(11,13)        =      1.362695     0.000010    -0.000004     1.362691
	   23 R(13,22)        =      0.961824     0.000217    -0.000022     0.961802
	   24 B(1,3,11)       =    119.835551    -0.000000     0.001557   119.837108
	   25 B(1,3,16)       =    121.195709     0.000002    -0.017299   121.178410
	   26 B(1,9,2)        =    118.589172     0.000001    -0.001171   118.588001
	   27 B(1,9,10)       =    120.844778     0.000002     0.003147   120.847925
	   28 B(2,4,11)       =    119.980573    -0.000001     0.003998   119.984571
	   29 B(2,4,17)       =    120.031855    -0.000000    -0.002767   120.029088
	   30 B(2,9,10)       =    120.518809    -0.000003    -0.001308   120.517502
	   31 B(3,1,9)        =    120.980179    -0.000001     0.002150   120.982329
	   32 B(3,1,14)       =    119.636341     0.000001    -0.009138   119.627203
	   33 B(3,11,4)       =    119.845280     0.000001    -0.004777   119.840503
	   34 B(3,11,13)      =    117.243846    -0.000002     0.008003   117.251849
	   35 B(4,2,9)        =    120.760926    -0.000000    -0.001503   120.759423
	   36 B(4,2,15)       =    119.708652     0.000000    -0.006769   119.701882
	   37 B(4,11,13)      =    122.910745     0.000001    -0.003221   122.907524
	   38 B(5,7,12)       =    123.606291     0.000002     0.002341   123.608631
	   39 B(5,7,20)       =    120.184790    -0.000001     0.008512   120.193301
	   40 B(5,10,6)       =    117.189008    -0.000002     0.002059   117.191067
	   41 B(5,10,9)       =    121.486297     0.000003     0.004067   121.490364
	   42 B(6,8,12)       =    123.616164     0.000003     0.000218   123.616382
	   43 B(6,8,21)       =    120.177940    -0.000001     0.010550   120.188491
	   44 B(6,10,9)       =    121.283357    -0.000002    -0.005536   121.277821
	   45 B(7,5,10)       =    119.375992    -0.000000    -0.001047   119.374945
	   46 B(7,5,18)       =    120.409598     0.000001    -0.004535   120.405063
	   47 B(7,12,8)       =    116.836697    -0.000004    -0.003888   116.832809
	   48 B(8,6,10)       =    119.369777    -0.000000     0.000374   119.370151
	   49 B(8,6,19)       =    120.432149     0.000001    -0.002541   120.429608
	   50 B(9,1,14)       =    119.383297     0.000000     0.006987   119.390283
	   51 B(9,2,15)       =    119.528202    -0.000000     0.008425   119.536627
	   52 B(10,5,18)      =    120.214306    -0.000001     0.005594   120.219900
	   53 B(10,6,19)      =    120.196080    -0.000001     0.002234   120.198314
	   54 B(11,3,16)      =    118.967445    -0.000001     0.015735   118.983180
	   55 B(11,4,17)      =    119.987560     0.000001    -0.001240   119.986320
	   56 B(11,13,22)     =    108.964231    -0.000000    -0.001697   108.962534
	   57 B(12,7,20)      =    116.207868    -0.000002    -0.011065   116.196803
	   58 B(12,8,21)      =    116.205895    -0.000002    -0.010789   116.195107
	   59 D(1,3,11,4)     =     -0.216491    -0.000000     0.003071    -0.213421
	   60 D(1,3,11,13)    =    179.910034     0.000000     0.000697   179.910730
	   61 D(1,9,2,4)      =     -1.093845    -0.000000     0.020159    -1.073686
	   62 D(1,9,2,15)     =    179.449786    -0.000000     0.001186   179.450972
	   63 D(1,9,10,5)     =     74.699979     0.000001     0.001579    74.701557
	   64 D(1,9,10,6)     =   -107.704464     0.000001     0.018844  -107.685620
	   65 D(2,4,11,3)     =      0.060322     0.000000     0.008589     0.068911
	   66 D(2,4,11,13)    =    179.926329     0.000000     0.011117   179.937447
	   67 D(2,9,1,3)      =      0.937688     0.000000    -0.008340     0.929348
	   68 D(2,9,1,14)     =   -178.905894     0.000000    -0.007846  -178.913739
	   69 D(2,9,10,5)     =   -107.835059     0.000001     0.019548  -107.815511
	   70 D(2,9,10,6)     =     69.760498     0.000001     0.036813    69.797311
	   71 D(3,1,9,10)     =    178.450638    -0.000000     0.009283   178.459920
	   72 D(3,11,4,17)    =   -179.980728     0.000000    -0.003324  -179.984052
	   73 D(3,11,13,22)   =    179.851127    -0.000000     0.001524   179.852651
	   74 D(4,2,9,10)     =   -178.615181     0.000000     0.002482  -178.612699
	   75 D(4,11,3,16)    =    179.374532    -0.000000     0.001894   179.376426
	   76 D(4,11,13,22)   =     -0.018149     0.000000    -0.000928    -0.019078
	   77 D(5,7,12,8)     =     -0.037177     0.000000     0.016098    -0.021078
	   78 D(5,10,6,8)     =     -0.842721     0.000000     0.017500    -0.825220
	   79 D(5,10,6,19)    =    179.668710     0.000000     0.008817   179.677527
	   80 D(6,8,12,7)     =      0.096342     0.000000     0.008021     0.104363
	   81 D(6,10,5,7)     =      0.896974     0.000000     0.004584     0.901558
	   82 D(6,10,5,18)    =   -178.985928     0.000000    -0.002135  -178.988063
	   83 D(7,5,10,9)     =    178.586907    -0.000000     0.020994   178.607901
	   84 D(7,12,8,21)    =   -179.908569    -0.000001    -0.038946  -179.947515
	   85 D(8,6,10,9)     =   -178.537643     0.000000     0.000892  -178.536751
	   86 D(8,12,7,20)    =    179.589516    -0.000000    -0.019933   179.569583
	   87 D(9,1,3,11)     =     -0.291397    -0.000000    -0.003148    -0.294546
	   88 D(9,1,3,16)     =   -179.873101    -0.000000    -0.002086  -179.875187
	   89 D(9,2,4,11)     =      0.607099    -0.000000    -0.020452     0.586648
	   90 D(9,2,4,17)     =   -179.351832    -0.000000    -0.008535  -179.360366
	   91 D(9,10,5,18)    =     -1.295994    -0.000000     0.014274    -1.281720
	   92 D(9,10,6,19)    =      1.973788     0.000000    -0.007791     1.965997
	   93 D(10,5,7,12)    =     -0.477017    -0.000000    -0.022565    -0.499582
	   94 D(10,5,7,20)    =    179.910451     0.000000     0.014910   179.925361
	   95 D(10,6,8,12)    =      0.360095    -0.000000    -0.025097     0.334998
	   96 D(10,6,8,21)    =   -179.634808     0.000000     0.023660  -179.611148
	   97 D(10,9,1,14)    =     -1.392944    -0.000000     0.009777    -1.383167
	   98 D(10,9,2,15)    =      1.928451     0.000000    -0.016492     1.911959
	   99 D(11,3,1,14)    =    179.551793     0.000000    -0.003619   179.548174
	  100 D(11,4,2,15)    =   -179.937507    -0.000000    -0.001365  -179.938872
	  101 D(12,7,5,18)    =    179.405650    -0.000000    -0.015821   179.389830
	  102 D(12,8,6,19)    =    179.847431    -0.000000    -0.016368   179.831062
	  103 D(13,11,3,16)   =     -0.498943     0.000000    -0.000480    -0.499423
	  104 D(13,11,4,17)   =     -0.114721    -0.000000    -0.000795    -0.115516
	  105 D(14,1,3,16)    =     -0.029911     0.000000    -0.002556    -0.032467
	  106 D(15,2,4,17)    =      0.103562    -0.000000     0.010552     0.114114
	  107 D(18,5,7,20)    =     -0.206881     0.000000     0.021655    -0.185227
	  108 D(19,6,8,21)    =     -0.147473     0.000000     0.032389    -0.115084
	 ---------------------------------------------------------------------------
	Successfully symmetrized geometry.
	 Forces used to impose fixed constraints are not included.
	  Forces zeroed: 63 

  ==> Convergence Check <==

  Measures of convergence in internal coordinates in au.
  Criteria marked as inactive (o), active & met (*), and active & unmet ( ).
  ---------------------------------------------------------------------------------------------
   Step     Total Energy     Delta E     MAX Force     RMS Force      MAX Disp      RMS Disp   
  ---------------------------------------------------------------------------------------------
    Convergence Criteria    1.00e-06 *    3.00e-04 *             o    1.20e-03 *             o
  ---------------------------------------------------------------------------------------------
      6    -553.72218902    2.69e-06      5.74e-05 *    2.09e-05 o    6.80e-04 *    1.93e-04 o  ~
  ---------------------------------------------------------------------------------------------


  **** Optimization is complete! (in 6 steps) ****

  ==> Optimization Summary <==

  Measures of convergence in internal coordinates in au.
  --------------------------------------------------------------------------------------------------------------- ~
   Step         Total Energy             Delta E       MAX Force       RMS Force        MAX Disp        RMS Disp  ~
  --------------------------------------------------------------------------------------------------------------- ~
      1    -553.718983578710   -553.718983578710      0.01891581      0.00435056      0.03666048      0.00962341  ~
      2    -553.721746759960     -0.002763181250      0.00403769      0.00121895      0.05175940      0.00961312  ~
      3    -553.722158063234     -0.000411303274      0.00100995      0.00021995      0.02188957      0.00369785  ~
      4    -553.722184338531     -0.000026275297      0.00027793      0.00006511      0.01017840      0.00183341  ~
      5    -553.722191713927     -0.000007375396      0.00016924      0.00004112      0.00223505      0.00061573  ~
      6    -553.722189019875      0.000002694053      0.00006470      0.00002180      0.00067974      0.00019315  ~
  --------------------------------------------------------------------------------------------------------------- ~

	Writing optimization data to binary file.
	Final energy is   -553.7221890198747
	Final (previous) structure:
	Cartesian Geometry (in Angstrom)
	    C    -1.2641897582   0.7592982272  -0.5595774293
	    C    -0.2842004808   0.0874642448   1.5185805271
	    C    -2.3376791794   1.3132212742   0.1172959475
	    C    -1.3545114069   0.6428767462   2.2038536545
	    C     1.8878830577   0.3033722704  -1.1944206120
	    C     1.0443613009  -1.8487033310  -0.6580821772
	    C     2.9422522568  -0.3248339661  -1.8398820950
	    C     2.1341891042  -2.3877907119  -1.3247364091
	    C    -0.2193937547   0.1484838676   0.1303444350
	    C     0.9007713601  -0.4676265934  -0.5915338888
	    C    -2.3831325353   1.2575391704   1.5030516724
	    N     3.0787544175  -1.6508539400  -1.9138776371
	    O    -3.4626393326   1.8207552406   2.1149252026
	    H    -1.2356365643   0.7980251929  -1.6384319338
	    H     0.5131627873  -0.3905565535   2.0681458354
	    H    -3.1496523827   1.7853052922  -0.4135905215
	    H    -1.3877419773   0.5978997793   3.2837837265
	    H     1.8335913947   1.3810464037  -1.1578716520
	    H     0.3087314364  -2.4937884043  -0.2014992212
	    H     3.7163061788   0.2620157863  -2.3143722781
	    H     2.2555849724  -3.4601148478  -1.3895556269
	    H    -3.3738854719   1.7132473904   3.0665927254
	Saving final (previous) structure.
			--------------------------
			 OPTKING Finished Execution 
			--------------------------

    Final optimized geometry and variables:
    Molecular point group: c1
    Full point group: C1

    Geometry (in Angstrom), charge = 0, multiplicity = 1:

    C           -1.264189758247     0.759298227159    -0.559577429314
    C           -0.284200480780     0.087464244824     1.518580527072
    C           -2.337679179361     1.313221274152     0.117295947537
    C           -1.354511406883     0.642876746199     2.203853654474
    C            1.887883057658     0.303372270446    -1.194420612016
    C            1.044361300860    -1.848703331034    -0.658082177185
    C            2.942252256821    -0.324833966079    -1.839882094977
    C            2.134189104191    -2.387790711891    -1.324736409102
    C           -0.219393754693     0.148483867640     0.130344435015
    C            0.900771360073    -0.467626593437    -0.591533888835
    C           -2.383132535254     1.257539170367     1.503051672430
    N            3.078754417504    -1.650853939997    -1.913877637067
    O           -3.462639332567     1.820755240566     2.114925202635
    H           -1.235636564286     0.798025192900    -1.638431933843
    H            0.513162787289    -0.390556553519     2.068145835414
    H           -3.149652382654     1.785305292156    -0.413590521492
    H           -1.387741977340     0.597899779315     3.283783726533
    H            1.833591394728     1.381046403722    -1.157871651990
    H            0.308731436384    -2.493788404299    -0.201499221217
    H            3.716306178822     0.262015786327    -2.314372278119
    H            2.255584972444    -3.460114847788    -1.389555626886
    H           -3.373885471864     1.713247390426     3.066592725395

	Cleaning optimization helper files.

*** Psi4 exiting successfully. Buy a developer a beer!
