
    -----------------------------------------------------------------------
          Psi4: An Open-Source Ab Initio Electronic Structure Package
                               Psi4 1.1 release

                         Git: Rev {HEAD} add49b9 


    R. M. Parrish, L. A. Burns, D. G. A. Smith, A. C. Simmonett,
    A. E. DePrince III, E. G. Hohenstein, U. Bozkaya, A. Yu. Sokolov,
    R. Di Remigio, R. M. Richard, J. F. Gonthier, A. M. James,
    H. R. McAlexander, A. Kumar, M. Saitow, X. Wang, B. P. Pritchard,
    P. Verma, H. F. Schaefer III, K. Patkowski, R. A. King, E. F. Valeev,
    F. A. Evangelista, J. M. Turney, T. D. Crawford, and C. D. Sherrill,
    J. Chem. Theory Comput. in press (2017).
    (doi: 10.1021/acs.jctc.7b00174)

    -----------------------------------------------------------------------


    Psi4 started on: Saturday, 11 November 2017 06:12PM

    Process ID:  11721
    PSIDATADIR: /cbio/jclab/home/chayas/anaconda/envs/py35/share/psi4
    Memory:     500.0 MiB
    Threads:    8
    
  ==> Input File <==

--------------------------------------------------------------------------

memory 5 Gb

molecule phepyrF {
  symmetry C1
  0 1 
  C      1.885   -1.036   -0.112
  C      0.807   -0.463   0.561
  C      2.921   -1.631   0.608
  C      0.764   -0.484   1.955
  C      4.665   -3.331   2.194
  C      4.285   -1.804   4.013
  C      5.688   -3.886   2.945
  C      5.325   -2.428   4.683
  C      2.878   -1.652   2.002
  C      3.955   -2.270   2.745
  C      1.800   -1.079   2.676
  N      6.038   -3.461   4.180
  F      1.744   -1.089   4.016
  H      1.918   -1.020   -1.198
  H      0.000   -0.000   -0.000
  H      3.755   -2.073   0.068
  H      -0.076   -0.038   2.480
  H      4.438   -3.721   1.207
  H      3.753   -0.979   4.475
  H      6.273   -4.715   2.559
  H      5.621   -2.103   5.675
  units Angstrom
}

dih_string = "3 9 10 5 330"
set optking fixed_dihedral = $dih_string

optimize('MP2/aug-cc-PVTZ')
--------------------------------------------------------------------------

  Memory set to   4.657 GiB by Python driver.
gradient() will perform analytic gradient computation.

*** tstart() called on gpu-1-6.local
*** at Sat Nov 11 18:12:59 2017

    SCF Algorithm Type (re)set to DF.

*** tstart() called on gpu-1-6.local
*** at Sat Nov 11 18:12:59 2017

   => Loading Basis Set <=

    Name: AUG-CC-PVTZ
    Role: ORBITAL
    Keyword: BASIS
    atoms 1-11  entry C          line   221 file /cbio/jclab/home/chayas/anaconda/envs/py35/share/psi4/basis/aug-cc-pvtz.gbs 
    atoms 12    entry N          line   267 file /cbio/jclab/home/chayas/anaconda/envs/py35/share/psi4/basis/aug-cc-pvtz.gbs 
    atoms 13    entry F          line   359 file /cbio/jclab/home/chayas/anaconda/envs/py35/share/psi4/basis/aug-cc-pvtz.gbs 
    atoms 14-21 entry H          line    34 file /cbio/jclab/home/chayas/anaconda/envs/py35/share/psi4/basis/aug-cc-pvtz.gbs 


         ---------------------------------------------------------
                                   SCF
            by Justin Turney, Rob Parrish, and Andy Simmonett
                              RHF Reference
                        8 Threads,   4768 MiB Core
         ---------------------------------------------------------

  ==> Geometry <==

    Molecular point group: c1
    Full point group: C1

    Geometry (in Angstrom), charge = 0, multiplicity = 1:

       Center              X                  Y                   Z               Mass       
    ------------   -----------------  -----------------  -----------------  -----------------
           C         -1.369532926308     0.840100077232    -2.662823371560    12.000000000000
           C         -2.447532926308     1.413100077232    -1.989823371560    12.000000000000
           C         -0.333532926308     0.245100077232    -1.942823371560    12.000000000000
           C         -2.490532926308     1.392100077232    -0.595823371560    12.000000000000
           C          1.410467073692    -1.454899922768    -0.356823371560    12.000000000000
           C          1.030467073692     0.072100077232     1.462176628440    12.000000000000
           C          2.433467073692    -2.009899922768     0.394176628440    12.000000000000
           C          2.070467073692    -0.551899922768     2.132176628440    12.000000000000
           C         -0.376532926308     0.224100077232    -0.548823371560    12.000000000000
           C          0.700467073692    -0.393899922768     0.194176628440    12.000000000000
           C         -1.454532926308     0.797100077232     0.125176628440    12.000000000000
           N          2.783467073692    -1.584899922768     1.629176628440    14.003074004780
           F         -1.510532926308     0.787100077232     1.465176628440    18.998403224000
           H         -1.336532926308     0.856100077232    -3.748823371560     1.007825032070
           H         -3.254532926308     1.876100077232    -2.550823371560     1.007825032070
           H          0.500467073692    -0.196899922768    -2.482823371560     1.007825032070
           H         -3.330532926308     1.838100077232    -0.070823371560     1.007825032070
           H          1.183467073692    -1.844899922768    -1.343823371560     1.007825032070
           H          0.498467073692     0.897100077232     1.924176628440     1.007825032070
           H          3.018467073692    -2.838899922768     0.008176628440     1.007825032070
           H          2.366467073692    -0.226899922768     3.124176628440     1.007825032070

  Running in c1 symmetry.

  Rotational constants: A =      0.06385  B =      0.01858  C =      0.01478 [cm^-1]
  Rotational constants: A =   1914.24239  B =    557.07297  C =    443.03722 [MHz]
  Nuclear repulsion =  717.862154402731790

  Charge       = 0
  Multiplicity = 1
  Electrons    = 90
  Nalpha       = 45
  Nbeta        = 45

  ==> Algorithm <==

  SCF Algorithm Type is DF.
  DIIS enabled.
  MOM disabled.
  Fractional occupation disabled.
  Guess Type is SAD.
  Energy threshold   = 1.00e-10
  Density threshold  = 1.00e-10
  Integral threshold = 0.00e+00

  ==> Primary Basis <==

  Basis Set: AUG-CC-PVTZ
    Blend: AUG-CC-PVTZ
    Number of shells: 254
    Number of basis function: 782
    Number of Cartesian functions: 915
    Spherical Harmonics?: true
    Max angular momentum: 3

   => Loading Basis Set <=

    Name: (AUG-CC-PVTZ AUX)
    Role: JKFIT
    Keyword: DF_BASIS_SCF
    atoms 1-11  entry C          line   161 file /cbio/jclab/home/chayas/anaconda/envs/py35/share/psi4/basis/aug-cc-pvtz-jkfit.gbs 
    atoms 12    entry N          line   223 file /cbio/jclab/home/chayas/anaconda/envs/py35/share/psi4/basis/aug-cc-pvtz-jkfit.gbs 
    atoms 13    entry F          line   347 file /cbio/jclab/home/chayas/anaconda/envs/py35/share/psi4/basis/aug-cc-pvtz-jkfit.gbs 
    atoms 14-21 entry H          line    69 file /cbio/jclab/home/chayas/anaconda/envs/py35/share/psi4/basis/aug-cc-pvtz-jkfit.gbs 

  ==> Pre-Iterations <==

   -------------------------------------------------------
    Irrep   Nso     Nmo     Nalpha   Nbeta   Ndocc  Nsocc
   -------------------------------------------------------
     A        782     782       0       0       0       0
   -------------------------------------------------------
    Total     782     782      45      45      45       0
   -------------------------------------------------------

  ==> Integral Setup <==

  ==> DFJK: Density-Fitted J/K Matrices <==

    J tasked:                  Yes
    K tasked:                  Yes
    wK tasked:                  No
    OpenMP threads:              8
    Integrals threads:           8
    Memory (MB):              3576
    Algorithm:                Disk
    Integral Cache:           NONE
    Schwarz Cutoff:          1E-12
    Fitting Condition:       1E-12

   => Auxiliary Basis Set <=

  Basis Set: (AUG-CC-PVTZ AUX)
    Blend: AUG-CC-PVTZ-JKFIT
    Number of shells: 502
    Number of basis function: 1720
    Number of Cartesian functions: 2143
    Spherical Harmonics?: true
    Max angular momentum: 4

  Minimum eigenvalue in the overlap matrix is 6.3557303680E-07.
  Using Symmetric Orthogonalization.

  SCF Guess: Superposition of Atomic Densities via on-the-fly atomic UHF.

  ==> Iterations <==

                           Total Energy        Delta E     RMS |[F,P]|

   @DF-RHF iter   0:  -582.62881315922937   -5.82629e+02   2.07876e-02 
   @DF-RHF iter   1:  -574.95274859940969    7.67606e+00   2.01189e-03 
   @DF-RHF iter   2:  -575.21708451839845   -2.64336e-01   9.70495e-04 DIIS
   @DF-RHF iter   3:  -575.26191468400611   -4.48302e-02   4.11325e-04 DIIS
   @DF-RHF iter   4:  -575.27728005250867   -1.53654e-02   1.24448e-04 DIIS
   @DF-RHF iter   5:  -575.27897626864524   -1.69622e-03   4.35814e-05 DIIS
   @DF-RHF iter   6:  -575.27930090534926   -3.24637e-04   1.45541e-05 DIIS
   @DF-RHF iter   7:  -575.27934211790785   -4.12126e-05   6.59458e-06 DIIS
   @DF-RHF iter   8:  -575.27934774611253   -5.62820e-06   3.48402e-06 DIIS
   @DF-RHF iter   9:  -575.27934978221151   -2.03610e-06   1.60964e-06 DIIS
   @DF-RHF iter  10:  -575.27935058709772   -8.04886e-07   7.95080e-07 DIIS
   @DF-RHF iter  11:  -575.27935071806655   -1.30969e-07   2.69096e-07 DIIS
   @DF-RHF iter  12:  -575.27935073024344   -1.21769e-08   7.29186e-08 DIIS
   @DF-RHF iter  13:  -575.27935073113497   -8.91532e-10   3.17059e-08 DIIS
   @DF-RHF iter  14:  -575.27935073122433   -8.93579e-11   9.95167e-09 DIIS
   @DF-RHF iter  15:  -575.27935073125263   -2.83080e-11   4.66212e-09 DIIS
   @DF-RHF iter  16:  -575.27935073124513    7.50333e-12   2.13849e-09 DIIS
   @DF-RHF iter  17:  -575.27935073126014   -1.50067e-11   1.01320e-09 DIIS
   @DF-RHF iter  18:  -575.27935073125980    3.41061e-13   4.26589e-10 DIIS
   @DF-RHF iter  19:  -575.27935073125923    5.68434e-13   1.72863e-10 DIIS
   @DF-RHF iter  20:  -575.27935073126423   -5.00222e-12   7.89166e-11 DIIS

  ==> Post-Iterations <==

    Orbital Energies (a.u.)
    -----------------------

    Doubly Occupied:                                                      

       1A    -26.326520     2A    -15.564316     3A    -11.343486  
       4A    -11.274282     5A    -11.272511     6A    -11.266052  
       7A    -11.262419     8A    -11.259668     9A    -11.259467  
      10A    -11.257016    11A    -11.251764    12A    -11.240055  
      13A    -11.234966    14A     -1.647774    15A     -1.249535  
      16A     -1.184895    17A     -1.114181    18A     -1.039201  
      19A     -1.031950    20A     -1.026153    21A     -0.893030  
      22A     -0.876064    23A     -0.843440    24A     -0.824241  
      25A     -0.759096    26A     -0.725811    27A     -0.720967  
      28A     -0.712838    29A     -0.670394    30A     -0.660424  
      31A     -0.651481    32A     -0.625766    33A     -0.610598  
      34A     -0.596099    35A     -0.586889    36A     -0.550260  
      37A     -0.540800    38A     -0.522493    39A     -0.516903  
      40A     -0.505587    41A     -0.418447    42A     -0.410572  
      43A     -0.354063    44A     -0.348457    45A     -0.326769  

    Virtual:                                                              

      46A      0.023356    47A      0.029203    48A      0.033862  
      49A      0.039394    50A      0.043662    51A      0.046292  
      52A      0.056044    53A      0.057355    54A      0.064728  
      55A      0.078912    56A      0.082768    57A      0.086124  
      58A      0.090996    59A      0.094187    60A      0.099829  
      61A      0.104225    62A      0.107228    63A      0.108464  
      64A      0.114365    65A      0.115418    66A      0.117128  
      67A      0.118763    68A      0.121498    69A      0.130924  
      70A      0.131586    71A      0.134009    72A      0.137734  
      73A      0.139620    74A      0.142302    75A      0.146621  
      76A      0.149634    77A      0.151582    78A      0.154767  
      79A      0.162791    80A      0.168138    81A      0.174792  
      82A      0.175500    83A      0.180018    84A      0.184110  
      85A      0.188321    86A      0.199559    87A      0.204607  
      88A      0.215870    89A      0.223849    90A      0.223968  
      91A      0.227439    92A      0.228637    93A      0.231129  
      94A      0.239974    95A      0.242422    96A      0.246561  
      97A      0.250156    98A      0.253217    99A      0.259712  
     100A      0.264803   101A      0.266803   102A      0.268578  
     103A      0.275526   104A      0.283996   105A      0.284803  
     106A      0.289513   107A      0.292245   108A      0.297138  
     109A      0.298605   110A      0.303124   111A      0.310487  
     112A      0.313529   113A      0.315178   114A      0.318260  
     115A      0.322595   116A      0.327825   117A      0.336154  
     118A      0.337778   119A      0.340532   120A      0.346190  
     121A      0.351549   122A      0.355874   123A      0.363769  
     124A      0.367132   125A      0.377779   126A      0.380229  
     127A      0.382258   128A      0.388421   129A      0.395596  
     130A      0.403411   131A      0.411834   132A      0.412552  
     133A      0.417666   134A      0.421556   135A      0.429787  
     136A      0.432045   137A      0.434333   138A      0.436907  
     139A      0.439747   140A      0.446633   141A      0.446950  
     142A      0.453002   143A      0.456762   144A      0.460409  
     145A      0.466590   146A      0.468754   147A      0.473403  
     148A      0.475848   149A      0.477417   150A      0.484913  
     151A      0.488411   152A      0.493754   153A      0.495357  
     154A      0.499569   155A      0.503170   156A      0.505600  
     157A      0.507614   158A      0.508508   159A      0.511809  
     160A      0.520140   161A      0.522536   162A      0.524455  
     163A      0.528339   164A      0.532306   165A      0.534589  
     166A      0.537758   167A      0.540627   168A      0.543810  
     169A      0.547058   170A      0.552096   171A      0.559173  
     172A      0.560370   173A      0.573100   174A      0.575080  
     175A      0.579878   176A      0.586253   177A      0.590733  
     178A      0.601868   179A      0.608388   180A      0.609195  
     181A      0.617699   182A      0.626554   183A      0.630310  
     184A      0.637128   185A      0.646635   186A      0.648748  
     187A      0.652086   188A      0.665782   189A      0.676306  
     190A      0.681797   191A      0.687434   192A      0.692262  
     193A      0.699963   194A      0.704657   195A      0.706717  
     196A      0.707224   197A      0.717915   198A      0.723828  
     199A      0.726379   200A      0.739856   201A      0.741037  
     202A      0.743835   203A      0.744161   204A      0.749933  
     205A      0.754132   206A      0.769330   207A      0.772746  
     208A      0.777718   209A      0.779491   210A      0.790954  
     211A      0.803376   212A      0.804048   213A      0.809488  
     214A      0.819245   215A      0.823577   216A      0.833670  
     217A      0.842333   218A      0.851570   219A      0.856321  
     220A      0.857588   221A      0.862766   222A      0.871502  
     223A      0.872499   224A      0.877986   225A      0.883066  
     226A      0.884229   227A      0.887328   228A      0.888337  
     229A      0.894040   230A      0.907045   231A      0.907629  
     232A      0.913752   233A      0.915247   234A      0.919766  
     235A      0.923037   236A      0.929977   237A      0.937312  
     238A      0.943209   239A      0.948030   240A      0.954521  
     241A      0.958877   242A      0.966031   243A      0.970215  
     244A      0.974159   245A      0.978274   246A      0.985077  
     247A      0.988737   248A      0.990878   249A      0.994124  
     250A      1.001073   251A      1.007384   252A      1.011316  
     253A      1.013727   254A      1.017566   255A      1.024333  
     256A      1.026843   257A      1.028138   258A      1.037833  
     259A      1.044742   260A      1.045954   261A      1.050117  
     262A      1.061789   263A      1.067280   264A      1.068877  
     265A      1.070049   266A      1.075551   267A      1.078304  
     268A      1.085406   269A      1.088238   270A      1.088367  
     271A      1.096112   272A      1.099269   273A      1.107223  
     274A      1.110482   275A      1.118517   276A      1.124026  
     277A      1.126889   278A      1.136013   279A      1.136703  
     280A      1.146035   281A      1.146760   282A      1.159078  
     283A      1.168300   284A      1.174115   285A      1.174885  
     286A      1.179066   287A      1.186361   288A      1.188232  
     289A      1.189134   290A      1.198265   291A      1.202915  
     292A      1.203324   293A      1.207067   294A      1.211279  
     295A      1.216214   296A      1.220582   297A      1.229368  
     298A      1.235730   299A      1.237688   300A      1.249035  
     301A      1.262598   302A      1.263394   303A      1.268662  
     304A      1.274017   305A      1.282545   306A      1.286789  
     307A      1.293053   308A      1.296529   309A      1.300346  
     310A      1.313201   311A      1.318127   312A      1.323325  
     313A      1.330981   314A      1.337448   315A      1.352700  
     316A      1.361526   317A      1.364700   318A      1.368267  
     319A      1.376634   320A      1.390394   321A      1.393690  
     322A      1.403866   323A      1.410362   324A      1.418025  
     325A      1.422525   326A      1.427008   327A      1.435069  
     328A      1.438086   329A      1.450994   330A      1.474590  
     331A      1.477463   332A      1.493416   333A      1.495897  
     334A      1.498735   335A      1.512862   336A      1.514211  
     337A      1.525798   338A      1.527094   339A      1.543499  
     340A      1.546124   341A      1.555035   342A      1.560699  
     343A      1.578162   344A      1.582256   345A      1.592967  
     346A      1.598311   347A      1.603524   348A      1.617632  
     349A      1.625999   350A      1.637163   351A      1.645711  
     352A      1.653784   353A      1.658225   354A      1.665448  
     355A      1.673119   356A      1.678627   357A      1.689313  
     358A      1.698652   359A      1.709575   360A      1.710386  
     361A      1.716340   362A      1.725076   363A      1.733223  
     364A      1.735604   365A      1.738393   366A      1.747290  
     367A      1.755757   368A      1.776609   369A      1.778015  
     370A      1.784695   371A      1.793968   372A      1.798495  
     373A      1.807699   374A      1.817304   375A      1.825386  
     376A      1.830807   377A      1.833346   378A      1.844319  
     379A      1.859864   380A      1.864982   381A      1.870995  
     382A      1.880035   383A      1.895709   384A      1.900012  
     385A      1.918888   386A      1.922826   387A      1.933824  
     388A      1.941558   389A      1.945133   390A      1.954276  
     391A      1.966258   392A      1.968657   393A      1.977228  
     394A      1.986643   395A      1.989780   396A      1.995690  
     397A      2.001771   398A      2.014944   399A      2.018282  
     400A      2.024745   401A      2.028081   402A      2.035396  
     403A      2.045398   404A      2.046454   405A      2.055226  
     406A      2.065979   407A      2.073294   408A      2.081563  
     409A      2.087730   410A      2.089786   411A      2.098834  
     412A      2.112508   413A      2.116351   414A      2.126666  
     415A      2.130472   416A      2.133674   417A      2.145178  
     418A      2.161223   419A      2.163393   420A      2.171145  
     421A      2.181469   422A      2.189938   423A      2.199815  
     424A      2.210417   425A      2.214802   426A      2.231399  
     427A      2.237633   428A      2.242575   429A      2.249955  
     430A      2.258040   431A      2.274673   432A      2.288602  
     433A      2.294809   434A      2.306334   435A      2.312757  
     436A      2.327450   437A      2.331705   438A      2.339852  
     439A      2.354708   440A      2.365695   441A      2.368392  
     442A      2.380793   443A      2.388170   444A      2.401665  
     445A      2.407948   446A      2.418871   447A      2.427961  
     448A      2.442934   449A      2.465283   450A      2.478191  
     451A      2.482671   452A      2.507208   453A      2.516145  
     454A      2.528990   455A      2.531259   456A      2.544553  
     457A      2.562029   458A      2.566324   459A      2.586608  
     460A      2.594223   461A      2.614251   462A      2.625213  
     463A      2.629462   464A      2.652998   465A      2.665519  
     466A      2.696945   467A      2.705743   468A      2.731826  
     469A      2.754016   470A      2.760791   471A      2.785830  
     472A      2.796814   473A      2.818502   474A      2.831024  
     475A      2.849222   476A      2.867480   477A      2.892507  
     478A      2.904314   479A      2.945038   480A      2.981056  
     481A      3.000151   482A      3.022048   483A      3.035643  
     484A      3.054892   485A      3.065508   486A      3.088953  
     487A      3.110254   488A      3.133605   489A      3.139172  
     490A      3.161733   491A      3.172766   492A      3.176673  
     493A      3.179367   494A      3.205700   495A      3.215958  
     496A      3.237006   497A      3.248756   498A      3.256374  
     499A      3.282128   500A      3.300179   501A      3.305694  
     502A      3.322428   503A      3.330751   504A      3.336811  
     505A      3.345378   506A      3.357744   507A      3.362962  
     508A      3.375962   509A      3.394386   510A      3.401195  
     511A      3.414441   512A      3.423032   513A      3.435346  
     514A      3.443582   515A      3.452721   516A      3.454960  
     517A      3.465090   518A      3.468667   519A      3.488806  
     520A      3.493325   521A      3.503013   522A      3.506047  
     523A      3.506993   524A      3.515213   525A      3.529319  
     526A      3.537456   527A      3.552428   528A      3.562235  
     529A      3.565259   530A      3.575119   531A      3.576275  
     532A      3.577626   533A      3.585574   534A      3.599793  
     535A      3.612501   536A      3.633251   537A      3.640387  
     538A      3.649143   539A      3.656510   540A      3.668327  
     541A      3.675395   542A      3.681250   543A      3.692782  
     544A      3.705944   545A      3.709243   546A      3.718222  
     547A      3.728501   548A      3.740515   549A      3.747409  
     550A      3.765516   551A      3.769619   552A      3.778864  
     553A      3.791933   554A      3.799318   555A      3.801821  
     556A      3.816001   557A      3.818086   558A      3.827614  
     559A      3.842004   560A      3.851082   561A      3.858316  
     562A      3.863043   563A      3.866242   564A      3.879109  
     565A      3.885181   566A      3.888475   567A      3.899528  
     568A      3.906121   569A      3.919467   570A      3.927676  
     571A      3.934088   572A      3.942680   573A      3.949652  
     574A      3.968443   575A      3.970428   576A      3.979000  
     577A      3.984909   578A      3.999879   579A      4.003949  
     580A      4.012555   581A      4.017295   582A      4.026764  
     583A      4.033507   584A      4.043727   585A      4.046397  
     586A      4.052522   587A      4.069599   588A      4.078964  
     589A      4.091868   590A      4.101702   591A      4.107955  
     592A      4.123439   593A      4.135279   594A      4.140133  
     595A      4.143128   596A      4.155349   597A      4.160704  
     598A      4.178075   599A      4.193113   600A      4.203071  
     601A      4.207731   602A      4.220081   603A      4.225776  
     604A      4.239663   605A      4.250668   606A      4.258535  
     607A      4.267137   608A      4.280534   609A      4.289964  
     610A      4.295355   611A      4.310798   612A      4.316712  
     613A      4.333268   614A      4.339817   615A      4.344573  
     616A      4.356172   617A      4.363339   618A      4.365238  
     619A      4.379328   620A      4.384092   621A      4.393028  
     622A      4.405267   623A      4.416305   624A      4.420900  
     625A      4.430710   626A      4.433287   627A      4.459714  
     628A      4.463580   629A      4.475090   630A      4.489517  
     631A      4.496192   632A      4.502307   633A      4.505333  
     634A      4.511291   635A      4.521937   636A      4.547360  
     637A      4.563030   638A      4.590131   639A      4.596709  
     640A      4.610543   641A      4.618487   642A      4.642026  
     643A      4.648669   644A      4.675303   645A      4.679451  
     646A      4.691136   647A      4.708536   648A      4.719735  
     649A      4.727465   650A      4.737477   651A      4.747631  
     652A      4.762343   653A      4.786650   654A      4.796032  
     655A      4.805054   656A      4.812832   657A      4.859331  
     658A      4.872096   659A      4.873945   660A      4.896905  
     661A      4.902945   662A      4.924792   663A      4.937864  
     664A      4.954294   665A      4.966388   666A      4.974774  
     667A      4.996288   668A      4.999593   669A      5.009556  
     670A      5.025208   671A      5.032154   672A      5.045967  
     673A      5.051683   674A      5.073747   675A      5.077293  
     676A      5.100658   677A      5.116599   678A      5.124285  
     679A      5.127072   680A      5.133377   681A      5.143149  
     682A      5.163082   683A      5.170199   684A      5.186510  
     685A      5.193007   686A      5.205215   687A      5.211165  
     688A      5.220047   689A      5.236057   690A      5.249655  
     691A      5.255802   692A      5.295662   693A      5.305864  
     694A      5.318309   695A      5.337631   696A      5.355753  
     697A      5.370188   698A      5.379679   699A      5.396027  
     700A      5.405129   701A      5.420143   702A      5.449605  
     703A      5.458950   704A      5.473731   705A      5.529323  
     706A      5.542329   707A      5.561984   708A      5.569176  
     709A      5.576029   710A      5.603059   711A      5.666032  
     712A      5.679613   713A      5.689866   714A      5.695158  
     715A      5.705756   716A      5.757081   717A      5.782866  
     718A      5.802280   719A      5.832082   720A      5.837748  
     721A      5.853165   722A      5.862676   723A      5.885102  
     724A      5.909477   725A      5.965039   726A      6.002267  
     727A      6.053571   728A      6.084797   729A      6.139402  
     730A      6.186877   731A      6.193965   732A      6.203799  
     733A      6.230357   734A      6.259934   735A      6.287604  
     736A      6.341525   737A      6.372676   738A      6.414956  
     739A      6.474332   740A      6.486590   741A      6.495207  
     742A      6.556609   743A      6.603679   744A      6.673320  
     745A      6.713173   746A      6.714470   747A      6.735031  
     748A      6.819945   749A      6.886873   750A      6.947848  
     751A      6.985142   752A      7.012171   753A      7.070821  
     754A      7.091191   755A      7.301860   756A      7.440905  
     757A      7.485093   758A      9.104415   759A      9.128690  
     760A      9.275565   761A      9.292746   762A      9.425856  
     763A      9.525926   764A      9.560669   765A      9.630151  
     766A      9.669363   767A      9.733774   768A     10.043097  
     769A     10.108428   770A     15.587699   771A     16.245279  
     772A     16.545251   773A     16.701757   774A     16.774342  
     775A     18.451612   776A     18.796305   777A     19.121053  
     778A     19.363480   779A     20.024038   780A     20.196034  
     781A     20.568134   782A     21.728256  

    Final Occupation by Irrep:
              A 
    DOCC [    45 ]

  Energy converged.

  @DF-RHF Final Energy:  -575.27935073126423

   => Energetics <=

    Nuclear Repulsion Energy =            717.8621544027317896
    One-Electron Energy =               -2207.5676036590434705
    Two-Electron Energy =                 914.4260985250473368
    DFT Exchange-Correlation Energy =       0.0000000000000000
    Empirical Dispersion Energy =           0.0000000000000000
    PCM Polarization Energy =               0.0000000000000000
    EFP Energy =                            0.0000000000000000
    Total Energy =                       -575.2793507312642305



Properties will be evaluated at   0.000000,   0.000000,   0.000000 Bohr

Properties computed using the SCF density matrix

  Nuclear Dipole Moment: (a.u.)
     X:     1.0848      Y:    -0.4006      Z:    -6.2061

  Electronic Dipole Moment: (a.u.)
     X:    -1.9266      Y:     0.9148      Z:     5.0625

  Dipole Moment: (a.u.)
     X:    -0.8418      Y:     0.5142      Z:    -1.1436     Total:     1.5102

  Dipole Moment: (Debye)
     X:    -2.1396      Y:     1.3070      Z:    -2.9067     Total:     3.8386


*** tstop() called on gpu-1-6.local at Sat Nov 11 18:20:18 2017
Module time:
	user time   =    1114.34 seconds =      18.57 minutes
	system time =      47.93 seconds =       0.80 minutes
	total time  =        439 seconds =       7.32 minutes
Total time:
	user time   =    1114.35 seconds =      18.57 minutes
	system time =      47.93 seconds =       0.80 minutes
	total time  =        439 seconds =       7.32 minutes

  //>>>>>>>>>>>>>>>>>>>>>>>>>>>>>>>>>>>//
  //               DFMP2               //
  //<<<<<<<<<<<<<<<<<<<<<<<<<<<<<<<<<<<//

   => Loading Basis Set <=

    Name: (AUG-CC-PVTZ AUX)
    Role: RIFIT
    Keyword: DF_BASIS_MP2
    atoms 1-11  entry C          line   147 file /cbio/jclab/home/chayas/anaconda/envs/py35/share/psi4/basis/aug-cc-pvtz-ri.gbs 
    atoms 12    entry N          line   205 file /cbio/jclab/home/chayas/anaconda/envs/py35/share/psi4/basis/aug-cc-pvtz-ri.gbs 
    atoms 13    entry F          line   321 file /cbio/jclab/home/chayas/anaconda/envs/py35/share/psi4/basis/aug-cc-pvtz-ri.gbs 
    atoms 14-21 entry H          line    29 file /cbio/jclab/home/chayas/anaconda/envs/py35/share/psi4/basis/aug-cc-pvtz-ri.gbs 

	 --------------------------------------------------------
	                          DF-MP2                         
	      2nd-Order Density-Fitted Moller-Plesset Theory     
	              RMP2 Wavefunction,   8 Threads             
	                                                         
	        Rob Parrish, Justin Turney, Andy Simmonett,      
	           Ed Hohenstein, and C. David Sherrill          
	 --------------------------------------------------------

   => Auxiliary Basis Set <=

  Basis Set: (AUG-CC-PVTZ AUX)
    Blend: AUG-CC-PVTZ-RI
    Number of shells: 476
    Number of basis function: 1746
    Number of Cartesian functions: 2208
    Spherical Harmonics?: true
    Max angular momentum: 4

	 --------------------------------------------------------
	                 NBF =   782, NAUX =  1746
	 --------------------------------------------------------
	   CLASS    FOCC     OCC    AOCC    AVIR     VIR    FVIR
	   PAIRS       0      45      45     737     737       0
	 --------------------------------------------------------


         ------------------------------------------------------------
                                     CPHF                           
                                  Rob Parrish                       
         ------------------------------------------------------------

  ==> Geometry <==

    Molecular point group: c1
    Full point group: C1

    Geometry (in Angstrom), charge = 0, multiplicity = 1:

       Center              X                  Y                   Z               Mass       
    ------------   -----------------  -----------------  -----------------  -----------------
           C         -1.369532926308     0.840100077232    -2.662823371560    12.000000000000
           C         -2.447532926308     1.413100077232    -1.989823371560    12.000000000000
           C         -0.333532926308     0.245100077232    -1.942823371560    12.000000000000
           C         -2.490532926308     1.392100077232    -0.595823371560    12.000000000000
           C          1.410467073692    -1.454899922768    -0.356823371560    12.000000000000
           C          1.030467073692     0.072100077232     1.462176628440    12.000000000000
           C          2.433467073692    -2.009899922768     0.394176628440    12.000000000000
           C          2.070467073692    -0.551899922768     2.132176628440    12.000000000000
           C         -0.376532926308     0.224100077232    -0.548823371560    12.000000000000
           C          0.700467073692    -0.393899922768     0.194176628440    12.000000000000
           C         -1.454532926308     0.797100077232     0.125176628440    12.000000000000
           N          2.783467073692    -1.584899922768     1.629176628440    14.003074004780
           F         -1.510532926308     0.787100077232     1.465176628440    18.998403224000
           H         -1.336532926308     0.856100077232    -3.748823371560     1.007825032070
           H         -3.254532926308     1.876100077232    -2.550823371560     1.007825032070
           H          0.500467073692    -0.196899922768    -2.482823371560     1.007825032070
           H         -3.330532926308     1.838100077232    -0.070823371560     1.007825032070
           H          1.183467073692    -1.844899922768    -1.343823371560     1.007825032070
           H          0.498467073692     0.897100077232     1.924176628440     1.007825032070
           H          3.018467073692    -2.838899922768     0.008176628440     1.007825032070
           H          2.366467073692    -0.226899922768     3.124176628440     1.007825032070

  Nuclear repulsion =  717.862154402731790
  Reference energy  = -575.279350731264230

  ==> Basis Set <==

  Basis Set: AUG-CC-PVTZ
    Blend: AUG-CC-PVTZ
    Number of shells: 254
    Number of basis function: 782
    Number of Cartesian functions: 915
    Spherical Harmonics?: true
    Max angular momentum: 3

  ==> CGRSolver (by Rob Parrish) <==

   Number of roots    =         1
   Preconditioning    =    JACOBI
   Convergence cutoff =     1E-06
   Maximum iterations =       100

  ==> CPHFRHamiltonian (by Rob Parrish) <== 

  ==> DFJK: Density-Fitted J/K Matrices <==

    J tasked:                  Yes
    K tasked:                  Yes
    wK tasked:                  No
    OpenMP threads:              8
    Integrals threads:           8
    Memory (MB):              3576
    Algorithm:                Disk
    Integral Cache:           NONE
    Schwarz Cutoff:          1E-12
    Fitting Condition:       1E-12

   => Auxiliary Basis Set <=

  Basis Set: (AUG-CC-PVTZ AUX)
    Blend: AUG-CC-PVTZ-JKFIT
    Number of shells: 502
    Number of basis function: 1720
    Number of Cartesian functions: 2143
    Spherical Harmonics?: true
    Max angular momentum: 4

  ==> CPHF Iterations <==

  => Iterations <=

             Iter  Converged  Remaining    Residual
  CGR           1          0          1   9.780E-02
  CGR           2          0          1   2.983E-02
  CGR           3          0          1   1.968E-02
  CGR           4          0          1   9.687E-03
  CGR           5          0          1   3.852E-03
  CGR           6          0          1   1.469E-03
  CGR           7          0          1   4.551E-04
  CGR           8          0          1   1.826E-04
  CGR           9          0          1   9.149E-05
  CGR          10          0          1   3.928E-05
  CGR          11          0          1   1.514E-05
  CGR          12          0          1   4.963E-06
  CGR          13          0          1   1.620E-06
  CGR          14          1          0   5.616E-07

    CGRSolver converged.

  ==> DFCorrGrad: Density-Fitted Correlated Gradients <==

    OpenMP threads:              8
    Integrals threads:           8
    Memory (MB):              3576
    Schwarz Cutoff:          0E+00
    Fitting Condition:       1E-12

   => Auxiliary Basis Set <=

  Basis Set: (AUG-CC-PVTZ AUX)
    Blend: AUG-CC-PVTZ-JKFIT
    Number of shells: 502
    Number of basis function: 1720
    Number of Cartesian functions: 2143
    Spherical Harmonics?: true
    Max angular momentum: 4

	-----------------------------------------------------------
	 ==================> DF-MP2 Energies <==================== 
	-----------------------------------------------------------
	 Reference Energy          =    -575.2793507312642305 [Eh]
	 Singles Energy            =      -0.0000000000000002 [Eh]
	 Same-Spin Energy          =      -0.6090878698554933 [Eh]
	 Opposite-Spin Energy      =      -1.8334733722679581 [Eh]
	 Correlation Energy        =      -2.4425612421234515 [Eh]
	 Total Energy              =    -577.7219119733877051 [Eh]
	-----------------------------------------------------------
	 ================> DF-SCS-MP2 Energies <================== 
	-----------------------------------------------------------
	 SCS Same-Spin Scale       =       0.3333333333333333 [-]
	 SCS Opposite-Spin Scale   =       1.2000000000000000 [-]
	 SCS Same-Spin Energy      =      -0.2030292899518311 [Eh]
	 SCS Opposite-Spin Energy  =      -2.2001680467215499 [Eh]
	 SCS Correlation Energy    =      -2.4031973366733812 [Eh]
	 SCS Total Energy          =    -577.6825480679376597 [Eh]
	-----------------------------------------------------------


  -Total Gradient:
     Atom            X                  Y                   Z
    ------   -----------------  -----------------  -----------------
       1       -0.002074899612     0.001793897014     0.000647550178
       2       -0.003360399780     0.002140099364    -0.002260295752
       3        0.014989087879    -0.006781585140     0.007365352381
       4        0.000717320406     0.000029140369    -0.004969051445
       5       -0.006918886487     0.000816734364    -0.006522803450
       6       -0.009671813736     0.004577869470    -0.005403179750
       7       -0.007459865218    -0.000436299202    -0.010689990037
       8       -0.009636979308     0.009919161195     0.001809834216
       9       -0.002913504424     0.001439958404    -0.004154464895
      10        0.003493622255    -0.001395968079     0.000603780779
      11        0.010271744104    -0.009236165465     0.026513580897
      12        0.012810107195    -0.006722428283     0.008212424566
      13        0.007712216988     0.000667806688     0.002394155304
      14        0.000050449974    -0.000221019133    -0.005357742404
      15       -0.003602015160     0.001921179908    -0.003838713308
      16        0.003319901164    -0.003554982974    -0.005904587845
      17       -0.004826548928     0.002793147307     0.000905628752
      18        0.000485589245    -0.001056673562    -0.005525936948
      19       -0.006871146348     0.005476364366     0.003883583130
      20        0.002243703889    -0.002300123844    -0.000519476196
      21        0.001242315896     0.000129887232     0.002810351825


*** tstop() called on gpu-1-6.local at Sat Nov 11 18:49:41 2017
Module time:
	user time   =    5982.37 seconds =      99.71 minutes
	system time =     103.10 seconds =       1.72 minutes
	total time  =       2202 seconds =      36.70 minutes
Total time:
	user time   =    5982.38 seconds =      99.71 minutes
	system time =     103.10 seconds =       1.72 minutes
	total time  =       2202 seconds =      36.70 minutes

			-----------------------------------------
			 OPTKING 2.0: for geometry optimizations 
			  - R.A. King,  Bethel University        
			-----------------------------------------

	Internal coordinates to be generated automatically.
	Detected frag 1 with atoms:  1 2 3 4 5 6 7 8 9 10 11 12 13 14 15 16 17 18 19 20
	 21
	---Fragment 1 Bond Connectivity---
	 1 : 2 3 14
	 2 : 1 4 15
	 3 : 1 9 16
	 4 : 2 11 17
	 5 : 7 10 18
	 6 : 8 10 19
	 7 : 5 12 20
	 8 : 6 12 21
	 9 : 3 10 11
	 10 : 5 6 9
	 11 : 4 9 13
	 12 : 7 8
	 13 : 11
	 14 : 1
	 15 : 2
	 16 : 3
	 17 : 4
	 18 : 5
	 19 : 6
	 20 : 7
	 21 : 8

	Assuming in current code that numbering for constraints corresponds to unified fragment.
	Fixed dihedral atom list: 
	     3     9    10     5
	---Fragment 1 Geometry and Gradient---
	 C          -2.5880421607        1.5875590702       -5.0320069125
	 C          -4.6251669319        2.6703721443       -3.7602212251
	 C          -0.6302858870        0.4631720211       -3.6714040968
	 C          -4.7064251557        2.6306878955       -1.1259429958
	 C           2.6653964887       -2.7493624048       -0.6742984501
	 C           1.9473005582        0.1362494001        2.7631133857
	 C           4.5985863227       -3.7981604085        0.7448858757
	 C           3.9126157364       -1.0429397068        4.0292298947
	 C          -0.7115441107        0.4234877723       -1.0371258676
	 C           1.3236909344       -0.7443629778        0.3669406492
	 C          -2.7486688820        1.5063008465        0.2365495460
	 N           5.2599904692       -2.9950268021        3.0786976498
	 F          -2.8544935454        1.4874035851        2.7687825641
	 H          -2.5256811983        1.6177946883       -7.0842494928
	 H          -6.1501759212        3.5453153439       -4.8203575856
	 H           0.9457457078       -0.3720869296       -4.6918562086
	 H          -6.2937951073        3.4735057508       -0.1338367761
	 H           2.2364286566       -3.4863555966       -2.5394581432
	 H           0.9419662555        1.6952734598        3.6361668591
	 H           5.7040761104       -5.3647433727        0.0154515884
	 H           4.4719746718       -0.4287787136        5.9038382185
	            -0.0020748996        0.0017938970        0.0006475502
	            -0.0033603998        0.0021400994       -0.0022602958
	             0.0149890879       -0.0067815851        0.0073653524
	             0.0007173204        0.0000291404       -0.0049690514
	            -0.0069188865        0.0008167344       -0.0065228034
	            -0.0096718137        0.0045778695       -0.0054031798
	            -0.0074598652       -0.0004362992       -0.0106899900
	            -0.0096369793        0.0099191612        0.0018098342
	            -0.0029135044        0.0014399584       -0.0041544649
	             0.0034936223       -0.0013959681        0.0006037808
	             0.0102717441       -0.0092361655        0.0265135809
	             0.0128101072       -0.0067224283        0.0082124246
	             0.0077122170        0.0006678067        0.0023941553
	             0.0000504500       -0.0002210191       -0.0053577424
	            -0.0036020152        0.0019211799       -0.0038387133
	             0.0033199012       -0.0035549830       -0.0059045878
	            -0.0048265489        0.0027931473        0.0009056288
	             0.0004855892       -0.0010566736       -0.0055259369
	            -0.0068711463        0.0054763644        0.0038835831
	             0.0022437039       -0.0023001238       -0.0005194762
	             0.0012423159        0.0001298872        0.0028103518

	Previous optimization step data not found.  Starting new optimization.

	---Fragment 1 Intrafragment Coordinates---
	 - Coordinate -           - BOHR/RAD -       - ANG/DEG -
	 R(1,2)           =         2.634350	       1.394038
	 R(1,3)           =         2.635962	       1.394891
	 R(1,14)          =         2.053412	       1.086619
	 R(2,4)           =         2.635830	       1.394821
	 R(2,15)          =         2.053063	       1.086434
	 R(3,9)           =         2.635830	       1.394821
	 R(3,16)          =         2.054959	       1.087437
	 R(4,11)          =         2.636938	       1.395407
	 R(4,17)          =         2.052891	       1.086343
	 R(5,7)           =         2.617496	       1.385119
	 R(5,10)          =         2.627618	       1.390475
	 R(5,18)          =         2.050852	       1.085264
	 R(6,8)           =         2.618397	       1.385596
	 R(6,10)          =         2.627929	       1.390640
	 R(6,19)          =         2.050238	       1.084939
	 R(7,12)          =         2.555221	       1.352165
	 R(7,20)          =         2.051430	       1.085570
	 R(8,12)          =         2.555303	       1.352208
	 R(8,21)          =         2.050423	       1.085037
	 R(9,10)          =         2.734494	       1.447032
	 R(9,11)          =         2.635263	       1.394521
	 R(11,13)         =         2.534514	       1.341207
	 B(1,2,4)         =         2.094553	     120.009056
	 B(1,2,15)        =         2.094721	     120.018646
	 B(1,3,9)         =         2.093692	     119.959722
	 B(1,3,16)        =         2.079074	     119.122177
	 B(2,1,3)         =         2.094940	     120.031219
	 B(2,1,14)        =         2.094311	     119.995189
	 B(2,4,11)        =         2.094306	     119.994870
	 B(2,4,17)        =         2.095140	     120.042665
	 B(3,1,14)        =         2.093934	     119.973570
	 B(3,9,10)        =         2.090528	     119.778448
	 B(3,9,11)        =         2.095181	     120.045019
	 B(4,2,15)        =         2.093912	     119.972298
	 B(4,11,9)        =         2.093699	     119.960108
	 B(4,11,13)       =         2.081063	     119.236128
	 B(5,7,12)        =         2.165718	     124.086476
	 B(5,7,20)        =         2.107378	     120.743855
	 B(5,10,6)        =         2.089606	     119.725582
	 B(5,10,9)        =         2.097235	     120.162688
	 B(6,8,12)        =         2.165104	     124.051298
	 B(6,8,21)        =         2.108252	     120.793929
	 B(6,10,9)        =         2.096345	     120.111699
	 B(7,5,10)        =         2.057839	     117.905496
	 B(7,5,18)        =         2.098547	     120.237863
	 B(7,12,8)        =         2.030163	     116.319747
	 B(8,6,10)        =         2.057942	     117.911383
	 B(8,6,19)        =         2.099700	     120.303975
	 B(9,3,16)        =         2.110419	     120.918077
	 B(9,11,13)       =         2.108422	     120.803676
	 B(10,5,18)       =         2.126796	     121.856455
	 B(10,6,19)       =         2.125543	     121.784639
	 B(10,9,11)       =         2.097476	     120.176533
	 B(11,4,17)       =         2.093740	     119.962450
	 B(12,7,20)       =         2.010090	     115.169657
	 B(12,8,21)       =         2.009830	     115.154754
	 D(1,2,4,11)      =        -0.000325	      -0.018609
	 D(1,2,4,17)      =        -3.141151	    -179.974682
	 D(1,3,9,10)      =        -3.141334	    -179.985190
	 D(1,3,9,11)      =         0.000325	       0.018608
	 D(2,1,3,9)       =        -0.000348	      -0.019945
	 D(2,1,3,16)      =        -3.140969	    -179.964243
	 D(2,4,11,9)      =         0.000301	       0.017261
	 D(2,4,11,13)     =         3.140029	     179.910408
	 D(3,1,2,4)       =         0.000348	       0.019955
	 D(3,1,2,15)      =        -3.141142	    -179.974167
	 D(3,9,10,5)      =        -0.523767	     -30.009643
	 D(3,9,10,6)      =         2.616719	     149.926929
	 D(3,9,11,4)      =        -0.000301	      -0.017270
	 D(3,9,11,13)     =        -3.139999	    -179.908714
	 D(4,2,1,14)      =         3.141002	     179.966134
	 D(4,11,9,10)     =         3.141358	     179.986543
	 D(5,7,12,8)      =        -0.000475	      -0.027244
	 D(5,10,6,8)      =         0.000304	       0.017426
	 D(5,10,6,19)     =        -3.140945	    -179.962919
	 D(5,10,9,11)     =         2.617759	     149.986555
	 D(6,8,12,7)      =        -0.000068	      -0.003885
	 D(6,10,5,7)      =        -0.000791	      -0.045293
	 D(6,10,5,18)     =        -3.139651	    -179.888727
	 D(6,10,9,11)     =        -0.524940	     -30.076874
	 D(7,5,10,9)      =         3.139699	     179.891524
	 D(7,12,8,21)     =         3.140651	     179.946046
	 D(8,6,10,9)      =        -3.140186	    -179.919423
	 D(8,12,7,20)     =         3.140438	     179.933861
	 D(9,3,1,14)      =        -3.141002	    -179.966136
	 D(9,10,5,18)     =         0.000839	       0.048090
	 D(9,10,6,19)     =         0.001749	       0.100232
	 D(9,11,4,17)     =         3.141128	     179.973370
	 D(10,5,7,12)     =         0.000908	       0.052007
	 D(10,5,7,20)     =        -3.139970	    -179.907034
	 D(10,6,8,12)     =         0.000142	       0.008154
	 D(10,6,8,21)     =        -3.140530	    -179.939087
	 D(10,9,3,16)     =        -0.000731	      -0.041910
	 D(10,9,11,13)    =         0.001660	       0.095099
	 D(11,4,2,15)     =         3.141165	     179.975516
	 D(11,9,3,16)     =         3.140927	     179.961888
	 D(12,7,5,18)     =         3.139814	     179.898081
	 D(12,8,6,19)     =         3.141397	     179.988803
	 D(13,11,4,17)    =        -0.002330	      -0.133484
	 D(14,1,2,15)     =        -0.000488	      -0.027988
	 D(14,1,3,16)     =         0.001563	       0.089566
	 D(15,2,4,17)     =         0.000339	       0.019443
	 D(18,5,7,20)     =        -0.001064	      -0.060961
	 D(19,6,8,21)     =         0.000725	       0.041561
	 R(6,13)          =         4.988274	       2.639681

	Current energy   :      -577.7219119734

	Generating empirical Hessian (Schlegel '84) for each fragment.
	Adding user-defined constraint: Fragment 1; Coordinate 67:
		Value =    -0.523767; Fixed value    =    -0.523599
		Force =     0.000084; Force constant =     0.500000
	Removing off-diagonal coupling between coordinate 67 and others.
	Taking RFO optimization step.
	Going to follow RFO solution 1.
	Using RFO vector 1.

	Determining step-restricting scale parameter for RS-RFO.
	Maximum step size allowed    0.10000

	 Iter      |step|        alpha        rfo_root  
	------------------------------------------------
	    0     0.33693       1.00000           1
	    1     0.22564       4.01938           1
	    2     0.16230      10.89933           1
	    3     0.12569      23.54592           1
	    4     0.10689      37.89301           1
	    5     0.10071      44.94896           1
	    6     0.10001      45.85147           1
	------------------------------------------------
	Norm of target step-size    0.10001
	Projected energy change by RFO approximation:        -0.0043699482

	Back-transformation to cartesian coordinates...
	Could not converge backtransformation.
	Using first guess instead.

	--- Internal Coordinate Step in ANG or DEG, aJ/ANG or AJ/DEG ---
	 ---------------------------------------------------------------------------
	   Coordinate                Previous        Force       Change         New 
	   ----------                --------       ------       ------       ------
	    1 R(1,2)          =      1.394038    -0.046998    -0.004469     1.389569
	    2 R(1,3)          =      1.394891    -0.060845    -0.005624     1.389267
	    3 R(1,14)         =      1.086619    -0.044102    -0.004911     1.081708
	    4 R(2,4)          =      1.394821    -0.073080    -0.006963     1.387858
	    5 R(2,15)         =      1.086434    -0.045119    -0.005006     1.081428
	    6 R(3,9)          =      1.394821    -0.005680    -0.000199     1.394622
	    7 R(3,16)         =      1.087437    -0.057039    -0.006363     1.081074
	    8 R(4,11)         =      1.395407    -0.112290    -0.010431     1.384977
	    9 R(4,17)         =      1.086343    -0.043801    -0.004772     1.081571
	   10 R(5,7)          =      1.385119    -0.004368    -0.000440     1.384679
	   11 R(5,10)         =      1.390475     0.007392     0.001268     1.391744
	   12 R(5,18)         =      1.085264    -0.043696    -0.004823     1.080441
	   13 R(6,8)          =      1.385596     0.002987     0.000290     1.385886
	   14 R(6,10)         =      1.390640     0.016911     0.002101     1.392741
	   15 R(6,19)         =      1.084939    -0.075692    -0.008339     1.076600
	   16 R(7,12)         =      1.352165    -0.126763    -0.010948     1.341217
	   17 R(7,20)         =      1.085570    -0.025954    -0.002874     1.082696
	   18 R(8,12)         =      1.352208    -0.122394    -0.010537     1.341671
	   19 R(8,21)         =      1.085037    -0.024281    -0.002688     1.082349
	   20 R(9,10)         =      1.447032     0.134920     0.014625     1.461657
	   21 R(9,11)         =      1.394521    -0.049078    -0.003992     1.390529
	   22 R(11,13)        =      1.341207    -0.020281    -0.001560     1.339647
	   23 B(1,2,4)        =    120.009056     0.000003    -0.020448   119.988609
	   24 B(1,2,15)       =    120.018646     0.000091     0.191741   120.210387
	   25 B(1,3,9)        =    119.959722     0.000394     0.726345   120.686066
	   26 B(1,3,16)       =    119.122177     0.000021     0.064643   119.186821
	   27 B(2,1,3)        =    120.031219    -0.000049    -0.072685   119.958534
	   28 B(2,1,14)       =    119.995189     0.000021     0.029255   120.024445
	   29 B(2,4,11)       =    119.994870    -0.000276    -0.487842   119.507029
	   30 B(2,4,17)       =    120.042665     0.000287     0.536655   120.579320
	   31 B(3,1,14)       =    119.973570     0.000028     0.043452   120.017022
	   32 B(3,9,10)       =    119.778448     0.000864     1.262609   121.041057
	   33 B(3,9,11)       =    120.045019    -0.001040    -1.672412   118.372607
	   34 B(4,2,15)       =    119.972298    -0.000093    -0.171297   119.801001
	   35 B(4,11,9)       =    119.960108     0.000969     1.526960   121.487068
	   36 B(4,11,13)      =    119.236128    -0.000164    -0.334493   118.901635
	   37 B(5,7,12)       =    124.086476    -0.000001    -0.075755   124.010720
	   38 B(5,7,20)       =    120.743855    -0.000062    -0.085115   120.658740
	   39 B(5,10,6)       =    119.725582    -0.001039    -1.572191   118.153392
	   40 B(5,10,9)       =    120.162688     0.000500     0.684917   120.847606
	   41 B(6,8,12)       =    124.051298     0.000131     0.167609   124.218907
	   42 B(6,8,21)       =    120.793929    -0.000131    -0.213683   120.580246
	   43 B(6,10,9)       =    120.111699     0.000539     0.886992   120.998691
	   44 B(7,5,10)       =    117.905496     0.000492     0.895656   118.801152
	   45 B(7,5,18)       =    120.237863    -0.000205    -0.370488   119.867375
	   46 B(7,12,8)       =    116.319747     0.000110    -0.012539   116.307208
	   47 B(8,6,10)       =    117.911383     0.000307     0.597166   118.508549
	   48 B(8,6,19)       =    120.303975    -0.000254    -0.500279   119.803696
	   49 B(9,3,16)       =    120.918077    -0.000415    -0.791556   120.126521
	   50 B(9,11,13)      =    120.803676    -0.000804    -1.192817   119.610859
	   51 B(10,5,18)      =    121.856455    -0.000287    -0.525034   121.331421
	   52 B(10,6,19)      =    121.784639    -0.000053    -0.097769   121.686870
	   53 B(10,9,11)      =    120.176533     0.000176     0.409546   120.586080
	   54 B(11,4,17)      =    119.962450    -0.000011    -0.048868   119.913582
	   55 B(12,7,20)      =    115.169657     0.000063     0.160872   115.330530
	   56 B(12,8,21)      =    115.154754     0.000000     0.046093   115.200846
	   57 D(1,2,4,11)     =     -0.018609     0.000004     0.062845     0.044236
	   58 D(1,2,4,17)     =   -179.974682     0.000007     0.114960  -179.859722
	   59 D(1,3,9,10)     =   -179.985190    -0.000005    -0.091920  -180.077110
	   60 D(1,3,9,11)     =      0.018608     0.000004     0.087339     0.105946
	   61 D(2,1,3,9)      =     -0.019945    -0.000004    -0.073312    -0.093256
	   62 D(2,1,3,16)     =   -179.964243     0.000011     0.150438  -179.813805
	   63 D(2,4,11,9)     =      0.017261    -0.000004    -0.047447    -0.030185
	   64 D(2,4,11,13)    =    179.910408     0.000021     0.301171   180.211578
	   65 D(3,1,2,4)      =      0.019955     0.000000    -0.003204     0.016751
	   66 D(3,1,2,15)     =   -179.974167     0.000001     0.012850  -179.961317
	   67 D(3,9,10,5)     =    -30.009643    -0.000020    -0.165303   -30.174945
	   68 D(3,9,10,6)     =    149.926929    -0.000025    -0.308733   149.618195
	   69 D(3,9,11,4)     =     -0.017270     0.000000    -0.027060    -0.044330
	   70 D(3,9,11,13)    =   -179.908714    -0.000025    -0.379062  -180.287776
	   71 D(4,2,1,14)     =    179.966134     0.000004     0.046717   180.012852
	   72 D(4,11,9,10)    =    179.986543     0.000009     0.151319   180.137861
	   73 D(5,7,12,8)     =     -0.027244    -0.000001    -0.029137    -0.056381
	   74 D(5,10,6,8)     =      0.017426     0.000003     0.003221     0.020647
	   75 D(5,10,6,19)    =   -179.962919    -0.000024    -0.359495  -180.322413
	   76 D(5,10,9,11)    =    149.986555    -0.000029    -0.348599   149.637956
	   77 D(6,8,12,7)     =     -0.003885     0.000007     0.107844     0.103959
	   78 D(6,10,5,7)     =     -0.045293     0.000002     0.067309     0.022016
	   79 D(6,10,5,18)    =   -179.888727    -0.000015    -0.172819  -180.061545
	   80 D(6,10,9,11)    =    -30.076874    -0.000034    -0.492030   -30.568904
	   81 D(7,5,10,9)     =    179.891524    -0.000002    -0.070617   179.820907
	   82 D(7,12,8,21)    =    179.946046     0.000011     0.159740   180.105787
	   83 D(8,6,10,9)     =   -179.919423     0.000008     0.141498  -179.777925
	   84 D(8,12,7,20)    =    179.933861     0.000004     0.045962   179.979823
	   85 D(9,3,1,14)     =   -179.966136    -0.000008    -0.123221  -180.089357
	   86 D(9,10,5,18)    =      0.048090    -0.000020    -0.310745    -0.262654
	   87 D(9,10,6,19)    =      0.100232    -0.000019    -0.221218    -0.120986
	   88 D(9,11,4,17)    =    179.973370    -0.000008    -0.098948   179.874421
	   89 D(10,5,7,12)    =      0.052007    -0.000003    -0.056337    -0.004330
	   90 D(10,5,7,20)    =   -179.907034    -0.000009    -0.135336  -180.042370
	   91 D(10,6,8,12)    =      0.008154    -0.000008    -0.096429    -0.088274
	   92 D(10,6,8,21)    =   -179.939087    -0.000012    -0.151108  -180.090195
	   93 D(10,9,3,16)    =     -0.041910    -0.000021    -0.317274    -0.359184
	   94 D(10,9,11,13)   =      0.095099    -0.000016    -0.200684    -0.105584
	   95 D(11,4,2,15)    =    179.975516     0.000004     0.046878   180.022394
	   96 D(11,9,3,16)    =    179.961888    -0.000012    -0.138015   179.823873
	   97 D(12,7,5,18)    =    179.898081     0.000014     0.179897   180.077978
	   98 D(12,8,6,19)    =    179.988803     0.000018     0.259341   180.248144
	   99 D(13,11,4,17)   =     -0.133484     0.000017     0.249669     0.116185
	  100 D(14,1,2,15)    =     -0.027988     0.000005     0.062771     0.034784
	  101 D(14,1,3,16)    =      0.089566     0.000008     0.100529     0.190094
	  102 D(15,2,4,17)    =      0.019443     0.000007     0.098993     0.118436
	  103 D(18,5,7,20)    =     -0.060961     0.000008     0.100898     0.039938
	  104 D(19,6,8,21)    =      0.041561     0.000015     0.204662     0.246223
	  105 R(6,13)         =      2.639681     0.083135     0.020351     2.660032
	 ---------------------------------------------------------------------------
	Successfully symmetrized geometry.
	 Forces used to impose fixed constraints are not included.
	  Forces zeroed: 67 

  ==> Convergence Check <==

  Measures of convergence in internal coordinates in au.
  Criteria marked as inactive (o), active & met (*), and active & unmet ( ).
  --------------------------------------------------------------------------------------------- ~
   Step     Total Energy     Delta E     MAX Force     RMS Force      MAX Disp      RMS Disp    ~
  --------------------------------------------------------------------------------------------- ~
    Convergence Criteria    1.00e-06 *    3.00e-04 *             o    1.20e-03 *             o  ~
  --------------------------------------------------------------------------------------------- ~
      1    -577.72191197   -5.78e+02      1.64e-02      4.96e-03 o    3.85e-02      9.77e-03 o  ~
  ---------------------------------------------------------------------------------------------

	Writing optimization data to binary file.
	Structure for next step:
	Cartesian Geometry (in Angstrom)
	    C    -1.3873599477   0.8548278384  -2.6707331500
	    C    -2.4615035103   1.4209066143  -1.9949580114
	    C    -0.3534455834   0.2617330305  -1.9570641944
	    C    -2.5005831699   1.3937452758  -0.6079164462
	    C     1.4249399482  -1.4612745912  -0.3343495361
	    C     1.0466813389   0.0630639210   1.4654113256
	    C     2.4445539712  -2.0175226551   0.4195154552
	    C     2.0849554459  -0.5629907070   2.1367705982
	    C    -0.3784392885   0.2284162194  -0.5630646029
	    C     0.7043260224  -0.3950032049   0.1954917891
	    C    -1.4631814510   0.8006730331   0.0922428835
	    N     2.7901945717  -1.5923611252   1.6437021003
	    F    -1.5153863067   0.7774666824   1.4306713640
	    H    -1.3562070514   0.8758557927  -3.7517876892
	    H    -3.2688171481   1.8830894158  -2.5464277354
	    H     0.4776078699  -0.1721881108  -2.4953798820
	    H    -3.3330808329   1.8294570832  -0.0722876676
	    H     1.2021715202  -1.8582228742  -1.3142268893
	    H     0.5305489243   0.8871675212   1.9275029634
	    H     3.0239076367  -2.8483316847   0.0369768438
	    H     2.3799255882  -0.2334058529   3.1246196785
			--------------------------
			 OPTKING Finished Execution 
			--------------------------

    Structure for next step:
    Molecular point group: c1
    Full point group: C1

    Geometry (in Angstrom), charge = 0, multiplicity = 1:

    C           -1.386586080780     0.855533720184    -2.666357078557
    C           -2.460729643295     1.421612496156    -1.990581940003
    C           -0.352671716471     0.262438912297    -1.952688123003
    C           -2.499809302933     1.394451157649    -0.603540374761
    C            1.425713815160    -1.460568709366    -0.329973464666
    C            1.047455205863     0.063769802851     1.469787397012
    C            2.445327838145    -2.016816773273     0.423891526660
    C            2.085729312861    -0.562284825121     2.141146669578
    C           -0.377665421581     0.229122101214    -0.558688531475
    C            0.705099889358    -0.394297323101     0.199867860526
    C           -1.462407584020     0.801378914969     0.096618954940
    N            2.790968438666    -1.591655243384     1.648078171723
    F           -1.514612439689     0.778172564230     1.435047435405
    H           -1.355433184456     0.876561674487    -3.747411617802
    H           -3.268043281094     1.883795297631    -2.542051663955
    H            0.478381736851    -0.171482228954    -2.491003810543
    H           -3.332306965934     1.830162965057    -0.067911596199
    H            1.202945387168    -1.857516992387    -1.309850817928
    H            0.531322791261     0.887873403079     1.931879034829
    H            3.024681503660    -2.847625802859     0.041352915263
    H            2.380699455127    -0.232699971066     3.128995749905

gradient() will perform analytic gradient computation.

*** tstart() called on gpu-1-6.local
*** at Sat Nov 11 18:49:43 2017

    SCF Algorithm Type (re)set to DF.

*** tstart() called on gpu-1-6.local
*** at Sat Nov 11 18:49:43 2017

   => Loading Basis Set <=

    Name: AUG-CC-PVTZ
    Role: ORBITAL
    Keyword: BASIS
    atoms 1-11  entry C          line   221 file /cbio/jclab/home/chayas/anaconda/envs/py35/share/psi4/basis/aug-cc-pvtz.gbs 
    atoms 12    entry N          line   267 file /cbio/jclab/home/chayas/anaconda/envs/py35/share/psi4/basis/aug-cc-pvtz.gbs 
    atoms 13    entry F          line   359 file /cbio/jclab/home/chayas/anaconda/envs/py35/share/psi4/basis/aug-cc-pvtz.gbs 
    atoms 14-21 entry H          line    34 file /cbio/jclab/home/chayas/anaconda/envs/py35/share/psi4/basis/aug-cc-pvtz.gbs 


         ---------------------------------------------------------
                                   SCF
            by Justin Turney, Rob Parrish, and Andy Simmonett
                              RHF Reference
                        8 Threads,   4768 MiB Core
         ---------------------------------------------------------

  ==> Geometry <==

    Molecular point group: c1
    Full point group: C1

    Geometry (in Angstrom), charge = 0, multiplicity = 1:

       Center              X                  Y                   Z               Mass       
    ------------   -----------------  -----------------  -----------------  -----------------
           C         -1.386586080780     0.855533720184    -2.666357078557    12.000000000000
           C         -2.460729643295     1.421612496156    -1.990581940003    12.000000000000
           C         -0.352671716471     0.262438912297    -1.952688123003    12.000000000000
           C         -2.499809302933     1.394451157649    -0.603540374761    12.000000000000
           C          1.425713815160    -1.460568709366    -0.329973464666    12.000000000000
           C          1.047455205863     0.063769802851     1.469787397012    12.000000000000
           C          2.445327838145    -2.016816773273     0.423891526660    12.000000000000
           C          2.085729312861    -0.562284825121     2.141146669578    12.000000000000
           C         -0.377665421581     0.229122101214    -0.558688531475    12.000000000000
           C          0.705099889358    -0.394297323101     0.199867860526    12.000000000000
           C         -1.462407584020     0.801378914969     0.096618954940    12.000000000000
           N          2.790968438666    -1.591655243384     1.648078171723    14.003074004780
           F         -1.514612439689     0.778172564230     1.435047435405    18.998403224000
           H         -1.355433184456     0.876561674487    -3.747411617802     1.007825032070
           H         -3.268043281094     1.883795297631    -2.542051663955     1.007825032070
           H          0.478381736851    -0.171482228954    -2.491003810543     1.007825032070
           H         -3.332306965934     1.830162965057    -0.067911596199     1.007825032070
           H          1.202945387168    -1.857516992387    -1.309850817928     1.007825032070
           H          0.531322791261     0.887873403079     1.931879034829     1.007825032070
           H          3.024681503660    -2.847625802859     0.041352915263     1.007825032070
           H          2.380699455127    -0.232699971066     3.128995749905     1.007825032070

  Running in c1 symmetry.

  Rotational constants: A =      0.06495  B =      0.01832  C =      0.01467 [cm^-1]
  Rotational constants: A =   1947.06650  B =    549.08703  C =    439.82709 [MHz]
  Nuclear repulsion =  717.707391603810152

  Charge       = 0
  Multiplicity = 1
  Electrons    = 90
  Nalpha       = 45
  Nbeta        = 45

  ==> Algorithm <==

  SCF Algorithm Type is DF.
  DIIS enabled.
  MOM disabled.
  Fractional occupation disabled.
  Guess Type is READ.
  Energy threshold   = 1.00e-10
  Density threshold  = 1.00e-10
  Integral threshold = 0.00e+00

  ==> Primary Basis <==

  Basis Set: AUG-CC-PVTZ
    Blend: AUG-CC-PVTZ
    Number of shells: 254
    Number of basis function: 782
    Number of Cartesian functions: 915
    Spherical Harmonics?: true
    Max angular momentum: 3

   => Loading Basis Set <=

    Name: (AUG-CC-PVTZ AUX)
    Role: JKFIT
    Keyword: DF_BASIS_SCF
    atoms 1-11  entry C          line   161 file /cbio/jclab/home/chayas/anaconda/envs/py35/share/psi4/basis/aug-cc-pvtz-jkfit.gbs 
    atoms 12    entry N          line   223 file /cbio/jclab/home/chayas/anaconda/envs/py35/share/psi4/basis/aug-cc-pvtz-jkfit.gbs 
    atoms 13    entry F          line   347 file /cbio/jclab/home/chayas/anaconda/envs/py35/share/psi4/basis/aug-cc-pvtz-jkfit.gbs 
    atoms 14-21 entry H          line    69 file /cbio/jclab/home/chayas/anaconda/envs/py35/share/psi4/basis/aug-cc-pvtz-jkfit.gbs 

  Reading orbitals from file 180, no projection.

  ==> Pre-Iterations <==

   -------------------------------------------------------
    Irrep   Nso     Nmo     Nalpha   Nbeta   Ndocc  Nsocc
   -------------------------------------------------------
     A        782     782       0       0       0       0
   -------------------------------------------------------
    Total     782     782      45      45      45       0
   -------------------------------------------------------

  ==> Integral Setup <==

  ==> DFJK: Density-Fitted J/K Matrices <==

    J tasked:                  Yes
    K tasked:                  Yes
    wK tasked:                  No
    OpenMP threads:              8
    Integrals threads:           8
    Memory (MB):              3576
    Algorithm:                Disk
    Integral Cache:           NONE
    Schwarz Cutoff:          1E-12
    Fitting Condition:       1E-12

   => Auxiliary Basis Set <=

  Basis Set: (AUG-CC-PVTZ AUX)
    Blend: AUG-CC-PVTZ-JKFIT
    Number of shells: 502
    Number of basis function: 1720
    Number of Cartesian functions: 2143
    Spherical Harmonics?: true
    Max angular momentum: 4

  Minimum eigenvalue in the overlap matrix is 6.1775668902E-07.
  Using Symmetric Orthogonalization.

  SCF Guess: Orbitals guess was supplied from a previous computation.

  ==> Iterations <==

                           Total Energy        Delta E     RMS |[F,P]|

   @DF-RHF iter   0:  -575.39276128972278   -5.75393e+02   5.21345e-04 
   @DF-RHF iter   1:  -575.28469198216908    1.08069e-01   1.46479e-04 
   @DF-RHF iter   2:  -575.28528510619356   -5.93124e-04   1.05066e-04 DIIS
   @DF-RHF iter   3:  -575.28577496584887   -4.89860e-04   1.39399e-05 DIIS
   @DF-RHF iter   4:  -575.28578431636038   -9.35051e-06   4.72733e-06 DIIS
   @DF-RHF iter   5:  -575.28578627547824   -1.95912e-06   1.24998e-06 DIIS
   @DF-RHF iter   6:  -575.28578662213977   -3.46662e-07   9.41521e-07 DIIS
   @DF-RHF iter   7:  -575.28578675745484   -1.35315e-07   2.71051e-07 DIIS
   @DF-RHF iter   8:  -575.28578679272039   -3.52655e-08   1.14686e-07 DIIS
   @DF-RHF iter   9:  -575.28578679615555   -3.43516e-09   5.55714e-08 DIIS
   @DF-RHF iter  10:  -575.28578679648251   -3.26963e-10   1.64081e-08 DIIS
   @DF-RHF iter  11:  -575.28578679652401   -4.14957e-11   4.41967e-09 DIIS
   @DF-RHF iter  12:  -575.28578679651673    7.27596e-12   1.75908e-09 DIIS
   @DF-RHF iter  13:  -575.28578679651832   -1.59162e-12   8.10831e-10 DIIS
   @DF-RHF iter  14:  -575.28578679652014   -1.81899e-12   2.70517e-10 DIIS
   @DF-RHF iter  15:  -575.28578679651991    2.27374e-13   1.60488e-10 DIIS
   @DF-RHF iter  16:  -575.28578679652799   -8.07177e-12   5.59963e-11 DIIS

  ==> Post-Iterations <==

    Orbital Energies (a.u.)
    -----------------------

    Doubly Occupied:                                                      

       1A    -26.323639     2A    -15.562750     3A    -11.340747  
       4A    -11.272432     5A    -11.270653     6A    -11.268607  
       7A    -11.263016     8A    -11.258268     9A    -11.257841  
      10A    -11.253588    11A    -11.249358    12A    -11.239610  
      13A    -11.234761    14A     -1.646288    15A     -1.255186  
      16A     -1.186355    17A     -1.114572    18A     -1.039813  
      19A     -1.033127    20A     -1.028684    21A     -0.893425  
      22A     -0.875542    23A     -0.845651    24A     -0.826449  
      25A     -0.759344    26A     -0.724472    27A     -0.721625  
      28A     -0.711682    29A     -0.672184    30A     -0.661465  
      31A     -0.651717    32A     -0.626120    33A     -0.611876  
      34A     -0.596183    35A     -0.589526    36A     -0.551225  
      37A     -0.541379    38A     -0.524598    39A     -0.519231  
      40A     -0.506581    41A     -0.418458    42A     -0.411530  
      43A     -0.354987    44A     -0.347845    45A     -0.328865  

    Virtual:                                                              

      46A      0.023384    47A      0.029275    48A      0.033870  
      49A      0.039409    50A      0.043619    51A      0.046636  
      52A      0.056006    53A      0.057288    54A      0.065340  
      55A      0.079073    56A      0.082867    57A      0.086173  
      58A      0.091473    59A      0.094629    60A      0.099901  
      61A      0.104212    62A      0.107315    63A      0.108691  
      64A      0.114326    65A      0.115370    66A      0.117047  
      67A      0.118649    68A      0.121456    69A      0.130856  
      70A      0.131703    71A      0.134092    72A      0.137712  
      73A      0.139520    74A      0.142365    75A      0.146472  
      76A      0.149487    77A      0.151448    78A      0.154796  
      79A      0.162547    80A      0.168042    81A      0.174905  
      82A      0.175153    83A      0.179635    84A      0.184072  
      85A      0.187975    86A      0.199629    87A      0.204835  
      88A      0.215902    89A      0.223243    90A      0.223853  
      91A      0.227784    92A      0.228299    93A      0.231622  
      94A      0.239836    95A      0.242481    96A      0.246361  
      97A      0.249772    98A      0.253083    99A      0.259680  
     100A      0.264887   101A      0.266894   102A      0.268528  
     103A      0.275468   104A      0.284029   105A      0.285381  
     106A      0.289713   107A      0.292611   108A      0.297157  
     109A      0.299974   110A      0.303573   111A      0.311054  
     112A      0.314335   113A      0.315760   114A      0.318442  
     115A      0.322016   116A      0.328949   117A      0.336482  
     118A      0.338089   119A      0.340221   120A      0.346866  
     121A      0.351741   122A      0.355566   123A      0.364149  
     124A      0.367180   125A      0.377799   126A      0.380847  
     127A      0.382710   128A      0.389591   129A      0.396433  
     130A      0.402996   131A      0.412070   132A      0.412576  
     133A      0.417217   134A      0.422677   135A      0.429105  
     136A      0.431736   137A      0.433825   138A      0.437387  
     139A      0.440327   140A      0.446426   141A      0.447445  
     142A      0.453796   143A      0.457025   144A      0.461429  
     145A      0.466552   146A      0.469399   147A      0.473704  
     148A      0.475903   149A      0.477723   150A      0.484080  
     151A      0.488848   152A      0.494042   153A      0.496013  
     154A      0.499834   155A      0.502824   156A      0.505186  
     157A      0.507775   158A      0.509460   159A      0.511604  
     160A      0.521152   161A      0.523947   162A      0.525083  
     163A      0.528752   164A      0.531997   165A      0.533851  
     166A      0.536921   167A      0.540947   168A      0.543752  
     169A      0.547727   170A      0.551385   171A      0.558589  
     172A      0.559541   173A      0.573344   174A      0.574785  
     175A      0.580082   176A      0.584511   177A      0.590309  
     178A      0.602055   179A      0.607648   180A      0.609017  
     181A      0.617931   182A      0.624123   183A      0.630865  
     184A      0.637069   185A      0.646261   186A      0.647605  
     187A      0.653452   188A      0.665675   189A      0.676652  
     190A      0.682312   191A      0.688662   192A      0.692110  
     193A      0.700125   194A      0.704332   195A      0.706352  
     196A      0.707815   197A      0.719207   198A      0.724598  
     199A      0.727124   200A      0.738925   201A      0.739946  
     202A      0.743526   203A      0.745100   204A      0.750041  
     205A      0.753695   206A      0.768585   207A      0.772341  
     208A      0.778494   209A      0.780560   210A      0.789919  
     211A      0.803398   212A      0.804332   213A      0.808908  
     214A      0.819648   215A      0.824616   216A      0.835256  
     217A      0.842934   218A      0.851537   219A      0.855891  
     220A      0.858379   221A      0.864902   222A      0.871785  
     223A      0.872542   224A      0.878370   225A      0.883410  
     226A      0.884866   227A      0.886712   228A      0.887691  
     229A      0.893600   230A      0.906072   231A      0.907226  
     232A      0.911571   233A      0.914388   234A      0.920600  
     235A      0.923756   236A      0.929928   237A      0.937821  
     238A      0.944351   239A      0.948741   240A      0.955154  
     241A      0.958909   242A      0.965650   243A      0.968915  
     244A      0.973808   245A      0.978403   246A      0.984375  
     247A      0.989165   248A      0.990690   249A      0.991564  
     250A      1.000231   251A      1.008257   252A      1.010378  
     253A      1.013853   254A      1.018061   255A      1.025222  
     256A      1.027083   257A      1.029175   258A      1.036626  
     259A      1.043529   260A      1.045118   261A      1.049219  
     262A      1.062369   263A      1.066443   264A      1.067947  
     265A      1.071238   266A      1.075507   267A      1.076373  
     268A      1.084786   269A      1.087880   270A      1.088956  
     271A      1.094914   272A      1.099332   273A      1.107004  
     274A      1.109542   275A      1.118792   276A      1.123379  
     277A      1.126788   278A      1.136037   279A      1.137294  
     280A      1.145347   281A      1.147010   282A      1.159987  
     283A      1.168365   284A      1.173229   285A      1.176467  
     286A      1.179421   287A      1.184738   288A      1.187522  
     289A      1.188738   290A      1.198772   291A      1.201142  
     292A      1.202677   293A      1.206977   294A      1.211433  
     295A      1.216361   296A      1.218252   297A      1.228767  
     298A      1.236336   299A      1.238351   300A      1.249237  
     301A      1.260821   302A      1.263479   303A      1.269060  
     304A      1.275016   305A      1.285696   306A      1.288406  
     307A      1.293523   308A      1.297908   309A      1.300726  
     310A      1.314590   311A      1.318761   312A      1.324557  
     313A      1.330352   314A      1.337058   315A      1.352997  
     316A      1.359662   317A      1.363644   318A      1.367942  
     319A      1.377341   320A      1.388663   321A      1.392754  
     322A      1.406047   323A      1.409921   324A      1.420370  
     325A      1.423088   326A      1.426379   327A      1.433449  
     328A      1.439042   329A      1.451376   330A      1.473848  
     331A      1.476261   332A      1.489758   333A      1.494392  
     334A      1.498775   335A      1.508784   336A      1.513111  
     337A      1.523915   338A      1.527211   339A      1.542849  
     340A      1.546153   341A      1.554355   342A      1.562249  
     343A      1.576831   344A      1.581910   345A      1.592724  
     346A      1.596335   347A      1.603081   348A      1.616227  
     349A      1.623843   350A      1.635523   351A      1.645916  
     352A      1.655713   353A      1.657374   354A      1.665212  
     355A      1.674349   356A      1.677709   357A      1.693222  
     358A      1.700028   359A      1.710268   360A      1.711565  
     361A      1.720243   362A      1.725307   363A      1.736861  
     364A      1.738518   365A      1.741303   366A      1.749480  
     367A      1.757249   368A      1.774075   369A      1.780357  
     370A      1.787274   371A      1.795356   372A      1.802816  
     373A      1.808611   374A      1.818585   375A      1.823119  
     376A      1.831283   377A      1.836422   378A      1.846983  
     379A      1.861642   380A      1.865776   381A      1.874509  
     382A      1.881337   383A      1.896118   384A      1.899935  
     385A      1.918475   386A      1.925690   387A      1.931725  
     388A      1.942133   389A      1.949116   390A      1.951595  
     391A      1.965675   392A      1.967224   393A      1.979150  
     394A      1.986115   395A      1.990522   396A      1.996001  
     397A      1.999671   398A      2.012953   399A      2.020023  
     400A      2.025708   401A      2.029023   402A      2.037855  
     403A      2.045718   404A      2.050735   405A      2.054314  
     406A      2.066632   407A      2.073387   408A      2.082018  
     409A      2.088426   410A      2.094480   411A      2.097361  
     412A      2.111784   413A      2.113848   414A      2.126447  
[...]
	 R(6,10)          =         2.632455	       1.393035
	 R(6,19)          =         2.035102	       1.076930
	 R(7,12)          =         2.522498	       1.334849
	 R(7,20)          =         2.042837	       1.081023
	 R(8,12)          =         2.522365	       1.334778
	 R(8,21)          =         2.042594	       1.080894
	 R(9,10)          =         2.765506	       1.463443
	 R(9,11)          =         2.629414	       1.391426
	 R(11,13)         =         2.546220	       1.347402
	 B(1,2,4)         =         2.088598	     119.667834
	 B(1,2,15)        =         2.104285	     120.566641
	 B(1,3,9)         =         2.127382	     121.890001
	 B(1,3,16)        =         2.087164	     119.585663
	 B(2,1,3)         =         2.092766	     119.906655
	 B(2,1,14)        =         2.099144	     120.272069
	 B(2,4,11)        =         2.080292	     119.191926
	 B(2,4,17)        =         2.127480	     121.895611
	 B(3,1,14)        =         2.091249	     119.819729
	 B(3,9,10)        =         2.106740	     120.707292
	 B(3,9,11)        =         2.029597	     116.287324
	 B(4,2,15)        =         2.090303	     119.765516
	 B(4,11,9)        =         2.147643	     123.050865
	 B(4,11,13)       =         2.050556	     117.488177
	 B(5,7,12)        =         2.158633	     123.680582
	 B(5,7,20)        =         2.094373	     119.998744
	 B(5,10,6)        =         2.035194	     116.608002
	 B(5,10,9)        =         2.104037	     120.552453
	 B(6,8,12)        =         2.163717	     123.971877
	 B(6,8,21)        =         2.091097	     119.811035
	 B(6,10,9)        =         2.142594	     122.761610
	 B(7,5,10)        =         2.090524	     119.778179
	 B(7,5,18)        =         2.087061	     119.579793
	 B(7,12,8)        =         2.033339	     116.501749
	 B(8,6,10)        =         2.084937	     119.458101
	 B(8,6,19)        =         2.088927	     119.686718
	 B(9,3,16)        =         2.068040	     118.489946
	 B(9,11,13)       =         2.084644	     119.441292
	 B(10,5,18)       =         2.105123	     120.614667
	 B(10,6,19)       =         2.109155	     120.845698
	 B(10,9,11)       =         2.146171	     122.966562
	 B(11,4,17)       =         2.075374	     118.910174
	 B(12,7,20)       =         2.030176	     116.320530
	 B(12,8,21)       =         2.028364	     116.216696
	 D(1,2,4,11)      =         0.004082	       0.233876
	 D(1,2,4,17)      =        -3.127798	    -179.209612
	 D(1,3,9,10)      =         3.117659	     178.628703
	 D(1,3,9,11)      =         0.014469	       0.829022
	 D(2,1,3,9)       =        -0.006551	      -0.375358
	 D(2,1,3,16)      =        -3.110343	    -178.209555
	 D(2,4,11,9)      =         0.004651	       0.266456
	 D(2,4,11,13)     =        -3.108588	    -178.108961
	 D(3,1,2,4)       =        -0.003124	      -0.178964
	 D(3,1,2,15)      =         3.139070	     179.855454
	 D(3,9,10,5)      =        -0.528164	     -30.261550
	 D(3,9,10,6)      =         2.555476	     146.417984
	 D(3,9,11,4)      =        -0.013620	      -0.780353
	 D(3,9,11,13)     =         3.099089	     177.564748
	 D(4,2,1,14)      =        -3.136808	    -179.725852
	 D(4,11,9,10)     =        -3.115857	    -178.525459
	 D(5,7,12,8)      =         0.001937	       0.110995
	 D(5,10,6,8)      =        -0.004206	      -0.240975
	 D(5,10,6,19)     =         3.117774	     178.635274
	 D(5,10,9,11)     =         2.572388	     147.386998
	 D(6,8,12,7)      =         0.002070	       0.118591
	 D(6,10,5,7)      =         0.007893	       0.452232
	 D(6,10,5,18)     =         3.116141	     178.541702
	 D(6,10,9,11)     =        -0.627157	     -35.933468
	 D(7,5,10,9)      =         3.094982	     177.329401
	 D(7,12,8,21)     =        -3.135523	    -179.652239
	 D(8,6,10,9)      =        -3.089982	    -177.042924
	 D(8,12,7,20)     =        -3.137238	    -179.750489
	 D(9,3,1,14)      =         3.127169	     179.173595
	 D(9,10,5,18)     =        -0.079956	      -4.581129
	 D(9,10,6,19)     =         0.031998	       1.833324
	 D(9,11,4,17)     =         3.136823	     179.726706
	 D(10,5,7,12)     =        -0.007116	      -0.407710
	 D(10,5,7,20)     =         3.131975	     179.448929
	 D(10,6,8,12)     =        -0.000825	      -0.047248
	 D(10,6,8,21)     =         3.136632	     179.715802
	 D(10,9,3,16)     =        -0.061335	      -3.514215
	 D(10,9,11,13)    =        -0.003148	      -0.180358
	 D(11,4,2,15)     =        -3.138107	    -179.800263
	 D(11,9,3,16)     =         3.118661	     178.686104
	 D(12,7,5,18)     =        -3.115711	    -178.517085
	 D(12,8,6,19)     =        -3.123034	    -178.936686
	 D(13,11,4,17)    =         0.023584	       1.351289
	 D(14,1,2,15)     =         0.005385	       0.308566
	 D(14,1,3,16)     =         0.023377	       1.339397
	 D(15,2,4,17)     =         0.013199	       0.756250
	 D(18,5,7,20)     =         0.023380	       1.339554
	 D(19,6,8,21)     =         0.014423	       0.826364
	 R(6,13)          =         5.344434	       2.828153

	Current energy   :      -577.7276018186

	Energy change for the previous step:
		Projected    :        -0.0000008395
		Actual       :         0.0000007856

	Performing BFGS update.
	Previous computed or guess Hessian on step 1.
	Steps to be used in Hessian update: 7 6
	Adding user-defined constraint: Fragment 1; Coordinate 67:
		Value =    -0.528164; Fixed value    =    -0.523600
		Force =     0.003080; Force constant =     0.675000
	Removing off-diagonal coupling between coordinate 67 and others.
	Taking RFO optimization step.
	Going to follow RFO solution 1.
	Using RFO vector 1.
	Norm of target step-size    0.00405
	Projected energy change by RFO approximation:        -0.0000011688

	Back-transformation to cartesian coordinates...
	Could not converge backtransformation.
	Using first guess instead.

	--- Internal Coordinate Step in ANG or DEG, aJ/ANG or AJ/DEG ---
	 ---------------------------------------------------------------------------
	   Coordinate                Previous        Force       Change         New 
	   ----------                --------       ------       ------       ------
	    1 R(1,2)          =      1.387959    -0.000038     0.000001     1.387960
	    2 R(1,3)          =      1.384662     0.000001     0.000017     1.384680
	    3 R(1,14)         =      1.078462     0.000002     0.000020     1.078481
	    4 R(2,4)          =      1.385935    -0.000080     0.000013     1.385949
	    5 R(2,15)         =      1.078745     0.000018     0.000018     1.078763
	    6 R(3,9)          =      1.397123    -0.000011    -0.000003     1.397120
	    7 R(3,16)         =      1.079144    -0.000002     0.000024     1.079168
	    8 R(4,11)         =      1.379654     0.000069     0.000023     1.379677
	    9 R(4,17)         =      1.077919     0.000030     0.000020     1.077938
	   10 R(5,7)          =      1.384847     0.000082    -0.000005     1.384842
	   11 R(5,10)         =      1.393095    -0.000135     0.000009     1.393104
	   12 R(5,18)         =      1.079179    -0.000039     0.000007     1.079187
	   13 R(6,8)          =      1.385779    -0.000076     0.000002     1.385781
	   14 R(6,10)         =      1.393035     0.000071    -0.000013     1.393023
	   15 R(6,19)         =      1.076930    -0.000040     0.000006     1.076935
	   16 R(7,12)         =      1.334849    -0.000183     0.000035     1.334884
	   17 R(7,20)         =      1.081023    -0.000005     0.000006     1.081029
	   18 R(8,12)         =      1.334778     0.000080     0.000031     1.334809
	   19 R(8,21)         =      1.080894    -0.000023     0.000007     1.080901
	   20 R(9,10)         =      1.463443     0.000294    -0.000102     1.463341
	   21 R(9,11)         =      1.391426     0.000024    -0.000008     1.391418
	   22 R(11,13)        =      1.347402    -0.000737     0.000031     1.347433
	   23 B(1,2,4)        =    119.667834     0.000000    -0.001154   119.666680
	   24 B(1,2,15)       =    120.566641     0.000000     0.000516   120.567158
	   25 B(1,3,9)        =    121.890001     0.000000    -0.002465   121.887536
	   26 B(1,3,16)       =    119.585663    -0.000000     0.000259   119.585922
	   27 B(2,1,3)        =    119.906655    -0.000001     0.001728   119.908383
	   28 B(2,1,14)       =    120.272069     0.000000    -0.000611   120.271458
	   29 B(2,4,11)       =    119.191926     0.000001     0.000699   119.192626
	   30 B(2,4,17)       =    121.895611    -0.000001     0.000532   121.896143
	   31 B(3,1,14)       =    119.819729     0.000000    -0.000900   119.818829
	   32 B(3,9,10)       =    120.707292    -0.000001     0.004863   120.712155
	   33 B(3,9,11)       =    116.287324     0.000001     0.003040   116.290364
	   34 B(4,2,15)       =    119.765516    -0.000001     0.000631   119.766146
	   35 B(4,11,9)       =    123.050865    -0.000002    -0.001696   123.049169
	   36 B(4,11,13)      =    117.488177     0.000001     0.001012   117.489188
	   37 B(5,7,12)       =    123.680582     0.000000     0.001264   123.681846
	   38 B(5,7,20)       =    119.998744    -0.000000    -0.001597   119.997148
	   39 B(5,10,6)       =    116.608002     0.000000     0.005409   116.613411
	   40 B(5,10,9)       =    120.552453     0.000001     0.000651   120.553104
	   41 B(6,8,12)       =    123.971877    -0.000000     0.001707   123.973583
	   42 B(6,8,21)       =    119.811035     0.000000    -0.002094   119.808941
	   43 B(6,10,9)       =    122.761610    -0.000001    -0.005988   122.755621
	   44 B(7,5,10)       =    119.778179    -0.000000    -0.003195   119.774984
	   45 B(7,5,18)       =    119.579793    -0.000000    -0.001343   119.578450
	   46 B(7,12,8)       =    116.501749     0.000000    -0.001731   116.500019
	   47 B(8,6,10)       =    119.458101    -0.000000    -0.003424   119.454677
	   48 B(8,6,19)       =    119.686718     0.000000     0.000253   119.686971
	   49 B(9,3,16)       =    118.489946    -0.000000     0.002309   118.492256
	   50 B(9,11,13)      =    119.441292     0.000001    -0.002197   119.439095
	   51 B(10,5,18)      =    120.614667     0.000000     0.004468   120.619136
	   52 B(10,6,19)      =    120.845698     0.000000     0.002890   120.848588
	   53 B(10,9,11)      =    122.966562     0.000000    -0.008889   122.957672
	   54 B(11,4,17)      =    118.910174     0.000000    -0.001131   118.909043
	   55 B(12,7,20)      =    116.320530     0.000000     0.000208   116.320738
	   56 B(12,8,21)      =    116.216696    -0.000000     0.000562   116.217257
	   57 D(1,2,4,11)     =      0.233876     0.000000     0.026015     0.259891
	   58 D(1,2,4,17)     =   -179.209612     0.000000     0.013754  -179.195858
	   59 D(1,3,9,10)     =    178.628703    -0.000001    -0.026579   178.602124
	   60 D(1,3,9,11)     =      0.829022     0.000001     0.001369     0.830391
	   61 D(2,1,3,9)      =     -0.375358    -0.000000    -0.028098    -0.403456
	   62 D(2,1,3,16)     =   -178.209555    -0.000000    -0.031404  -178.240960
	   63 D(2,4,11,9)     =      0.266456     0.000000    -0.055081     0.211375
	   64 D(2,4,11,13)    =   -178.108961     0.000000     0.059863  -178.049098
	   65 D(3,1,2,4)      =     -0.178964    -0.000000     0.014070    -0.164894
	   66 D(3,1,2,15)     =    179.855454     0.000000     0.026207   179.881661
	   67 D(3,9,10,5)     =    -30.261550     0.000003     0.016401   -30.245149
	   68 D(3,9,10,6)     =    146.417984     0.000002     0.018118   146.436102
	   69 D(3,9,11,4)     =     -0.780353    -0.000000     0.040772    -0.739581
	   70 D(3,9,11,13)    =    177.564748    -0.000001    -0.076264   177.488484
	   71 D(4,2,1,14)     =   -179.725852    -0.000000    -0.018906  -179.744757
	   72 D(4,11,9,10)    =   -178.525459     0.000001     0.069069  -178.456390
	   73 D(5,7,12,8)     =      0.110995    -0.000000    -0.061505     0.049490
	   74 D(5,10,6,8)     =     -0.240975    -0.000000     0.021114    -0.219860
	   75 D(5,10,6,19)    =    178.635274    -0.000000     0.004574   178.639848
	   76 D(5,10,9,11)    =    147.386998     0.000002    -0.013167   147.373831
	   77 D(6,8,12,7)     =      0.118591     0.000000     0.068344     0.186936
	   78 D(6,10,5,7)     =      0.452232     0.000000    -0.015122     0.437110
	   79 D(6,10,5,18)    =    178.541702     0.000000    -0.017588   178.524113
	   80 D(6,10,9,11)    =    -35.933468     0.000001    -0.011450   -35.944918
	   81 D(7,5,10,9)     =    177.329401    -0.000001    -0.013865   177.315537
	   82 D(7,12,8,21)    =   -179.652239     0.000000     0.010038  -179.642202
	   83 D(8,6,10,9)     =   -177.042924     0.000001     0.019590  -177.023334
	   84 D(8,12,7,20)    =   -179.750489    -0.000000    -0.010928  -179.761416
	   85 D(9,3,1,14)     =    179.173595    -0.000000     0.004728   179.178323
	   86 D(9,10,5,18)    =     -4.581129    -0.000001    -0.016331    -4.597460
	   87 D(9,10,6,19)    =      1.833324     0.000001     0.003050     1.836374
	   88 D(9,11,4,17)    =    179.726706    -0.000000    -0.043180   179.683526
	   89 D(10,5,7,12)    =     -0.407710    -0.000000     0.037134    -0.370576
	   90 D(10,5,7,20)    =    179.448929    -0.000000    -0.015209   179.433720
	   91 D(10,6,8,12)    =     -0.047248     0.000000    -0.050318    -0.097566
	   92 D(10,6,8,21)    =    179.715802     0.000000     0.009973   179.725775
	   93 D(10,9,3,16)    =     -3.514215    -0.000001    -0.023349    -3.537564
	   94 D(10,9,11,13)   =     -0.180358     0.000000    -0.047967    -0.228325
	   95 D(11,4,2,15)    =   -179.800263     0.000000     0.013976  -179.786287
	   96 D(11,9,3,16)    =    178.686104     0.000000     0.004599   178.690703
	   97 D(12,7,5,18)    =   -178.517085    -0.000000     0.039462  -178.477623
	   98 D(12,8,6,19)    =   -178.936686     0.000000    -0.034003  -178.970689
	   99 D(13,11,4,17)   =      1.351289     0.000000     0.071764     1.423053
	  100 D(14,1,2,15)    =      0.308566    -0.000000    -0.006768     0.301797
	  101 D(14,1,3,16)    =      1.339397    -0.000000     0.001422     1.340819
	  102 D(15,2,4,17)    =      0.756250     0.000000     0.001714     0.757964
	  103 D(18,5,7,20)    =      1.339554    -0.000000    -0.012881     1.326673
	  104 D(19,6,8,21)    =      0.826364     0.000000     0.026288     0.852652
	  105 R(6,13)         =      2.828153     0.000040    -0.000202     2.827951
	 ---------------------------------------------------------------------------
	Successfully symmetrized geometry.
	 Forces used to impose fixed constraints are not included.
	  Forces zeroed: 67 

  ==> Convergence Check <==

  Measures of convergence in internal coordinates in au.
  Criteria marked as inactive (o), active & met (*), and active & unmet ( ).
  ---------------------------------------------------------------------------------------------
   Step     Total Energy     Delta E     MAX Force     RMS Force      MAX Disp      RMS Disp   
  ---------------------------------------------------------------------------------------------
    Convergence Criteria    1.00e-06 *    3.00e-04 *             o    1.20e-03 *             o
  ---------------------------------------------------------------------------------------------
      8    -577.72760182    7.86e-07 *    1.09e-04 *    2.40e-05 o    1.33e-03      3.95e-04 o  ~
  ---------------------------------------------------------------------------------------------


  **** Optimization is complete! (in 8 steps) ****

  ==> Optimization Summary <==

  Measures of convergence in internal coordinates in au.
  --------------------------------------------------------------------------------------------------------------- ~
   Step         Total Energy             Delta E       MAX Force       RMS Force        MAX Disp        RMS Disp  ~
  --------------------------------------------------------------------------------------------------------------- ~
      1    -577.721911973388   -577.721911973388      0.01637628      0.00496550      0.03845758      0.00977249  ~
      2    -577.725366822741     -0.003454849353      0.00818467      0.00207417      0.07116430      0.00977187  ~
      3    -577.726670728735     -0.001303905994      0.00562611      0.00082682      0.08134411      0.00977335  ~
      4    -577.727229545426     -0.000558816691      0.00338327      0.00041228      0.08113453      0.00977349  ~
      5    -577.727508672070     -0.000279126644      0.00158821      0.00020946      0.06698502      0.00846814  ~
      6    -577.727599207220     -0.000090535150      0.00062971      0.00011098      0.01484924      0.00179028  ~
      7    -577.727602604231     -0.000003397011      0.00024625      0.00004666      0.00222560      0.00041811  ~
      8    -577.727601818648      0.000000785583      0.00017738      0.00002962      0.00133106      0.00039508  ~
  --------------------------------------------------------------------------------------------------------------- ~

	Writing optimization data to binary file.
	Final energy is   -577.7276018186479
	Final (previous) structure:
	Cartesian Geometry (in Angstrom)
	    C    -1.3504627173   0.8670394600  -2.6612597743
	    C    -2.4520096517   1.4181165976  -2.0214646365
	    C    -0.3359920349   0.2905343648  -1.9157529026
	    C    -2.5301101359   1.3837698550  -0.6381578668
	    C     1.4027905824  -1.4640722462  -0.2989159119
	    C     1.1071290089   0.0605444224   1.4921020473
	    C     2.4507967640  -2.0242276569   0.4122170809
	    C     2.1709602081  -0.5616676183   2.1257414863
	    C    -0.3777776669   0.2493472192  -0.5198627424
	    C     0.6945093915  -0.3929657622   0.2412540552
	    C    -1.5042958248   0.8040774052   0.0795520610
	    N     2.8463554132  -1.5917358899   1.6115107515
	    F    -1.6336253681   0.7544378898   1.4198136867
	    H    -1.2775742726   0.8923342369  -3.7369581231
	    H    -3.2473407241   1.8720061854  -2.5916610792
	    H     0.5315983624  -0.1104237108  -2.4168237204
	    H    -3.3745695552   1.7895803367  -0.1051336373
	    H     1.1232464435  -1.8822043494  -1.2537189702
	    H     0.6218048604   0.8985132451   1.9633195724
	    H     2.9970972569  -2.8612182187   0.0003759305
	    H     2.4988236202  -0.2114890471   3.0943550637
	Saving final (previous) structure.
			--------------------------
			 OPTKING Finished Execution 
			--------------------------

    Final optimized geometry and variables:
    Molecular point group: c1
    Full point group: C1

    Geometry (in Angstrom), charge = 0, multiplicity = 1:

    C           -1.350462717259     0.867039460004    -2.661259774282
    C           -2.452009651740     1.418116597586    -2.021464636460
    C           -0.335992034949     0.290534364772    -1.915752902576
    C           -2.530110135929     1.383769854951    -0.638157866794
    C            1.402790582413    -1.464072246218    -0.298915911937
    C            1.107129008891     0.060544422426     1.492102047304
    C            2.450796764011    -2.024227656930     0.412217080949
    C            2.170960208147    -0.561667618297     2.125741486316
    C           -0.377777666874     0.249347219242    -0.519862742371
    C            0.694509391521    -0.392965762171     0.241254055201
    C           -1.504295824802     0.804077405185     0.079552060952
    N            2.846355413165    -1.591735889946     1.611510751513
    F           -1.633625368135     0.754437889837     1.419813686750
    H           -1.277574272598     0.892334236949    -3.736958123088
    H           -3.247340724140     1.872006185410    -2.591661079234
    H            0.531598362368    -0.110423710762    -2.416823720359
    H           -3.374569555216     1.789580336703    -0.105133637325
    H            1.123246443520    -1.882204349381    -1.253718970224
    H            0.621804860377     0.898513245107     1.963319572418
    H            2.997097256861    -2.861218218683     0.000375930451
    H            2.498823620164    -0.211489047123     3.094355063660

	Cleaning optimization helper files.

*** Psi4 exiting successfully. Buy a developer a beer!
