
    -----------------------------------------------------------------------
          Psi4: An Open-Source Ab Initio Electronic Structure Package
                               Psi4 1.1 release

                         Git: Rev {HEAD} add49b9 


    R. M. Parrish, L. A. Burns, D. G. A. Smith, A. C. Simmonett,
    A. E. DePrince III, E. G. Hohenstein, U. Bozkaya, A. Yu. Sokolov,
    R. Di Remigio, R. M. Richard, J. F. Gonthier, A. M. James,
    H. R. McAlexander, A. Kumar, M. Saitow, X. Wang, B. P. Pritchard,
    P. Verma, H. F. Schaefer III, K. Patkowski, R. A. King, E. F. Valeev,
    F. A. Evangelista, J. M. Turney, T. D. Crawford, and C. D. Sherrill,
    J. Chem. Theory Comput. in press (2017).
    (doi: 10.1021/acs.jctc.7b00174)

    -----------------------------------------------------------------------


    Psi4 started on: Saturday, 11 November 2017 11:49PM

    Process ID:  12204
    PSIDATADIR: /cbio/jclab/home/chayas/anaconda/envs/py35/share/psi4
    Memory:     500.0 MiB
    Threads:    8
    
  ==> Input File <==

--------------------------------------------------------------------------

memory 5 Gb

molecule phepyrFOH_neutral {
  symmetry C1
  0 1 
  C      1.885   -1.036   -0.112
  C      0.807   -0.463   0.561
  C      3.825   -3.269   -0.988
  C      5.328   -1.753   0.119
  C      1.800   -1.079   2.676
  C      4.927   -3.802   -1.637
  C      6.363   -2.354   -0.579
  C      2.921   -1.631   0.608
  C      4.038   -2.225   -0.095
  C      0.764   -0.484   1.955
  C      2.878   -1.652   2.002
  N      6.195   -3.370   -1.455
  O      -0.289   0.076   2.612
  F      3.866   -2.220   2.709
  H      1.904   -1.012   -1.199
  H      0.002   -0.002   -0.006
  H      2.833   -3.663   -1.183
  H      5.532   -0.940   0.809
  H      1.772   -1.099   3.762
  H      4.814   -4.616   -2.345
  H      7.387   -2.023   -0.446
  H      0.027   0.613   3.356
  units Angstrom
}

dih_string = "2 10 13 22 225"
set optking fixed_dihedral = $dih_string

optimize('MP2/aug-cc-PVTZ')
--------------------------------------------------------------------------

  Memory set to   4.657 GiB by Python driver.
gradient() will perform analytic gradient computation.

*** tstart() called on gpu-1-17.local
*** at Sat Nov 11 23:49:42 2017

    SCF Algorithm Type (re)set to DF.

*** tstart() called on gpu-1-17.local
*** at Sat Nov 11 23:49:42 2017

   => Loading Basis Set <=

    Name: AUG-CC-PVTZ
    Role: ORBITAL
    Keyword: BASIS
    atoms 1-11  entry C          line   221 file /cbio/jclab/home/chayas/anaconda/envs/py35/share/psi4/basis/aug-cc-pvtz.gbs 
    atoms 12    entry N          line   267 file /cbio/jclab/home/chayas/anaconda/envs/py35/share/psi4/basis/aug-cc-pvtz.gbs 
    atoms 13    entry O          line   313 file /cbio/jclab/home/chayas/anaconda/envs/py35/share/psi4/basis/aug-cc-pvtz.gbs 
    atoms 14    entry F          line   359 file /cbio/jclab/home/chayas/anaconda/envs/py35/share/psi4/basis/aug-cc-pvtz.gbs 
    atoms 15-22 entry H          line    34 file /cbio/jclab/home/chayas/anaconda/envs/py35/share/psi4/basis/aug-cc-pvtz.gbs 


         ---------------------------------------------------------
                                   SCF
            by Justin Turney, Rob Parrish, and Andy Simmonett
                              RHF Reference
                        8 Threads,   4768 MiB Core
         ---------------------------------------------------------

  ==> Geometry <==

    Molecular point group: c1
    Full point group: C1

    Geometry (in Angstrom), charge = 0, multiplicity = 1:

       Center              X                  Y                   Z               Mass       
    ------------   -----------------  -----------------  -----------------  -----------------
           C         -1.322820239597     0.751637307478    -0.798348850095    12.000000000000
           C         -2.400820239597     1.324637307478    -0.125348850095    12.000000000000
           C          0.617179760403    -1.481362692522    -1.674348850095    12.000000000000
           C          2.120179760403     0.034637307478    -0.567348850095    12.000000000000
           C         -1.407820239597     0.708637307478     1.989651149905    12.000000000000
           C          1.719179760403    -2.014362692522    -2.323348850095    12.000000000000
           C          3.155179760403    -0.566362692522    -1.265348850095    12.000000000000
           C         -0.286820239597     0.156637307478    -0.078348850095    12.000000000000
           C          0.830179760403    -0.437362692522    -0.781348850095    12.000000000000
           C         -2.443820239597     1.303637307478     1.268651149905    12.000000000000
           C         -0.329820239597     0.135637307478     1.315651149905    12.000000000000
           N          2.987179760403    -1.582362692522    -2.141348850095    14.003074004780
           O         -3.496820239597     1.863637307478     1.925651149905    15.994914619560
           F          0.658179760403    -0.432362692522     2.022651149905    18.998403224000
           H         -1.303820239597     0.775637307478    -1.885348850095     1.007825032070
           H         -3.205820239597     1.785637307478    -0.692348850095     1.007825032070
           H         -0.374820239597    -1.875362692522    -1.869348850095     1.007825032070
           H          2.324179760403     0.847637307478     0.122651149905     1.007825032070
           H         -1.435820239597     0.688637307478     3.075651149905     1.007825032070
           H          1.606179760403    -2.828362692522    -3.031348850095     1.007825032070
           H          4.179179760403    -0.235362692522    -1.132348850095     1.007825032070
           H         -3.180820239597     2.400637307478     2.669651149905     1.007825032070

  Running in c1 symmetry.

  Rotational constants: A =      0.06323  B =      0.01307  C =      0.01165 [cm^-1]
  Rotational constants: A =   1895.58859  B =    391.89346  C =    349.27298 [MHz]
  Nuclear repulsion =  813.944250070397061

  Charge       = 0
  Multiplicity = 1
  Electrons    = 98
  Nalpha       = 49
  Nbeta        = 49

  ==> Algorithm <==

  SCF Algorithm Type is DF.
  DIIS enabled.
  MOM disabled.
  Fractional occupation disabled.
  Guess Type is SAD.
  Energy threshold   = 1.00e-10
  Density threshold  = 1.00e-10
  Integral threshold = 0.00e+00

  ==> Primary Basis <==

  Basis Set: AUG-CC-PVTZ
    Blend: AUG-CC-PVTZ
    Number of shells: 268
    Number of basis function: 828
    Number of Cartesian functions: 970
    Spherical Harmonics?: true
    Max angular momentum: 3

   => Loading Basis Set <=

    Name: (AUG-CC-PVTZ AUX)
    Role: JKFIT
    Keyword: DF_BASIS_SCF
    atoms 1-11  entry C          line   161 file /cbio/jclab/home/chayas/anaconda/envs/py35/share/psi4/basis/aug-cc-pvtz-jkfit.gbs 
    atoms 12    entry N          line   223 file /cbio/jclab/home/chayas/anaconda/envs/py35/share/psi4/basis/aug-cc-pvtz-jkfit.gbs 
    atoms 13    entry O          line   285 file /cbio/jclab/home/chayas/anaconda/envs/py35/share/psi4/basis/aug-cc-pvtz-jkfit.gbs 
    atoms 14    entry F          line   347 file /cbio/jclab/home/chayas/anaconda/envs/py35/share/psi4/basis/aug-cc-pvtz-jkfit.gbs 
    atoms 15-22 entry H          line    69 file /cbio/jclab/home/chayas/anaconda/envs/py35/share/psi4/basis/aug-cc-pvtz-jkfit.gbs 

  ==> Pre-Iterations <==

   -------------------------------------------------------
    Irrep   Nso     Nmo     Nalpha   Nbeta   Ndocc  Nsocc
   -------------------------------------------------------
     A        828     828       0       0       0       0
   -------------------------------------------------------
    Total     828     828      49      49      49       0
   -------------------------------------------------------

  ==> Integral Setup <==

  ==> DFJK: Density-Fitted J/K Matrices <==

    J tasked:                  Yes
    K tasked:                  Yes
    wK tasked:                  No
    OpenMP threads:              8
    Integrals threads:           8
    Memory (MB):              3576
    Algorithm:                Disk
    Integral Cache:           NONE
    Schwarz Cutoff:          1E-12
    Fitting Condition:       1E-12

   => Auxiliary Basis Set <=

  Basis Set: (AUG-CC-PVTZ AUX)
    Blend: AUG-CC-PVTZ-JKFIT
    Number of shells: 532
    Number of basis function: 1824
    Number of Cartesian functions: 2274
    Spherical Harmonics?: true
    Max angular momentum: 4

  Minimum eigenvalue in the overlap matrix is 7.6816907802E-07.
  Using Symmetric Orthogonalization.

  SCF Guess: Superposition of Atomic Densities via on-the-fly atomic UHF.

  ==> Iterations <==

                           Total Energy        Delta E     RMS |[F,P]|

   @DF-RHF iter   0:  -658.57158013513515   -6.58572e+02   2.06169e-02 
   @DF-RHF iter   1:  -649.80920091127791    8.76238e+00   2.21284e-03 
   @DF-RHF iter   2:  -650.10062855366982   -2.91428e-01   9.10330e-04 DIIS
   @DF-RHF iter   3:  -650.15203756342203   -5.14090e-02   4.81806e-04 DIIS
   @DF-RHF iter   4:  -650.16892069095036   -1.68831e-02   1.33241e-04 DIIS
   @DF-RHF iter   5:  -650.17116385549491   -2.24316e-03   5.74108e-05 DIIS
   @DF-RHF iter   6:  -650.17151320841231   -3.49353e-04   2.18744e-05 DIIS
   @DF-RHF iter   7:  -650.17156567646930   -5.24681e-05   5.81274e-06 DIIS
   @DF-RHF iter   8:  -650.17157227527127   -6.59880e-06   3.41417e-06 DIIS
   @DF-RHF iter   9:  -650.17157422582341   -1.95055e-06   1.59662e-06 DIIS
   @DF-RHF iter  10:  -650.17157492772390   -7.01900e-07   7.12094e-07 DIIS
   @DF-RHF iter  11:  -650.17157504254067   -1.14817e-07   2.55111e-07 DIIS
   @DF-RHF iter  12:  -650.17157505516570   -1.26250e-08   8.16967e-08 DIIS
   @DF-RHF iter  13:  -650.17157505607429   -9.08585e-10   2.54138e-08 DIIS
   @DF-RHF iter  14:  -650.17157505617263   -9.83391e-11   1.03295e-08 DIIS
   @DF-RHF iter  15:  -650.17157505620366   -3.10365e-11   5.14236e-09 DIIS
   @DF-RHF iter  16:  -650.17157505619969    3.97904e-12   2.55742e-09 DIIS
   @DF-RHF iter  17:  -650.17157505621458   -1.48930e-11   1.00692e-09 DIIS
   @DF-RHF iter  18:  -650.17157505622345   -8.86757e-12   5.23643e-10 DIIS
   @DF-RHF iter  19:  -650.17157505622549   -2.04636e-12   1.70990e-10 DIIS
   @DF-RHF iter  20:  -650.17157505621219    1.33014e-11   7.18548e-11 DIIS

  ==> Post-Iterations <==

    Orbital Energies (a.u.)
    -----------------------

    Doubly Occupied:                                                      

       1A    -26.326710     2A    -20.602649     3A    -15.566061  
       4A    -11.348084     5A    -11.323128     6A    -11.275524  
       7A    -11.274840     8A    -11.266125     9A    -11.264037  
      10A    -11.255264    11A    -11.253575    12A    -11.246553  
      13A    -11.240381    14A    -11.239267    15A     -1.644994  
      16A     -1.419077    17A     -1.251165    18A     -1.181749  
      19A     -1.110373    20A     -1.040804    21A     -1.034986  
      22A     -1.019143    23A     -0.890626    24A     -0.875524  
      25A     -0.853673    26A     -0.825052    27A     -0.772315  
      28A     -0.742569    29A     -0.726187    30A     -0.711254  
      31A     -0.699037    32A     -0.665155    33A     -0.661583  
      34A     -0.640255    35A     -0.636561    36A     -0.627405  
      37A     -0.604595    38A     -0.599624    39A     -0.564092  
      40A     -0.540874    41A     -0.533298    42A     -0.524682  
      43A     -0.523069    44A     -0.494950    45A     -0.420110  
      46A     -0.388567    47A     -0.358884    48A     -0.349749  
      49A     -0.328941  

    Virtual:                                                              

      50A      0.021797    51A      0.029194    52A      0.034102  
      53A      0.036619    54A      0.043471    55A      0.046961  
      56A      0.050336    57A      0.056159    58A      0.074785  
      59A      0.081553    60A      0.083585    61A      0.085360  
      62A      0.090196    63A      0.094507    64A      0.096619  
      65A      0.101166    66A      0.105175    67A      0.108224  
      68A      0.109167    69A      0.112898    70A      0.115581  
      71A      0.118140    72A      0.119429    73A      0.126308  
      74A      0.129200    75A      0.131490    76A      0.133197  
      77A      0.135708    78A      0.139896    79A      0.143632  
      80A      0.144657    81A      0.150542    82A      0.152935  
      83A      0.155679    84A      0.156146    85A      0.165940  
      86A      0.172620    87A      0.174086    88A      0.177095  
      89A      0.185676    90A      0.195583    91A      0.201237  
      92A      0.209468    93A      0.213681    94A      0.215129  
      95A      0.226737    96A      0.228522    97A      0.233827  
      98A      0.235108    99A      0.239652   100A      0.241282  
     101A      0.243984   102A      0.249866   103A      0.254995  
     104A      0.255936   105A      0.261075   106A      0.262963  
     107A      0.264679   108A      0.269984   109A      0.275535  
     110A      0.277447   111A      0.281226   112A      0.284749  
     113A      0.292569   114A      0.294835   115A      0.299535  
     116A      0.302662   117A      0.307153   118A      0.312109  
     119A      0.315772   120A      0.318505   121A      0.322215  
     122A      0.325220   123A      0.327253   124A      0.332214  
     125A      0.336506   126A      0.345778   127A      0.347109  
     128A      0.351016   129A      0.354967   130A      0.359606  
     131A      0.364830   132A      0.375542   133A      0.378089  
     134A      0.384465   135A      0.387393   136A      0.394134  
     137A      0.398610   138A      0.405466   139A      0.407127  
     140A      0.410627   141A      0.412641   142A      0.421371  
     143A      0.425875   144A      0.428449   145A      0.432709  
     146A      0.436570   147A      0.443112   148A      0.445084  
     149A      0.448268   150A      0.451987   151A      0.458927  
     152A      0.465672   153A      0.471360   154A      0.472793  
     155A      0.474030   156A      0.475885   157A      0.477223  
     158A      0.482627   159A      0.484443   160A      0.492175  
     161A      0.492950   162A      0.496850   163A      0.500601  
     164A      0.501447   165A      0.504381   166A      0.510509  
     167A      0.510882   168A      0.516841   169A      0.519887  
     170A      0.522536   171A      0.527086   172A      0.529160  
     173A      0.535912   174A      0.538666   175A      0.540036  
     176A      0.546148   177A      0.551422   178A      0.554133  
     179A      0.560151   180A      0.568446   181A      0.572765  
     182A      0.575770   183A      0.581562   184A      0.584900  
     185A      0.587476   186A      0.596033   187A      0.601480  
     188A      0.608851   189A      0.621904   190A      0.623716  
     191A      0.628385   192A      0.635691   193A      0.637948  
     194A      0.641281   195A      0.646084   196A      0.650629  
     197A      0.660397   198A      0.670197   199A      0.672076  
     200A      0.675031   201A      0.680156   202A      0.693834  
     203A      0.703279   204A      0.704039   205A      0.705146  
     206A      0.709820   207A      0.717188   208A      0.726381  
     209A      0.727986   210A      0.732340   211A      0.738382  
     212A      0.742468   213A      0.747486   214A      0.752764  
     215A      0.762498   216A      0.768135   217A      0.774419  
     218A      0.780003   219A      0.787908   220A      0.796689  
     221A      0.796948   222A      0.802226   223A      0.809569  
     224A      0.820327   225A      0.826936   226A      0.828199  
     227A      0.833376   228A      0.839420   229A      0.849955  
     230A      0.852017   231A      0.855884   232A      0.859202  
     233A      0.862653   234A      0.873471   235A      0.877714  
     236A      0.881769   237A      0.888980   238A      0.894052  
     239A      0.895762   240A      0.904023   241A      0.908439  
     242A      0.912460   243A      0.915273   244A      0.923847  
     245A      0.928242   246A      0.932296   247A      0.933209  
     248A      0.941222   249A      0.944879   250A      0.949953  
     251A      0.952753   252A      0.954618   253A      0.959522  
     254A      0.963553   255A      0.967138   256A      0.969697  
     257A      0.976754   258A      0.984657   259A      0.987483  
     260A      0.989837   261A      0.993667   262A      0.998874  
     263A      1.006683   264A      1.012201   265A      1.016198  
     266A      1.019518   267A      1.025592   268A      1.028009  
     269A      1.031398   270A      1.035147   271A      1.043921  
     272A      1.045041   273A      1.049820   274A      1.051684  
     275A      1.063119   276A      1.068409   277A      1.070944  
     278A      1.078902   279A      1.081509   280A      1.083505  
     281A      1.087546   282A      1.090436   283A      1.096357  
     284A      1.109796   285A      1.109857   286A      1.114191  
     287A      1.118300   288A      1.128035   289A      1.130545  
     290A      1.135476   291A      1.140927   292A      1.144771  
     293A      1.145302   294A      1.153017   295A      1.154270  
     296A      1.157271   297A      1.162605   298A      1.170260  
     299A      1.177247   300A      1.181046   301A      1.182451  
     302A      1.187068   303A      1.198283   304A      1.200882  
     305A      1.202545   306A      1.209064   307A      1.212304  
     308A      1.218745   309A      1.223098   310A      1.236642  
     311A      1.239781   312A      1.244131   313A      1.248400  
     314A      1.256815   315A      1.261799   316A      1.267710  
     317A      1.275955   318A      1.281138   319A      1.283370  
     320A      1.293189   321A      1.296761   322A      1.309691  
     323A      1.310745   324A      1.315800   325A      1.323979  
     326A      1.331208   327A      1.340470   328A      1.345516  
     329A      1.353227   330A      1.359568   331A      1.365289  
     332A      1.371104   333A      1.376501   334A      1.385375  
     335A      1.390002   336A      1.393051   337A      1.399966  
     338A      1.402860   339A      1.407335   340A      1.421889  
     341A      1.428968   342A      1.432365   343A      1.446690  
     344A      1.451423   345A      1.460575   346A      1.472537  
     347A      1.483061   348A      1.484109   349A      1.490849  
     350A      1.499929   351A      1.511155   352A      1.517244  
     353A      1.524633   354A      1.540682   355A      1.548127  
     356A      1.557053   357A      1.563275   358A      1.571139  
     359A      1.573214   360A      1.581212   361A      1.587230  
     362A      1.589195   363A      1.600281   364A      1.601588  
     365A      1.619387   366A      1.631688   367A      1.636491  
     368A      1.644135   369A      1.646100   370A      1.653693  
     371A      1.664161   372A      1.670185   373A      1.675158  
     374A      1.681448   375A      1.691664   376A      1.698748  
     377A      1.703626   378A      1.716600   379A      1.720424  
     380A      1.731241   381A      1.733540   382A      1.739606  
     383A      1.744898   384A      1.749851   385A      1.759574  
     386A      1.765568   387A      1.770113   388A      1.781335  
     389A      1.787379   390A      1.793768   391A      1.809311  
     392A      1.815315   393A      1.819145   394A      1.834580  
     395A      1.843466   396A      1.847843   397A      1.851921  
     398A      1.868764   399A      1.883360   400A      1.885177  
     401A      1.889363   402A      1.892547   403A      1.899149  
     404A      1.908440   405A      1.911414   406A      1.925928  
     407A      1.929425   408A      1.936632   409A      1.947340  
     410A      1.954610   411A      1.960331   412A      1.968028  
     413A      1.980787   414A      1.986064   415A      1.989366  
     416A      2.002263   417A      2.009975   418A      2.016560  
     419A      2.019789   420A      2.030052   421A      2.041453  
     422A      2.044847   423A      2.049047   424A      2.053426  
     425A      2.066085   426A      2.077741   427A      2.087040  
     428A      2.088830   429A      2.090198   430A      2.099775  
     431A      2.108347   432A      2.118657   433A      2.127554  
     434A      2.132027   435A      2.137313   436A      2.150832  
     437A      2.162170   438A      2.176665   439A      2.180707  
     440A      2.184585   441A      2.191341   442A      2.196770  
     443A      2.210177   444A      2.218926   445A      2.228539  
     446A      2.242772   447A      2.246381   448A      2.257350  
     449A      2.262675   450A      2.273439   451A      2.276383  
     452A      2.280466   453A      2.297063   454A      2.304154  
     455A      2.309221   456A      2.323976   457A      2.330221  
     458A      2.343339   459A      2.357780   460A      2.359886  
     461A      2.378216   462A      2.382696   463A      2.399030  
     464A      2.413951   465A      2.414878   466A      2.421318  
     467A      2.440739   468A      2.453824   469A      2.460019  
     470A      2.470369   471A      2.476773   472A      2.499496  
     473A      2.509541   474A      2.527955   475A      2.551808  
     476A      2.561057   477A      2.566881   478A      2.581493  
     479A      2.585170   480A      2.587982   481A      2.597959  
     482A      2.603656   483A      2.621109   484A      2.631745  
     485A      2.653634   486A      2.670990   487A      2.689806  
     488A      2.702248   489A      2.714758   490A      2.730929  
     491A      2.736063   492A      2.755611   493A      2.761019  
     494A      2.771110   495A      2.789814   496A      2.813776  
     497A      2.815768   498A      2.832278   499A      2.839438  
     500A      2.865707   501A      2.875403   502A      2.890707  
     503A      2.930455   504A      2.951428   505A      2.960941  
     506A      2.981388   507A      3.002294   508A      3.030454  
     509A      3.043554   510A      3.060133   511A      3.067844  
     512A      3.086222   513A      3.105996   514A      3.109426  
     515A      3.132084   516A      3.148062   517A      3.156491  
     518A      3.177209   519A      3.184725   520A      3.196845  
     521A      3.198382   522A      3.216006   523A      3.223286  
     524A      3.235545   525A      3.258774   526A      3.270888  
     527A      3.283173   528A      3.292671   529A      3.313529  
     530A      3.330406   531A      3.336642   532A      3.340522  
     533A      3.355645   534A      3.366275   535A      3.378842  
     536A      3.397325   537A      3.404087   538A      3.416582  
     539A      3.426196   540A      3.428245   541A      3.437331  
     542A      3.442263   543A      3.447814   544A      3.453150  
     545A      3.460276   546A      3.477674   547A      3.481785  
     548A      3.487944   549A      3.499057   550A      3.512744  
     551A      3.526274   552A      3.539088   553A      3.543629  
     554A      3.547945   555A      3.558261   556A      3.560514  
     557A      3.566188   558A      3.577966   559A      3.580398  
     560A      3.588394   561A      3.599846   562A      3.606203  
     563A      3.619710   564A      3.628170   565A      3.633259  
     566A      3.642960   567A      3.652130   568A      3.655741  
     569A      3.667161   570A      3.676868   571A      3.688825  
     572A      3.695967   573A      3.708572   574A      3.724219  
     575A      3.735936   576A      3.737186   577A      3.740918  
     578A      3.751110   579A      3.764914   580A      3.778189  
     581A      3.780106   582A      3.786057   583A      3.800376  
     584A      3.810251   585A      3.816761   586A      3.823863  
     587A      3.833903   588A      3.840580   589A      3.855050  
     590A      3.862362   591A      3.869067   592A      3.878422  
     593A      3.885702   594A      3.901553   595A      3.901963  
     596A      3.914408   597A      3.923335   598A      3.931807  
     599A      3.942410   600A      3.944088   601A      3.948452  
     602A      3.956101   603A      3.961192   604A      3.970217  
     605A      3.974050   606A      3.984874   607A      3.994968  
     608A      4.005655   609A      4.019558   610A      4.027146  
     611A      4.037363   612A      4.039235   613A      4.047418  
     614A      4.063639   615A      4.076166   616A      4.081819  
     617A      4.088376   618A      4.097498   619A      4.108017  
     620A      4.113383   621A      4.130703   622A      4.139788  
     623A      4.144678   624A      4.157652   625A      4.160107  
     626A      4.178497   627A      4.188197   628A      4.190512  
     629A      4.198404   630A      4.211260   631A      4.217765  
     632A      4.229092   633A      4.231993   634A      4.241002  
     635A      4.255728   636A      4.259616   637A      4.277332  
     638A      4.290920   639A      4.298295   640A      4.306380  
     641A      4.315521   642A      4.317240   643A      4.336143  
     644A      4.341498   645A      4.349277   646A      4.354664  
     647A      4.365147   648A      4.371636   649A      4.386158  
     650A      4.398733   651A      4.407567   652A      4.410592  
     653A      4.420120   654A      4.427075   655A      4.439883  
     656A      4.448388   657A      4.459616   658A      4.463816  
     659A      4.475629   660A      4.489824   661A      4.495058  
     662A      4.512101   663A      4.519779   664A      4.533015  
     665A      4.540750   666A      4.566509   667A      4.570747  
     668A      4.584271   669A      4.590546   670A      4.599900  
     671A      4.620655   672A      4.623873   673A      4.630233  
     674A      4.641816   675A      4.660028   676A      4.683078  
     677A      4.694860   678A      4.710174   679A      4.724701  
     680A      4.731924   681A      4.752715   682A      4.761889  
     683A      4.763599   684A      4.778222   685A      4.804335  
     686A      4.806950   687A      4.825416   688A      4.836736  
     689A      4.855752   690A      4.877629   691A      4.894238  
     692A      4.916228   693A      4.921567   694A      4.940127  
     695A      4.948999   696A      4.968114   697A      4.974387  
     698A      4.978749   699A      4.989653   700A      4.997410  
     701A      5.015881   702A      5.026129   703A      5.032212  
     704A      5.036547   705A      5.049799   706A      5.058882  
     707A      5.070154   708A      5.093486   709A      5.099590  
     710A      5.112343   711A      5.121566   712A      5.137166  
     713A      5.147658   714A      5.157177   715A      5.172158  
     716A      5.177821   717A      5.184952   718A      5.190306  
     719A      5.192245   720A      5.204533   721A      5.231705  
     722A      5.259003   723A      5.280540   724A      5.301010  
     725A      5.319749   726A      5.327420   727A      5.348719  
     728A      5.352237   729A      5.368171   730A      5.379284  
     731A      5.398590   732A      5.405219   733A      5.437785  
     734A      5.455126   735A      5.466591   736A      5.468176  
     737A      5.485637   738A      5.513727   739A      5.519727  
     740A      5.554198   741A      5.568183   742A      5.581224  
     743A      5.608326   744A      5.629728   745A      5.657215  
     746A      5.695998   747A      5.717535   748A      5.733939  
     749A      5.748658   750A      5.767156   751A      5.796317  
     752A      5.807286   753A      5.826573   754A      5.849704  
     755A      5.873978   756A      5.882247   757A      5.908620  
     758A      5.959313   759A      6.006610   760A      6.025286  
     761A      6.080392   762A      6.113672   763A      6.119098  
     764A      6.178157   765A      6.227731   766A      6.258565  
     767A      6.289027   768A      6.298424   769A      6.307963  
     770A      6.334079   771A      6.369350   772A      6.452822  
     773A      6.488869   774A      6.505654   775A      6.531446  
     776A      6.570288   777A      6.684550   778A      6.696255  
     779A      6.703705   780A      6.714088   781A      6.733022  
     782A      6.814002   783A      6.869994   784A      6.914700  
     785A      6.924912   786A      6.927767   787A      6.955368  
     788A      7.052503   789A      7.073081   790A      7.119429  
     791A      7.246349   792A      7.295465   793A      7.389826  
     794A      7.416097   795A      7.439188   796A      7.533392  
     797A      7.616621   798A      7.663986   799A      7.792573  
     800A      7.906402   801A      8.279067   802A      8.589858  
     803A      9.003280   804A      9.045288   805A      9.268039  
     806A      9.289044   807A      9.405592   808A      9.516400  
     809A      9.539851   810A      9.587097   811A      9.639245  
     812A      9.714581   813A     10.028247   814A     10.074497  
     815A     15.524825   816A     16.148731   817A     16.491150  
     818A     16.588058   819A     16.680186   820A     16.969226  
     821A     18.455742   822A     18.694492   823A     19.160017  
     824A     19.703210   825A     20.149089   826A     20.197622  
     827A     20.424566   828A     21.768773  

    Final Occupation by Irrep:
              A 
    DOCC [    49 ]

  Energy converged.

  @DF-RHF Final Energy:  -650.17157505621219

   => Energetics <=

    Nuclear Repulsion Energy =            813.9442500703970609
    One-Electron Energy =               -2502.7454122097951768
    Two-Electron Energy =                1038.6295870831856973
    DFT Exchange-Correlation Energy =       0.0000000000000000
    Empirical Dispersion Energy =           0.0000000000000000
    PCM Polarization Energy =               0.0000000000000000
    EFP Energy =                            0.0000000000000000
    Total Energy =                       -650.1715750562123048



Properties will be evaluated at   0.000000,   0.000000,   0.000000 Bohr

Properties computed using the SCF density matrix

  Nuclear Dipole Moment: (a.u.)
     X:    -1.9509      Y:     1.8830      Z:    -4.4639

  Electronic Dipole Moment: (a.u.)
     X:     1.1387      Y:    -0.9770      Z:     4.9463

  Dipole Moment: (a.u.)
     X:    -0.8123      Y:     0.9060      Z:     0.4824     Total:     1.3089

  Dipole Moment: (Debye)
     X:    -2.0646      Y:     2.3028      Z:     1.2261     Total:     3.3270


*** tstop() called on gpu-1-17.local at Sat Nov 11 23:57:57 2017
Module time:
	user time   =    1170.17 seconds =      19.50 minutes
	system time =      54.48 seconds =       0.91 minutes
	total time  =        495 seconds =       8.25 minutes
Total time:
	user time   =    1170.17 seconds =      19.50 minutes
	system time =      54.48 seconds =       0.91 minutes
	total time  =        495 seconds =       8.25 minutes

  //>>>>>>>>>>>>>>>>>>>>>>>>>>>>>>>>>>>//
  //               DFMP2               //
  //<<<<<<<<<<<<<<<<<<<<<<<<<<<<<<<<<<<//

   => Loading Basis Set <=

    Name: (AUG-CC-PVTZ AUX)
    Role: RIFIT
    Keyword: DF_BASIS_MP2
    atoms 1-11  entry C          line   147 file /cbio/jclab/home/chayas/anaconda/envs/py35/share/psi4/basis/aug-cc-pvtz-ri.gbs 
    atoms 12    entry N          line   205 file /cbio/jclab/home/chayas/anaconda/envs/py35/share/psi4/basis/aug-cc-pvtz-ri.gbs 
    atoms 13    entry O          line   263 file /cbio/jclab/home/chayas/anaconda/envs/py35/share/psi4/basis/aug-cc-pvtz-ri.gbs 
    atoms 14    entry F          line   321 file /cbio/jclab/home/chayas/anaconda/envs/py35/share/psi4/basis/aug-cc-pvtz-ri.gbs 
    atoms 15-22 entry H          line    29 file /cbio/jclab/home/chayas/anaconda/envs/py35/share/psi4/basis/aug-cc-pvtz-ri.gbs 

	 --------------------------------------------------------
	                          DF-MP2                         
	      2nd-Order Density-Fitted Moller-Plesset Theory     
	              RMP2 Wavefunction,   8 Threads             
	                                                         
	        Rob Parrish, Justin Turney, Andy Simmonett,      
	           Ed Hohenstein, and C. David Sherrill          
	 --------------------------------------------------------

   => Auxiliary Basis Set <=

  Basis Set: (AUG-CC-PVTZ AUX)
    Blend: AUG-CC-PVTZ-RI
    Number of shells: 504
    Number of basis function: 1852
    Number of Cartesian functions: 2344
    Spherical Harmonics?: true
    Max angular momentum: 4

	 --------------------------------------------------------
	                 NBF =   828, NAUX =  1852
	 --------------------------------------------------------
	   CLASS    FOCC     OCC    AOCC    AVIR     VIR    FVIR
	   PAIRS       0      49      49     779     779       0
	 --------------------------------------------------------


         ------------------------------------------------------------
                                     CPHF                           
                                  Rob Parrish                       
         ------------------------------------------------------------

  ==> Geometry <==

    Molecular point group: c1
    Full point group: C1

    Geometry (in Angstrom), charge = 0, multiplicity = 1:

       Center              X                  Y                   Z               Mass       
    ------------   -----------------  -----------------  -----------------  -----------------
           C         -1.322820239597     0.751637307478    -0.798348850095    12.000000000000
           C         -2.400820239597     1.324637307478    -0.125348850095    12.000000000000
           C          0.617179760403    -1.481362692522    -1.674348850095    12.000000000000
           C          2.120179760403     0.034637307478    -0.567348850095    12.000000000000
           C         -1.407820239597     0.708637307478     1.989651149905    12.000000000000
           C          1.719179760403    -2.014362692522    -2.323348850095    12.000000000000
           C          3.155179760403    -0.566362692522    -1.265348850095    12.000000000000
           C         -0.286820239597     0.156637307478    -0.078348850095    12.000000000000
           C          0.830179760403    -0.437362692522    -0.781348850095    12.000000000000
           C         -2.443820239597     1.303637307478     1.268651149905    12.000000000000
           C         -0.329820239597     0.135637307478     1.315651149905    12.000000000000
           N          2.987179760403    -1.582362692522    -2.141348850095    14.003074004780
           O         -3.496820239597     1.863637307478     1.925651149905    15.994914619560
           F          0.658179760403    -0.432362692522     2.022651149905    18.998403224000
           H         -1.303820239597     0.775637307478    -1.885348850095     1.007825032070
           H         -3.205820239597     1.785637307478    -0.692348850095     1.007825032070
           H         -0.374820239597    -1.875362692522    -1.869348850095     1.007825032070
           H          2.324179760403     0.847637307478     0.122651149905     1.007825032070
           H         -1.435820239597     0.688637307478     3.075651149905     1.007825032070
           H          1.606179760403    -2.828362692522    -3.031348850095     1.007825032070
           H          4.179179760403    -0.235362692522    -1.132348850095     1.007825032070
           H         -3.180820239597     2.400637307478     2.669651149905     1.007825032070

  Nuclear repulsion =  813.944250070397061
  Reference energy  = -650.171575056212191

  ==> Basis Set <==

  Basis Set: AUG-CC-PVTZ
    Blend: AUG-CC-PVTZ
    Number of shells: 268
    Number of basis function: 828
    Number of Cartesian functions: 970
    Spherical Harmonics?: true
    Max angular momentum: 3

  ==> CGRSolver (by Rob Parrish) <==

   Number of roots    =         1
   Preconditioning    =    JACOBI
   Convergence cutoff =     1E-06
   Maximum iterations =       100

  ==> CPHFRHamiltonian (by Rob Parrish) <== 

  ==> DFJK: Density-Fitted J/K Matrices <==

    J tasked:                  Yes
    K tasked:                  Yes
    wK tasked:                  No
    OpenMP threads:              8
    Integrals threads:           8
    Memory (MB):              3576
    Algorithm:                Disk
    Integral Cache:           NONE
    Schwarz Cutoff:          1E-12
    Fitting Condition:       1E-12

   => Auxiliary Basis Set <=

  Basis Set: (AUG-CC-PVTZ AUX)
    Blend: AUG-CC-PVTZ-JKFIT
    Number of shells: 532
    Number of basis function: 1824
    Number of Cartesian functions: 2274
    Spherical Harmonics?: true
    Max angular momentum: 4

  ==> CPHF Iterations <==

  => Iterations <=

             Iter  Converged  Remaining    Residual
  CGR           1          0          1   1.001E-01
  CGR           2          0          1   3.270E-02
  CGR           3          0          1   2.148E-02
  CGR           4          0          1   9.629E-03
  CGR           5          0          1   3.976E-03
  CGR           6          0          1   1.457E-03
  CGR           7          0          1   4.239E-04
  CGR           8          0          1   1.388E-04
  CGR           9          0          1   4.639E-05
  CGR          10          0          1   1.343E-05
  CGR          11          0          1   5.636E-06
  CGR          12          0          1   1.874E-06
  CGR          13          1          0   9.414E-07

    CGRSolver converged.

  ==> DFCorrGrad: Density-Fitted Correlated Gradients <==

    OpenMP threads:              8
    Integrals threads:           8
    Memory (MB):              3576
    Schwarz Cutoff:          0E+00
    Fitting Condition:       1E-12

   => Auxiliary Basis Set <=

  Basis Set: (AUG-CC-PVTZ AUX)
    Blend: AUG-CC-PVTZ-JKFIT
    Number of shells: 532
    Number of basis function: 1824
    Number of Cartesian functions: 2274
    Spherical Harmonics?: true
    Max angular momentum: 4

	-----------------------------------------------------------
	 ==================> DF-MP2 Energies <==================== 
	-----------------------------------------------------------
	 Reference Energy          =    -650.1715750562121912 [Eh]
	 Singles Energy            =      -0.0000000000000002 [Eh]
	 Same-Spin Energy          =      -0.6773073973879425 [Eh]
	 Opposite-Spin Energy      =      -2.0190075584877603 [Eh]
	 Correlation Energy        =      -2.6963149558757027 [Eh]
	 Total Energy              =    -652.8678900120878552 [Eh]
	-----------------------------------------------------------
	 ================> DF-SCS-MP2 Energies <================== 
	-----------------------------------------------------------
	 SCS Same-Spin Scale       =       0.3333333333333333 [-]
	 SCS Opposite-Spin Scale   =       1.2000000000000000 [-]
	 SCS Same-Spin Energy      =      -0.2257691324626475 [Eh]
	 SCS Opposite-Spin Energy  =      -2.4228090701853122 [Eh]
	 SCS Correlation Energy    =      -2.6485782026479598 [Eh]
	 SCS Total Energy          =    -652.8201532588601594 [Eh]
	-----------------------------------------------------------


  -Total Gradient:
     Atom            X                  Y                   Z
    ------   -----------------  -----------------  -----------------
       1        0.010771788481    -0.000816559657    -0.012987889649
       2        0.003315328333     0.000516786628     0.002952422175
       3       -0.007093342841    -0.001047746276     0.002944570178
       4       -0.003781660817     0.005858408028     0.003703582968
       5       -0.007846610650     0.004143789108    -0.000318023264
       6       -0.014068726435    -0.000992141421     0.002605674265
       7       -0.003134548370     0.009487701808     0.008730859231
       8       -0.000808194254     0.000526983474    -0.002438004707
       9       -0.001778294958     0.001066606297    -0.000781978771
      10       -0.014851805309     0.001962227867     0.001770154978
      11        0.020927472262    -0.015339327051     0.005038621028
      12        0.013551622100    -0.006749284463    -0.008467785809
      13        0.005588002998    -0.009201272195    -0.002672902126
      14        0.001494547660    -0.000281082273     0.002398560856
      15       -0.003100200159     0.001275962108    -0.006174798581
      16       -0.003452521094     0.001217196171    -0.005602493763
      17       -0.003128021663    -0.002580619860    -0.002764141524
      18        0.002862979858     0.003659098437     0.002796715993
      19        0.000097290510     0.000797622131     0.004990341092
      20        0.000398460432    -0.001785693438    -0.001996661201
      21        0.002494507786     0.000171117384     0.000084737920
      22        0.001541926126     0.008110227191     0.006188438707


*** tstop() called on gpu-1-17.local at Sun Nov 12 00:35:45 2017
Module time:
	user time   =    5827.26 seconds =      97.12 minutes
	system time =     145.95 seconds =       2.43 minutes
	total time  =       2763 seconds =      46.05 minutes
Total time:
	user time   =    5827.26 seconds =      97.12 minutes
	system time =     145.95 seconds =       2.43 minutes
	total time  =       2763 seconds =      46.05 minutes

			-----------------------------------------
			 OPTKING 2.0: for geometry optimizations 
			  - R.A. King,  Bethel University        
			-----------------------------------------

	Internal coordinates to be generated automatically.
	Detected frag 1 with atoms:  1 2 3 4 5 6 7 8 9 10 11 12 13 14 15 16 17 18 19 20
	 21 22
	---Fragment 1 Bond Connectivity---
	 1 : 2 8 15
	 2 : 1 10 16
	 3 : 6 9 17
	 4 : 7 9 18
	 5 : 10 11 19
	 6 : 3 12 20
	 7 : 4 12 21
	 8 : 1 9 11
	 9 : 3 4 8
	 10 : 2 5 13
	 11 : 5 8 14
	 12 : 6 7
	 13 : 10 22
	 14 : 11
	 15 : 1
	 16 : 2
	 17 : 3
	 18 : 4
	 19 : 5
	 20 : 6
	 21 : 7
	 22 : 13

	Assuming in current code that numbering for constraints corresponds to unified fragment.
	Fixed dihedral atom list: 
	     2    10    13    22
	---Fragment 1 Geometry and Gradient---
	 C          -2.4997679759        1.4203886624       -1.5086606852
	 C          -4.5368927471        2.5032017365       -0.2368749978
	 C           1.1663007219       -2.7993697923       -3.1640607776
	 C           4.0065590996        0.0654550251       -1.0721339485
	 C          -2.6603946972        1.3391304387        3.7598957733
	 C           3.2487789204       -3.8065938212       -4.3904930378
	 C           5.9624256472       -1.0702703807       -2.3911627892
	 C          -0.5420117022        0.2960016133       -0.1480578695
	 C           1.5688123882       -0.8264957096       -1.4765353409
	 C          -4.6181509708        2.4635174877        2.3974032315
	 C          -0.6232699259        0.2563173645        2.4862203597
	 N           5.6449516569       -2.9902321318       -4.0465628816
	 O          -6.6080325888        3.5217641222        3.6389533008
	 F           1.2437794934       -0.8170470789        3.8222567357
	 H          -2.4638631794        1.4657420896       -3.5627929916
	 H          -6.0581222841        3.3743654838       -1.3083497151
	 H          -0.7083076019       -3.5439218887       -3.5325573735
	 H           4.3920632308        1.6018023712        0.2317770832
	 H          -2.7133070289        1.3013359160        5.8121383536
	 H           3.0352398673       -5.3448308933       -5.7284191399
	 H           7.8975052073       -0.4447710308       -2.1398292136
	 H          -6.0108791308        4.5365470555        5.0449095437
	             0.0107717885       -0.0008165597       -0.0129878896
	             0.0033153283        0.0005167866        0.0029524222
	            -0.0070933428       -0.0010477463        0.0029445702
	            -0.0037816608        0.0058584080        0.0037035830
	            -0.0078466106        0.0041437891       -0.0003180233
	            -0.0140687264       -0.0009921414        0.0026056743
	            -0.0031345484        0.0094877018        0.0087308592
	            -0.0008081943        0.0005269835       -0.0024380047
	            -0.0017782950        0.0010666063       -0.0007819788
	            -0.0148518053        0.0019622279        0.0017701550
	             0.0209274723       -0.0153393271        0.0050386210
	             0.0135516221       -0.0067492845       -0.0084677858
	             0.0055880030       -0.0092012722       -0.0026729021
	             0.0014945477       -0.0002810823        0.0023985609
	            -0.0031002002        0.0012759621       -0.0061747986
	            -0.0034525211        0.0012171962       -0.0056024938
	            -0.0031280217       -0.0025806199       -0.0027641415
	             0.0028629799        0.0036590984        0.0027967160
	             0.0000972905        0.0007976221        0.0049903411
	             0.0003984604       -0.0017856934       -0.0019966612
	             0.0024945078        0.0001711174        0.0000847379
	             0.0015419261        0.0081102272        0.0061884387

	Previous optimization step data not found.  Starting new optimization.

	---Fragment 1 Intrafragment Coordinates---
	 - Coordinate -           - BOHR/RAD -       - ANG/DEG -
	 R(1,2)           =         2.634350	       1.394038
	 R(1,8)           =         2.635962	       1.394891
	 R(1,15)          =         2.054947	       1.087431
	 R(2,10)          =         2.635830	       1.394821
	 R(2,16)          =         2.054537	       1.087214
	 R(3,6)           =         2.618273	       1.385530
	 R(3,9)           =         2.627164	       1.390235
	 R(3,17)          =         2.050440	       1.085046
	 R(4,7)           =         2.618229	       1.385507
	 R(4,9)           =         2.627114	       1.390209
	 R(4,18)          =         2.051624	       1.085673
	 R(5,10)          =         2.636938	       1.395407
	 R(5,11)          =         2.635263	       1.394521
	 R(5,19)          =         2.053272	       1.086545
	 R(6,12)          =         2.554678	       1.351877
	 R(6,20)          =         2.049834	       1.084725
	 R(7,12)          =         2.554876	       1.351982
	 R(7,21)          =         2.049134	       1.084355
	 R(8,9)           =         2.735038	       1.447320
	 R(8,11)          =         2.635830	       1.394821
	 R(10,13)         =         2.573123	       1.361638
	 R(11,14)         =         2.534359	       1.341125
	 R(13,22)         =         1.833873	       0.970444
	 B(1,2,10)        =         2.094553	     120.009056
	 B(1,2,16)        =         2.088723	     119.675016
	 B(1,8,9)         =         2.091569	     119.838095
	 B(1,8,11)        =         2.093692	     119.959722
	 B(2,1,8)         =         2.094940	     120.031219
	 B(2,1,15)        =         2.079469	     119.144799
	 B(2,10,5)        =         2.094306	     119.994870
	 B(2,10,13)       =         2.094247	     119.991510
	 B(3,6,12)        =         2.165211	     124.057445
	 B(3,6,20)        =         2.107791	     120.767548
	 B(3,9,4)         =         2.089790	     119.736135
	 B(3,9,8)         =         2.096656	     120.129524
	 B(4,7,12)        =         2.164668	     124.026364
	 B(4,7,21)        =         2.107421	     120.746344
	 B(4,9,8)         =         2.096739	     120.134309
	 B(5,10,13)       =         2.094633	     120.013619
	 B(5,11,8)        =         2.095181	     120.045019
	 B(5,11,14)       =         2.081414	     119.256220
	 B(6,3,9)         =         2.057714	     117.898335
	 B(6,3,17)        =         2.098197	     120.217854
	 B(6,12,7)        =         2.030771	     116.354583
	 B(7,4,9)         =         2.058217	     117.927126
	 B(7,4,18)        =         2.099769	     120.307895
	 B(8,1,15)        =         2.108776	     120.823969
	 B(8,11,14)       =         2.106591	     120.698759
	 B(9,3,17)        =         2.127271	     121.883627
	 B(9,4,18)        =         2.125200	     121.764971
	 B(9,8,11)        =         2.097924	     120.202184
	 B(10,2,16)       =         2.099909	     120.315896
	 B(10,5,11)       =         2.093699	     119.960108
	 B(10,5,19)       =         2.100355	     120.341451
	 B(10,13,22)      =         1.923760	     110.223351
	 B(11,5,19)       =         2.089132	     119.698439
	 B(12,6,20)       =         2.010181	     115.174900
	 B(12,7,21)       =         2.011095	     115.227270
	 D(1,2,10,5)      =        -0.000325	      -0.018609
	 D(1,2,10,13)     =         3.141388	     179.988267
	 D(1,8,9,3)       =        -1.047732	     -60.030615
	 D(1,8,9,4)       =         2.092736	     119.904915
	 D(1,8,11,5)      =         0.000325	       0.018608
	 D(1,8,11,14)     =        -3.141528	    -179.996269
	 D(2,1,8,9)       =         3.141277	     179.981897
	 D(2,1,8,11)      =        -0.000348	      -0.019945
	 D(2,10,5,11)     =         0.000301	       0.017261
	 D(2,10,5,19)     =        -3.141029	    -179.967685
	 D(2,10,13,22)    =        -2.356843	    -135.037154
	 D(3,6,12,7)      =         0.000000	       0.000000
	 D(3,9,4,7)       =        -0.000043	      -0.002444
	 D(3,9,4,18)      =        -3.141070	    -179.970061
	 D(3,9,8,11)      =         2.093893	     119.971231
	 D(4,7,12,6)      =        -0.000490	      -0.028079
	 D(4,9,3,6)       =        -0.000394	      -0.022595
	 D(4,9,3,17)      =        -3.139269	    -179.866889
	 D(4,9,8,11)      =        -1.048825	     -60.093239
	 D(5,10,2,16)     =         3.140149	     179.917291
	 D(5,10,13,22)    =         0.784870	      44.969723
	 D(5,11,8,9)      =        -3.141300	    -179.983240
	 D(6,3,9,8)       =         3.140078	     179.913192
	 D(6,12,7,21)     =         3.140154	     179.917593
	 D(7,4,9,8)       =        -3.140515	    -179.938228
	 D(7,12,6,20)     =         3.139530	     179.881843
	 D(8,1,2,10)      =         0.000348	       0.019955
	 D(8,1,2,16)      =        -3.140133	    -179.916358
	 D(8,9,3,17)      =         0.001202	       0.068898
	 D(8,9,4,18)      =         0.001643	       0.094154
	 D(8,11,5,10)     =        -0.000301	      -0.017270
	 D(8,11,5,19)     =         3.141030	     179.967774
	 D(9,3,6,12)      =         0.000430	       0.024638
	 D(9,3,6,20)      =        -3.138988	    -179.850775
	 D(9,4,7,12)      =         0.000513	       0.029399
	 D(9,4,7,21)      =        -3.140081	    -179.913416
	 D(9,8,1,15)      =         0.000403	       0.023110
	 D(9,8,11,14)     =         0.000033	       0.001883
	 D(10,2,1,15)     =         3.141234	     179.979432
	 D(10,5,11,14)    =         3.141547	     179.997392
	 D(11,5,10,13)    =        -3.141411	    -179.989616
	 D(11,8,1,15)     =        -3.141221	    -179.978731
	 D(12,6,3,17)     =         3.139352	     179.871634
	 D(12,7,4,18)     =         3.141549	     179.997508
	 D(13,10,2,16)    =        -0.001324	      -0.075833
	 D(13,10,5,19)    =         0.000444	       0.025437
	 D(14,11,5,19)    =        -0.000307	      -0.017564
	 D(15,1,2,16)     =         0.000753	       0.043120
	 D(17,3,6,20)     =        -0.000066	      -0.003779
	 D(18,4,7,21)     =         0.000955	       0.054693
	 R(4,14)          =         5.689185	       3.010587

	Current energy   :      -652.8678900121

	Generating empirical Hessian (Schlegel '84) for each fragment.
	Adding user-defined constraint: Fragment 1; Coordinate 69:
		Value =    -2.356843; Fixed value    =    -2.356194
		Force =     0.000324; Force constant =     0.500000
	Removing off-diagonal coupling between coordinate 69 and others.
	Taking RFO optimization step.
	Going to follow RFO solution 1.
	Using RFO vector 1.

	Determining step-restricting scale parameter for RS-RFO.
	Maximum step size allowed    0.10000

	 Iter      |step|        alpha        rfo_root  
	------------------------------------------------
	    0     0.22831       1.00000           1
	    1     0.16818       4.04085           1
	    2     0.13328      11.10009           1
	    3     0.11149      22.98916           1
	    4     0.10189      32.04903           1
	    5     0.10006      34.17242           1
	    6     0.10000      34.24918           1
	------------------------------------------------
	Norm of target step-size    0.10000
	Projected energy change by RFO approximation:        -0.0047938596

	Back-transformation to cartesian coordinates...
	Could not converge backtransformation.
	Using first guess instead.

	--- Internal Coordinate Step in ANG or DEG, aJ/ANG or AJ/DEG ---
	 ---------------------------------------------------------------------------
	   Coordinate                Previous        Force       Change         New 
	   ----------                --------       ------       ------       ------
	    1 R(1,2)          =      1.394038    -0.049881    -0.005101     1.388937
	    2 R(1,8)          =      1.394891    -0.030369    -0.002868     1.392023
	    3 R(1,15)         =      1.087431    -0.050638    -0.006399     1.081032
	    4 R(2,10)         =      1.394821    -0.077709    -0.008035     1.386786
	    5 R(2,16)         =      1.087214    -0.049385    -0.006174     1.081040
	    6 R(3,6)          =      1.385530     0.006171     0.000615     1.386146
	    7 R(3,9)          =      1.390235    -0.018334    -0.001418     1.388818
	    8 R(3,17)         =      1.085046    -0.035374    -0.004445     1.080602
	    9 R(4,7)          =      1.385507     0.001806     0.000162     1.385669
	   10 R(4,9)          =      1.390209    -0.017847    -0.001266     1.388942
	   11 R(4,18)         =      1.085673    -0.041651    -0.005244     1.080429
	   12 R(5,10)         =      1.395407    -0.051835    -0.005407     1.390001
	   13 R(5,11)         =      1.394521    -0.104150    -0.010693     1.383828
	   14 R(5,19)         =      1.086545    -0.040952    -0.005124     1.081421
	   15 R(6,12)         =      1.351877    -0.121170    -0.011345     1.340532
	   16 R(6,20)         =      1.084725    -0.021435    -0.002691     1.082034
	   17 R(7,12)         =      1.351982    -0.117069    -0.010989     1.340993
	   18 R(7,21)         =      1.084355    -0.019924    -0.002492     1.081863
	   19 R(8,9)          =      1.447320     0.131465     0.015807     1.463127
	   20 R(8,11)         =      1.394821    -0.073272    -0.007174     1.387647
	   21 R(10,13)        =      1.361638     0.035148     0.003392     1.365030
	   22 R(11,14)        =      1.341125    -0.021997    -0.001878     1.339247
	   23 R(13,22)        =      0.970444    -0.080198    -0.007461     0.962982
	   24 B(1,2,10)       =    120.009056    -0.000134    -0.253371   119.755685
	   25 B(1,2,16)       =    119.675016     0.000292     0.664936   120.339952
	   26 B(1,8,9)        =    119.838095     0.000635     1.112994   120.951088
	   27 B(1,8,11)       =    119.959722    -0.000900    -1.697180   118.262541
	   28 B(2,1,8)        =    120.031219     0.000468     0.967163   120.998383
	   29 B(2,1,15)       =    119.144799     0.000029     0.142983   119.287782
	   30 B(2,10,5)       =    119.994870    -0.000022    -0.043609   119.951262
	   31 B(2,10,13)      =    119.991510    -0.000463    -0.856250   119.135261
	   32 B(3,6,12)       =    124.057445    -0.000033    -0.127207   123.930238
	   33 B(3,6,20)       =    120.767548    -0.000039    -0.068641   120.698907
	   34 B(3,9,4)        =    119.736135    -0.000822    -1.440027   118.296108
	   35 B(3,9,8)        =    120.129524     0.000404     0.668727   120.798251
	   36 B(4,7,12)       =    124.026364    -0.000013    -0.090922   123.935442
	   37 B(4,7,21)       =    120.746344    -0.000040    -0.065357   120.680987
	   38 B(4,9,8)        =    120.134309     0.000418     0.771262   120.905572
	   39 B(5,10,13)      =    120.013619     0.000485     0.899541   120.913160
	   40 B(5,11,8)       =    120.045019     0.000793     1.448966   121.493985
	   41 B(5,11,14)      =    119.256220    -0.000172    -0.364176   118.892045
	   42 B(6,3,9)        =    117.898335     0.000362     0.784529   118.682865
	   43 B(6,3,17)       =    120.217854    -0.000004     0.029263   120.247117
	   44 B(6,12,7)       =    116.354583     0.000155     0.114675   116.469258
	   45 B(7,4,9)        =    117.927126     0.000351     0.758907   118.686034
	   46 B(7,4,18)       =    120.307895    -0.000022    -0.015008   120.292887
	   47 B(8,1,15)       =    120.823969    -0.000496    -1.110397   119.713572
	   48 B(8,11,14)      =    120.698759    -0.000621    -1.085229   119.613530
	   49 B(9,3,17)       =    121.883627    -0.000358    -0.813670   121.069957
	   50 B(9,4,18)       =    121.764971    -0.000329    -0.743898   121.021073
	   51 B(9,8,11)       =    120.202184     0.000265     0.584186   120.786370
	   52 B(10,2,16)      =    120.315896    -0.000158    -0.411624   119.904272
	   53 B(10,5,11)      =    119.960108    -0.000205    -0.422467   119.537642
	   54 B(10,5,19)      =    120.341451     0.000121     0.253643   120.595094
	   55 B(10,13,22)     =    110.223351    -0.000262    -0.622348   109.601003
	   56 B(11,5,19)      =    119.698439     0.000085     0.168752   119.867190
	   57 B(12,6,20)      =    115.174900     0.000072     0.195954   115.370854
	   58 B(12,7,21)      =    115.227270     0.000053     0.156302   115.383572
	   59 D(1,2,10,5)     =     -0.018609     0.000004     0.107275     0.088666
	   60 D(1,2,10,13)    =    179.988267     0.000018     0.303639   180.291906
	   61 D(1,8,9,3)      =    -60.030615     0.000033     0.616374   -59.414241
	   62 D(1,8,9,4)      =    119.904915     0.000032     0.583692   120.488607
	   63 D(1,8,11,5)     =      0.018608     0.000005     0.105356     0.123963
	   64 D(1,8,11,14)    =   -179.996269    -0.000006    -0.123866  -180.120135
	   65 D(2,1,8,9)      =    179.981897     0.000005     0.096841   180.078737
	   66 D(2,1,8,11)     =     -0.019945     0.000005     0.108523     0.088578
	   67 D(2,10,5,11)    =      0.017261     0.000007     0.101441     0.118703
	   68 D(2,10,5,19)    =   -179.967685     0.000011     0.185181  -179.782504
	   69 D(2,10,13,22)   =   -135.037154    -0.000019    -0.132014  -135.169168
	   70 D(3,6,12,7)     =      0.000000    -0.000001    -0.018495    -0.018495
	   71 D(3,9,4,7)      =     -0.002444     0.000004     0.053966     0.051522
	   72 D(3,9,4,18)     =   -179.970061     0.000000    -0.007220  -179.977281
	   73 D(3,9,8,11)     =    119.971231     0.000032     0.604439   120.575670
	   74 D(4,7,12,6)     =     -0.028079     0.000000     0.005701    -0.022378
	   75 D(4,9,3,6)      =     -0.022595    -0.000004    -0.065881    -0.088477
	   76 D(4,9,3,17)     =   -179.866889    -0.000008    -0.131427  -179.998317
	   77 D(4,9,8,11)     =    -60.093239     0.000032     0.571757   -59.521482
	   78 D(5,10,2,16)    =    179.917291     0.000002     0.062100   179.979391
	   79 D(5,10,13,22)   =     44.969723    -0.000005     0.066364    45.036087
	   80 D(5,11,8,9)     =   -179.983240     0.000006     0.117028  -179.866213
	   81 D(6,3,9,8)      =    179.913192    -0.000004    -0.096338   179.816853
	   82 D(6,12,7,21)    =    179.917593     0.000003     0.054345   179.971938
	   83 D(7,4,9,8)      =   -179.938228     0.000004     0.084527  -179.853702
	   84 D(7,12,6,20)    =    179.881843     0.000005     0.090175   179.972018
	   85 D(8,1,2,10)     =      0.019955    -0.000010    -0.214292    -0.194338
	   86 D(8,1,2,16)     =   -179.916358    -0.000008    -0.168222  -180.084580
	   87 D(8,9,3,17)     =      0.068898    -0.000008    -0.161885    -0.092987
	   88 D(8,9,4,18)     =      0.094154     0.000000     0.023340     0.117495
	   89 D(8,11,5,10)    =     -0.017270    -0.000012    -0.210700    -0.227970
	   90 D(8,11,5,19)    =    179.967774    -0.000016    -0.293809   179.673965
	   91 D(9,3,6,12)     =      0.024638     0.000003     0.050234     0.074872
	   92 D(9,3,6,20)     =   -179.850775    -0.000003    -0.064385  -179.915160
	   93 D(9,4,7,12)     =      0.029399    -0.000002    -0.024325     0.005074
	   94 D(9,4,7,21)     =   -179.913416    -0.000004    -0.075539  -179.988955
	   95 D(9,8,1,15)     =      0.023110    -0.000006    -0.132244    -0.109134
	   96 D(9,8,11,14)    =      0.001883    -0.000005    -0.112194    -0.110312
	   97 D(10,2,1,15)    =    179.979432     0.000001     0.013313   179.992745
	   98 D(10,5,11,14)   =    179.997392    -0.000001     0.017021   180.014413
	   99 D(11,5,10,13)   =   -179.989616    -0.000007    -0.098600  -180.088216
	  100 D(11,8,1,15)    =   -179.978731    -0.000006    -0.120562  -180.099293
	  101 D(12,6,3,17)    =    179.871634     0.000006     0.113842   179.985476
	  102 D(12,7,4,18)    =    179.997508     0.000002     0.036153   180.033661
	  103 D(13,10,2,16)   =     -0.075833     0.000016     0.258464     0.182631
	  104 D(13,10,5,19)   =      0.025437    -0.000003    -0.014860     0.010578
	  105 D(14,11,5,19)   =     -0.017564    -0.000005    -0.066088    -0.083652
	  106 D(15,1,2,16)    =      0.043120     0.000003     0.059383     0.102503
	  107 D(17,3,6,20)    =     -0.003779     0.000000    -0.000777    -0.004555
	  108 D(18,4,7,21)    =      0.054693    -0.000001    -0.015061     0.039633
	  109 R(4,14)         =      3.010587     0.009463     0.002902     3.013489
	 ---------------------------------------------------------------------------
	Successfully symmetrized geometry.
	 Forces used to impose fixed constraints are not included.
	  Forces zeroed: 69 

  ==> Convergence Check <==

  Measures of convergence in internal coordinates in au.
  Criteria marked as inactive (o), active & met (*), and active & unmet ( ).
  --------------------------------------------------------------------------------------------- ~
   Step     Total Energy     Delta E     MAX Force     RMS Force      MAX Disp      RMS Disp    ~
  --------------------------------------------------------------------------------------------- ~
    Convergence Criteria    1.00e-06 *    3.00e-04 *             o    1.20e-03 *             o  ~
  --------------------------------------------------------------------------------------------- ~
      1    -652.86789001   -6.53e+02      1.60e-02      4.56e-03 o    2.99e-02      9.59e-03 o  ~
  ---------------------------------------------------------------------------------------------

	Writing optimization data to binary file.
	Structure for next step:
	Cartesian Geometry (in Angstrom)
	    C    -1.3420969722   0.7554402247  -0.7769297938
	    C    -2.4150925175   1.3285827713  -0.1066057530
	    C     0.6402553764  -1.4805341148  -1.6839517433
	    C     2.1317516919   0.0152826961  -0.5772741948
	    C    -1.4133852587   0.7182472711   1.9919992275
	    C     1.7422046105  -2.0157622780  -2.3325178966
	    C     3.1678611858  -0.5860281393  -1.2736809386
	    C    -0.2945310162   0.1620607563  -0.0781926009
	    C     0.8361080433  -0.4398836384  -0.7853401488
	    C    -2.4506011439   1.3087977584   1.2795844874
	    C    -0.3498584846   0.1556673251   1.3083362667
	    N     2.9997648351  -1.5906110181  -2.1459306254
	    O    -3.5140781527   1.8704474826   1.9252405988
	    F     0.6423307356  -0.4101243026   2.0076380988
	    H    -1.3222022872   0.7750262551  -1.8576010641
	    H    -3.2223324261   1.7877766265  -0.6599169200
	    H    -0.3486950458  -1.8694983446  -1.8798689312
	    H     2.3345021819   0.8220937758   0.1121277449
	    H    -1.4321278299   0.6938643196   3.0729828866
	    H     1.6269820857  -2.8262734106  -3.0400444837
	    H     4.1893392863  -0.2572101700  -1.1362441580
	    H    -3.1991441690   2.4066589183   2.6605152395
			--------------------------
			 OPTKING Finished Execution 
			--------------------------

    Structure for next step:
    Molecular point group: c1
    Full point group: C1

    Geometry (in Angstrom), charge = 0, multiplicity = 1:

    C           -1.340239172085     0.753010432600    -0.775459765567
    C           -2.413234717358     1.326152979212    -0.105135724808
    C            0.642113176545    -1.482963906937    -1.682481715077
    C            2.133609491971     0.012852903945    -0.575804166592
    C           -1.411527458591     0.715817478961     1.993469255680
    C            1.744062410631    -2.018192070124    -2.331047868389
    C            3.169718985947    -0.588457931405    -1.272210910427
    C           -0.292673216046     0.159630964208    -0.076722572738
    C            0.837965843407    -0.442313430490    -0.783870120605
    C           -2.448743343744     1.306367966241     1.281054515601
    C           -0.348000684460     0.153237532972     1.309806294876
    N            3.001622635238    -1.593040810255    -2.144460597185
    O           -3.512220352561     1.868017690520     1.926710627017
    F            0.644188535751    -0.412554094725     2.009108126943
    H           -1.320344487106     0.772596462995    -1.856131035898
    H           -3.220474626024     1.785346834434    -0.658446891844
    H           -0.346837245711    -1.871928136713    -1.878398903054
    H            2.336359982002     0.819663983684     0.113597773108
    H           -1.430270029741     0.691434527500     3.074452914779
    H            1.628839885850    -2.828703202677    -3.038574455543
    H            4.191197086400    -0.259639962073    -1.134774129840
    H           -3.197286368864     2.404229126210     2.661985267678

gradient() will perform analytic gradient computation.

*** tstart() called on gpu-1-17.local
*** at Sun Nov 12 00:35:47 2017

    SCF Algorithm Type (re)set to DF.

*** tstart() called on gpu-1-17.local
*** at Sun Nov 12 00:35:47 2017

   => Loading Basis Set <=

    Name: AUG-CC-PVTZ
    Role: ORBITAL
    Keyword: BASIS
    atoms 1-11  entry C          line   221 file /cbio/jclab/home/chayas/anaconda/envs/py35/share/psi4/basis/aug-cc-pvtz.gbs 
    atoms 12    entry N          line   267 file /cbio/jclab/home/chayas/anaconda/envs/py35/share/psi4/basis/aug-cc-pvtz.gbs 
    atoms 13    entry O          line   313 file /cbio/jclab/home/chayas/anaconda/envs/py35/share/psi4/basis/aug-cc-pvtz.gbs 
    atoms 14    entry F          line   359 file /cbio/jclab/home/chayas/anaconda/envs/py35/share/psi4/basis/aug-cc-pvtz.gbs 
    atoms 15-22 entry H          line    34 file /cbio/jclab/home/chayas/anaconda/envs/py35/share/psi4/basis/aug-cc-pvtz.gbs 


         ---------------------------------------------------------
                                   SCF
            by Justin Turney, Rob Parrish, and Andy Simmonett
                              RHF Reference
                        8 Threads,   4768 MiB Core
         ---------------------------------------------------------

  ==> Geometry <==

    Molecular point group: c1
    Full point group: C1

    Geometry (in Angstrom), charge = 0, multiplicity = 1:

       Center              X                  Y                   Z               Mass       
    ------------   -----------------  -----------------  -----------------  -----------------
           C         -1.340239172085     0.753010432600    -0.775459765567    12.000000000000
           C         -2.413234717358     1.326152979212    -0.105135724808    12.000000000000
           C          0.642113176545    -1.482963906937    -1.682481715077    12.000000000000
           C          2.133609491971     0.012852903945    -0.575804166592    12.000000000000
           C         -1.411527458591     0.715817478961     1.993469255680    12.000000000000
           C          1.744062410631    -2.018192070124    -2.331047868389    12.000000000000
           C          3.169718985947    -0.588457931405    -1.272210910427    12.000000000000
           C         -0.292673216046     0.159630964208    -0.076722572738    12.000000000000
           C          0.837965843407    -0.442313430490    -0.783870120605    12.000000000000
           C         -2.448743343744     1.306367966241     1.281054515601    12.000000000000
           C         -0.348000684460     0.153237532972     1.309806294876    12.000000000000
           N          3.001622635238    -1.593040810255    -2.144460597185    14.003074004780
           O         -3.512220352561     1.868017690520     1.926710627017    15.994914619560
           F          0.644188535751    -0.412554094725     2.009108126943    18.998403224000
           H         -1.320344487106     0.772596462995    -1.856131035898     1.007825032070
           H         -3.220474626024     1.785346834434    -0.658446891844     1.007825032070
           H         -0.346837245711    -1.871928136713    -1.878398903054     1.007825032070
           H          2.336359982002     0.819663983684     0.113597773108     1.007825032070
           H         -1.430270029741     0.691434527500     3.074452914779     1.007825032070
           H          1.628839885850    -2.828703202677    -3.038574455543     1.007825032070
           H          4.191197086400    -0.259639962073    -1.134774129840     1.007825032070
           H         -3.197286368864     2.404229126210     2.661985267678     1.007825032070

  Running in c1 symmetry.

  Rotational constants: A =      0.06436  B =      0.01294  C =      0.01156 [cm^-1]
  Rotational constants: A =   1929.52688  B =    388.05658  C =    346.55604 [MHz]
  Nuclear repulsion =  814.347309521827583

  Charge       = 0
  Multiplicity = 1
  Electrons    = 98
  Nalpha       = 49
  Nbeta        = 49

  ==> Algorithm <==

  SCF Algorithm Type is DF.
  DIIS enabled.
  MOM disabled.
  Fractional occupation disabled.
  Guess Type is READ.
  Energy threshold   = 1.00e-10
  Density threshold  = 1.00e-10
  Integral threshold = 0.00e+00

  ==> Primary Basis <==

  Basis Set: AUG-CC-PVTZ
    Blend: AUG-CC-PVTZ
    Number of shells: 268
    Number of basis function: 828
    Number of Cartesian functions: 970
    Spherical Harmonics?: true
    Max angular momentum: 3

   => Loading Basis Set <=

    Name: (AUG-CC-PVTZ AUX)
    Role: JKFIT
    Keyword: DF_BASIS_SCF
    atoms 1-11  entry C          line   161 file /cbio/jclab/home/chayas/anaconda/envs/py35/share/psi4/basis/aug-cc-pvtz-jkfit.gbs 
    atoms 12    entry N          line   223 file /cbio/jclab/home/chayas/anaconda/envs/py35/share/psi4/basis/aug-cc-pvtz-jkfit.gbs 
    atoms 13    entry O          line   285 file /cbio/jclab/home/chayas/anaconda/envs/py35/share/psi4/basis/aug-cc-pvtz-jkfit.gbs 
    atoms 14    entry F          line   347 file /cbio/jclab/home/chayas/anaconda/envs/py35/share/psi4/basis/aug-cc-pvtz-jkfit.gbs 
    atoms 15-22 entry H          line    69 file /cbio/jclab/home/chayas/anaconda/envs/py35/share/psi4/basis/aug-cc-pvtz-jkfit.gbs 

  Reading orbitals from file 180, no projection.

  ==> Pre-Iterations <==

   -------------------------------------------------------
    Irrep   Nso     Nmo     Nalpha   Nbeta   Ndocc  Nsocc
   -------------------------------------------------------
     A        828     828       0       0       0       0
   -------------------------------------------------------
    Total     828     828      49      49      49       0
   -------------------------------------------------------

  ==> Integral Setup <==

  ==> DFJK: Density-Fitted J/K Matrices <==

    J tasked:                  Yes
    K tasked:                  Yes
    wK tasked:                  No
    OpenMP threads:              8
    Integrals threads:           8
    Memory (MB):              3576
    Algorithm:                Disk
    Integral Cache:           NONE
    Schwarz Cutoff:          1E-12
    Fitting Condition:       1E-12

   => Auxiliary Basis Set <=

  Basis Set: (AUG-CC-PVTZ AUX)
    Blend: AUG-CC-PVTZ-JKFIT
    Number of shells: 532
    Number of basis function: 1824
    Number of Cartesian functions: 2274
    Spherical Harmonics?: true
    Max angular momentum: 4

  Minimum eigenvalue in the overlap matrix is 7.3672780648E-07.
  Using Symmetric Orthogonalization.

  SCF Guess: Orbitals guess was supplied from a previous computation.

  ==> Iterations <==

                           Total Energy        Delta E     RMS |[F,P]|

   @DF-RHF iter   0:  -650.23070146305565   -6.50231e+02   4.79297e-04 
   @DF-RHF iter   1:  -650.17718659987099    5.35149e-02   6.46032e-05 
   @DF-RHF iter   2:  -650.17747652980734   -2.89930e-04   4.38673e-05 DIIS
   @DF-RHF iter   3:  -650.17764361943648   -1.67090e-04   9.47564e-06 DIIS
   @DF-RHF iter   4:  -650.17764974255397   -6.12312e-06   3.80728e-06 DIIS
   @DF-RHF iter   5:  -650.17765154476592   -1.80221e-06   1.47878e-06 DIIS
   @DF-RHF iter   6:  -650.17765191318051   -3.68415e-07   8.69626e-07 DIIS
   @DF-RHF iter   7:  -650.17765204868442   -1.35504e-07   3.49570e-07 DIIS
   @DF-RHF iter   8:  -650.17765208218407   -3.34996e-08   1.30276e-07 DIIS
   @DF-RHF iter   9:  -650.17765208544347   -3.25940e-09   4.78392e-08 DIIS
   @DF-RHF iter  10:  -650.17765208578817   -3.44698e-10   1.20299e-08 DIIS
   @DF-RHF iter  11:  -650.17765208578612    2.04636e-12   4.69159e-09 DIIS
   @DF-RHF iter  12:  -650.17765208579954   -1.34150e-11   1.69477e-09 DIIS
   @DF-RHF iter  13:  -650.17765208579692    2.61480e-12   6.00040e-10 DIIS
   @DF-RHF iter  14:  -650.17765208580090   -3.97904e-12   2.76580e-10 DIIS
   @DF-RHF iter  15:  -650.17765208579624    4.66116e-12   1.70925e-10 DIIS
   @DF-RHF iter  16:  -650.17765208581181   -1.55751e-11   5.55297e-11 DIIS

  ==> Post-Iterations <==

    Orbital Energies (a.u.)
    -----------------------

    Doubly Occupied:                                                      

       1A    -26.324454     2A    -20.602172     3A    -15.564504  
       4A    -11.345458     5A    -11.321589     6A    -11.273816  
       7A    -11.273071     8A    -11.267596     9A    -11.262310  
      10A    -11.255514    11A    -11.251106    12A    -11.243501  
      13A    -11.239744    14A    -11.238493    15A     -1.644622  
      16A     -1.419757    17A     -1.257282    18A     -1.184249  
      19A     -1.111887    20A     -1.042539    21A     -1.035307  
      22A     -1.022759    23A     -0.891001    24A     -0.876187  
      25A     -0.856319    26A     -0.827155    27A     -0.772753  
      28A     -0.743796    29A     -0.727170    30A     -0.710836  
      31A     -0.698612    32A     -0.666591    33A     -0.662609  
      34A     -0.642322    35A     -0.636670    36A     -0.628100  
      37A     -0.605688    38A     -0.598560    39A     -0.564799  
      40A     -0.543675    41A     -0.537121    42A     -0.526217  
      43A     -0.523326    44A     -0.496801    45A     -0.419889  
      46A     -0.391327    47A     -0.359856    48A     -0.349072  
      49A     -0.331364  

    Virtual:                                                              

      50A      0.021918    51A      0.029303    52A      0.034107  
      53A      0.036703    54A      0.043422    55A      0.046988  
      56A      0.050482    57A      0.056189    58A      0.074875  
      59A      0.082202    60A      0.083649    61A      0.085501  
      62A      0.091101    63A      0.094477    64A      0.096661  
      65A      0.101175    66A      0.105458    67A      0.108264  
      68A      0.109248    69A      0.113052    70A      0.115770  
      71A      0.118106    72A      0.119283    73A      0.126426  
      74A      0.129154    75A      0.131574    76A      0.133176  
      77A      0.135754    78A      0.140039    79A      0.143698  
      80A      0.145220    81A      0.150635    82A      0.153392  
      83A      0.155388    84A      0.155964    85A      0.165971  
      86A      0.172575    87A      0.173794    88A      0.176974  
      89A      0.185471    90A      0.195969    91A      0.201491  
      92A      0.209187    93A      0.213460    94A      0.215057  
      95A      0.226618    96A      0.228472    97A      0.233743  
      98A      0.235079    99A      0.239502   100A      0.241222  
     101A      0.244005   102A      0.249374   103A      0.254582  
     104A      0.255734   105A      0.260667   106A      0.263163  
     107A      0.264600   108A      0.270431   109A      0.275838  
     110A      0.277622   111A      0.281455   112A      0.285121  
     113A      0.292365   114A      0.295497   115A      0.299844  
     116A      0.303139   117A      0.307609   118A      0.312501  
     119A      0.316521   120A      0.318857   121A      0.322399  
     122A      0.325142   123A      0.328064   124A      0.333085  
     125A      0.337073   126A      0.346289   127A      0.347191  
     128A      0.351403   129A      0.355557   130A      0.360133  
     131A      0.364880   132A      0.375677   133A      0.378500  
     134A      0.384880   135A      0.387987   136A      0.394840  
     137A      0.398674   138A      0.404974   139A      0.407624  
     140A      0.411980   141A      0.413173   142A      0.422844  
     143A      0.425683   144A      0.428382   145A      0.432864  
     146A      0.437095   147A      0.443664   148A      0.445345  
     149A      0.448757   150A      0.452419   151A      0.458655  
     152A      0.466196   153A      0.471756   154A      0.473500  
     155A      0.475243   156A      0.476123   157A      0.477834  
     158A      0.483589   159A      0.485124   160A      0.492336  
     161A      0.493888   162A      0.497254   163A      0.500516  
     164A      0.501732   165A      0.504871   166A      0.510738  
     167A      0.511833   168A      0.517001   169A      0.519572  
     170A      0.522683   171A      0.528172   172A      0.529877  
     173A      0.536447   174A      0.538307   175A      0.540836  
     176A      0.545273   177A      0.550986   178A      0.555697  
     179A      0.559685   180A      0.567804   181A      0.572097  
     182A      0.575766   183A      0.581817   184A      0.586892  
     185A      0.589413   186A      0.593818   187A      0.600564  
     188A      0.609379   189A      0.621291   190A      0.623497  
     191A      0.628011   192A      0.635248   193A      0.638421  
     194A      0.641286   195A      0.646407   196A      0.651494  
     197A      0.662526   198A      0.670598   199A      0.673130  
     200A      0.675618   201A      0.680028   202A      0.694585  
     203A      0.703096   204A      0.705110   205A      0.706591  
     206A      0.711008   207A      0.718181   208A      0.725584  
     209A      0.728800   210A      0.734299   211A      0.739062  
     212A      0.744061   213A      0.747788   214A      0.752170  
     215A      0.762999   216A      0.768138   217A      0.773942  
     218A      0.781474   219A      0.788696   220A      0.796989  
     221A      0.797408   222A      0.802097   223A      0.810282  
     224A      0.821315   225A      0.827152   226A      0.829079  
     227A      0.836399   228A      0.840295   229A      0.849971  
     230A      0.851856   231A      0.856600   232A      0.858979  
     233A      0.863848   234A      0.874202   235A      0.877992  
     236A      0.881469   237A      0.888785   238A      0.893850  
     239A      0.897593   240A      0.903354   241A      0.909908  
     242A      0.913923   243A      0.915734   244A      0.925779  
     245A      0.929223   246A      0.930811   247A      0.933455  
     248A      0.940055   249A      0.944097   250A      0.950555  
     251A      0.952442   252A      0.956640   253A      0.957729  
     254A      0.965232   255A      0.967843   256A      0.969557  
     257A      0.977462   258A      0.984780   259A      0.987398  
     260A      0.989130   261A      0.994010   262A      0.997431  
     263A      1.006783   264A      1.012568   265A      1.016125  
     266A      1.021340   267A      1.026381   268A      1.028006  
     269A      1.031750   270A      1.035809   271A      1.043158  
     272A      1.043969   273A      1.050504   274A      1.052950  
     275A      1.064405   276A      1.069170   277A      1.070611  
     278A      1.078144   279A      1.080395   280A      1.082604  
     281A      1.088326   282A      1.089667   283A      1.098009  
     284A      1.110009   285A      1.110971   286A      1.112855  
     287A      1.119972   288A      1.127211   289A      1.130006  
[...]
	 B(3,9,8)         =         2.103826	     120.540357
	 B(4,7,12)        =         2.161739	     123.858514
	 B(4,7,21)        =         2.093257	     119.934803
	 B(4,9,8)         =         2.138332	     122.517386
	 B(5,10,13)       =         2.124303	     121.713612
	 B(5,11,8)        =         2.149142	     123.136766
	 B(5,11,14)       =         2.049163	     117.408384
	 B(6,3,9)         =         2.087169	     119.585966
	 B(6,3,17)        =         2.094073	     119.981560
	 B(6,12,7)        =         2.036198	     116.665548
	 B(7,4,9)         =         2.082890	     119.340821
	 B(7,4,18)        =         2.094092	     119.982632
	 B(8,1,15)        =         2.066400	     118.395979
	 B(8,11,14)       =         2.084326	     119.423083
	 B(9,3,17)        =         2.101745	     120.421101
	 B(9,4,18)        =         2.106104	     120.670864
	 B(9,8,11)        =         2.144564	     122.874453
	 B(10,2,16)       =         2.080052	     119.178179
	 B(10,5,11)       =         2.077121	     119.010252
	 B(10,5,19)       =         2.120297	     121.484091
	 B(10,13,22)      =         1.905497	     109.176931
	 B(11,5,19)       =         2.085580	     119.494958
	 B(12,6,20)       =         2.029796	     116.298744
	 B(12,7,21)       =         2.028186	     116.206475
	 D(1,2,10,5)      =         0.012292	       0.704296
	 D(1,2,10,13)     =        -3.114105	    -178.425096
	 D(1,8,9,3)       =        -0.683214	     -39.145251
	 D(1,8,9,4)       =         2.431954	     139.340694
	 D(1,8,11,5)      =         0.009517	       0.545310
	 D(1,8,11,14)     =         3.114373	     178.440410
	 D(2,1,8,9)       =        -3.136529	    -179.709864
	 D(2,1,8,11)      =         0.010614	       0.608138
	 D(2,10,5,11)     =         0.006873	       0.393772
	 D(2,10,5,19)     =        -3.113842	    -178.410028
	 D(2,10,13,22)    =        -2.359297	    -135.177781
	 D(3,6,12,7)      =         0.001063	       0.060892
	 D(3,9,4,7)       =         0.006259	       0.358601
	 D(3,9,4,18)      =         3.132713	     179.491248
	 D(3,9,8,11)      =         2.452449	     140.514993
	 D(4,7,12,6)      =        -0.000264	      -0.015110
	 D(4,9,3,6)       =        -0.005541	      -0.317501
	 D(4,9,3,17)      =         3.114639	     178.455650
	 D(4,9,8,11)      =        -0.715569	     -40.999061
	 D(5,10,2,16)     =        -3.125133	    -179.056909
	 D(5,10,13,22)    =         0.797784	      45.709641
	 D(5,11,8,9)      =        -3.126407	    -179.129902
	 D(6,3,9,8)       =         3.111060	     178.250591
	 D(6,12,7,21)     =        -3.138951	    -179.848639
	 D(7,4,9,8)       =        -3.109808	    -178.178846
	 D(7,12,6,20)     =        -3.134486	    -179.592799
	 D(8,1,2,10)      =        -0.021495	      -1.231590
	 D(8,1,2,16)      =         3.115842	     178.524612
	 D(8,9,3,17)      =        -0.051945	      -2.976258
	 D(8,9,4,18)      =         0.016647	       0.953802
	 D(8,11,5,10)     =        -0.018259	      -1.046180
	 D(8,11,5,19)     =         3.102878	     177.781830
	 D(9,3,6,12)      =         0.001953	       0.111877
	 D(9,3,6,20)      =         3.137283	     179.753101
	 D(9,4,7,12)      =        -0.003527	      -0.202067
	 D(9,4,7,21)      =         3.135058	     179.625582
	 D(9,8,1,15)      =        -0.036537	      -2.093406
	 D(9,8,11,14)     =        -0.021551	      -1.234802
	 D(10,2,1,15)     =        -3.121085	    -178.825016
	 D(10,5,11,14)    =        -3.123807	    -178.980971
	 D(11,5,10,13)    =         3.132754	     179.493566
	 D(11,8,1,15)     =         3.110606	     178.224596
	 D(12,6,3,17)     =        -3.118323	    -178.666741
	 D(12,7,4,18)     =        -3.130087	    -179.340788
	 D(13,10,2,16)    =         0.031655	       1.813700
	 D(13,10,5,19)    =         0.012039	       0.689766
	 D(14,11,5,19)    =        -0.002670	      -0.152960
	 D(15,1,2,16)     =         0.016252	       0.931186
	 D(17,3,6,20)     =         0.017008	       0.974483
	 D(18,4,7,21)     =         0.008497	       0.486861
	 R(4,14)          =         5.433321	       2.875190

	Current energy   :      -652.8729970792

	Energy change for the previous step:
		Projected    :         0.0000001230
		Actual       :         0.0000009634

	Performing BFGS update.
	Previous computed or guess Hessian on step 1.
	Steps to be used in Hessian update: 11 10
	Adding user-defined constraint: Fragment 1; Coordinate 69:
		Value =    -2.359297; Fixed value    =    -2.356190
		Force =     0.002408; Force constant =     0.775000
	Removing off-diagonal coupling between coordinate 69 and others.
	Taking RFO optimization step.
	Going to follow RFO solution 1.
	Rejecting RFO root 1 because normalization gives large value.
	Using RFO vector 2.
	Norm of target step-size    0.00464
	Projected energy change by RFO approximation:        -0.0000001961

	Back-transformation to cartesian coordinates...
	Successfully converged to displaced geometry.

	--- Internal Coordinate Step in ANG or DEG, aJ/ANG or AJ/DEG ---
	 ---------------------------------------------------------------------------
	   Coordinate                Previous        Force       Change         New 
	   ----------                --------       ------       ------       ------
	    1 R(1,2)          =      1.383367    -0.000017    -0.000002     1.383365
	    2 R(1,8)          =      1.395665    -0.000011     0.000012     1.395677
	    3 R(1,15)         =      1.079631     0.000022     0.000017     1.079648
	    4 R(2,10)         =      1.386389     0.000001     0.000009     1.386399
	    5 R(2,16)         =      1.077947     0.000002     0.000005     1.077953
	    6 R(3,6)          =      1.385382     0.000029     0.000005     1.385387
	    7 R(3,9)          =      1.391921    -0.000010     0.000003     1.391923
	    8 R(3,17)         =      1.079607     0.000040     0.000020     1.079627
	    9 R(4,7)          =      1.385599     0.000023     0.000002     1.385601
	   10 R(4,9)          =      1.391851    -0.000072    -0.000026     1.391824
	   11 R(4,18)         =      1.077853     0.000005     0.000028     1.077880
	   12 R(5,10)         =      1.386910    -0.000008     0.000003     1.386913
	   13 R(5,11)         =      1.379101    -0.000025    -0.000012     1.379089
	   14 R(5,19)         =      1.078511    -0.000012     0.000011     1.078522
	   15 R(6,12)         =      1.334745    -0.000100    -0.000018     1.334728
	   16 R(6,20)         =      1.081049    -0.000003     0.000003     1.081052
	   17 R(7,12)         =      1.335142    -0.000028    -0.000015     1.335128
	   18 R(7,21)         =      1.080904    -0.000019     0.000001     1.080904
	   19 R(8,9)          =      1.461393    -0.000053     0.000008     1.461401
	   20 R(8,11)         =      1.388950    -0.000056    -0.000014     1.388936
	   21 R(10,13)        =      1.369037     0.000208     0.000014     1.369051
	   22 R(11,14)        =      1.346663     0.000043     0.000009     1.346672
	   23 R(13,22)        =      0.961269     0.000057     0.000021     0.961290
	   24 B(1,2,10)       =    119.602255    -0.000000    -0.000302   119.601954
	   25 B(1,2,16)       =    121.219125     0.000001     0.000625   121.219749
	   26 B(1,8,9)        =    120.931535    -0.000000    -0.008670   120.922865
	   27 B(1,8,11)       =    116.193203     0.000001     0.003496   116.196700
	   28 B(2,1,8)        =    122.167954    -0.000001    -0.002651   122.165303
	   29 B(2,1,15)       =    119.393691     0.000000     0.004544   119.398235
	   30 B(2,10,5)       =    119.875093     0.000001     0.001162   119.876255
	   31 B(2,10,13)      =    118.405364     0.000000    -0.000080   118.405284
	   32 B(3,6,12)       =    123.622246     0.000000     0.001934   123.624180
	   33 B(3,6,20)       =    120.078107    -0.000000     0.001401   120.079508
	   34 B(3,9,4)        =    116.925962    -0.000000     0.002190   116.928153
	   35 B(3,9,8)        =    120.540357    -0.000001    -0.005731   120.534625
	   36 B(4,7,12)       =    123.858514     0.000000     0.001621   123.860134
	   37 B(4,7,21)       =    119.934803    -0.000000     0.001487   119.936289
	   38 B(4,9,8)        =    122.517386     0.000001     0.003214   122.520600
	   39 B(5,10,13)      =    121.713612    -0.000001    -0.001088   121.712525
	   40 B(5,11,8)       =    123.136766     0.000000    -0.001551   123.135215
	   41 B(5,11,14)      =    117.408384     0.000000     0.001439   117.409823
	   42 B(6,3,9)        =    119.585966     0.000000    -0.002709   119.583257
	   43 B(6,3,17)       =    119.981560     0.000000     0.005188   119.986749
	   44 B(6,12,7)       =    116.665548    -0.000000    -0.001399   116.664150
	   45 B(7,4,9)        =    119.340821    -0.000000    -0.001637   119.339184
	   46 B(7,4,18)       =    119.982632    -0.000000     0.005815   119.988447
	   47 B(8,1,15)       =    118.395979     0.000000    -0.001677   118.394302
	   48 B(8,11,14)      =    119.423083    -0.000000    -0.000216   119.422867
	   49 B(9,3,17)       =    120.421101    -0.000000    -0.002520   120.418581
	   50 B(9,4,18)       =    120.670864     0.000000    -0.004253   120.666612
	   51 B(9,8,11)       =    122.874453    -0.000000     0.005125   122.879578
	   52 B(10,2,16)      =    119.178179    -0.000000    -0.000367   119.177811
	   53 B(10,5,11)      =    119.010252    -0.000001    -0.000107   119.010145
	   54 B(10,5,19)      =    121.484091     0.000000     0.000447   121.484537
	   55 B(10,13,22)     =    109.176931     0.000000     0.003740   109.180670
	   56 B(11,5,19)      =    119.494958     0.000000    -0.000127   119.494831
	   57 B(12,6,20)      =    116.298744    -0.000000    -0.003238   116.295506
	   58 B(12,7,21)      =    116.206475    -0.000000    -0.003130   116.203345
	   59 D(1,2,10,5)     =      0.704296     0.000000     0.008054     0.712350
	   60 D(1,2,10,13)    =   -178.425096    -0.000000     0.008499  -178.416597
	   61 D(1,8,9,3)      =    -39.145251    -0.000000    -0.086189   -39.231440
	   62 D(1,8,9,4)      =    139.340694    -0.000000    -0.101273   139.239421
	   63 D(1,8,11,5)     =      0.545310     0.000000     0.005446     0.550756
	   64 D(1,8,11,14)    =    178.440410     0.000000    -0.005344   178.435066
	   65 D(2,1,8,9)      =   -179.709864    -0.000000    -0.017499  -179.727364
	   66 D(2,1,8,11)     =      0.608138    -0.000000    -0.008133     0.600006
	   67 D(2,10,5,11)    =      0.393772    -0.000000    -0.010590     0.383183
	   68 D(2,10,5,19)    =   -178.410028    -0.000000    -0.022537  -178.432565
	   69 D(2,10,13,22)   =   -135.177781     0.000002     0.018522  -135.159259
	   70 D(3,6,12,7)     =      0.060892     0.000000     0.010464     0.071357
	   71 D(3,9,4,7)      =      0.358601    -0.000000     0.002161     0.360762
	   72 D(3,9,4,18)     =    179.491248    -0.000000    -0.003428   179.487820
	   73 D(3,9,8,11)     =    140.514993    -0.000000    -0.096206   140.418788
	   74 D(4,7,12,6)     =     -0.015110     0.000000     0.000157    -0.014953
	   75 D(4,9,3,6)      =     -0.317501     0.000000     0.007573    -0.309928
	   76 D(4,9,3,17)     =    178.455650     0.000000     0.005427   178.461077
	   77 D(4,9,8,11)     =    -40.999061    -0.000000    -0.111290   -41.110351
	   78 D(5,10,2,16)    =   -179.056909     0.000000     0.019607  -179.037302
	   79 D(5,10,13,22)   =     45.709641     0.000001     0.018955    45.728596
	   80 D(5,11,8,9)     =   -179.129902     0.000000     0.015062  -179.114840
	   81 D(6,3,9,8)      =    178.250591    -0.000000    -0.006669   178.243923
	   82 D(6,12,7,21)    =   -179.848639     0.000000     0.009147  -179.839493
	   83 D(7,4,9,8)      =   -178.178846     0.000000     0.016848  -178.161997
	   84 D(7,12,6,20)    =   -179.592799    -0.000000    -0.008608  -179.601407
	   85 D(8,1,2,10)     =     -1.231590    -0.000000     0.001610    -1.229980
	   86 D(8,1,2,16)     =    178.524612    -0.000000    -0.010187   178.514425
	   87 D(8,9,3,17)     =     -2.976258    -0.000000    -0.008815    -2.985072
	   88 D(8,9,4,18)     =      0.953802    -0.000000     0.011259     0.965060
	   89 D(8,11,5,10)    =     -1.046180     0.000000     0.003766    -1.042414
	   90 D(8,11,5,19)    =    177.781830     0.000000     0.015478   177.797308
	   91 D(9,3,6,12)     =      0.111877    -0.000000    -0.014635     0.097242
	   92 D(9,3,6,20)     =    179.753101     0.000000     0.005110   179.758210
	   93 D(9,4,7,12)     =     -0.202067    -0.000000    -0.006377    -0.208444
	   94 D(9,4,7,21)     =    179.625582    -0.000000    -0.015692   179.609890
	   95 D(9,8,1,15)     =     -2.093406    -0.000000    -0.011313    -2.104720
	   96 D(9,8,11,14)    =     -1.234802     0.000000     0.004272    -1.230530
	   97 D(10,2,1,15)    =   -178.825016    -0.000000    -0.004490  -178.829506
	   98 D(10,5,11,14)   =   -178.980971     0.000000     0.014384  -178.966586
	   99 D(11,5,10,13)   =    179.493566     0.000000    -0.011040   179.482527
	  100 D(11,8,1,15)    =    178.224596    -0.000000    -0.001947   178.222649
	  101 D(12,6,3,17)    =   -178.666741    -0.000000    -0.012403  -178.679144
	  102 D(12,7,4,18)    =   -179.340788     0.000000    -0.000738  -179.341525
	  103 D(13,10,2,16)   =      1.813700    -0.000000     0.020052     1.833751
	  104 D(13,10,5,19)   =      0.689766     0.000000    -0.022987     0.666779
	  105 D(14,11,5,19)   =     -0.152960     0.000000     0.026096    -0.126864
	  106 D(15,1,2,16)    =      0.931186    -0.000000    -0.016288     0.914898
	  107 D(17,3,6,20)    =      0.974483     0.000000     0.007342     0.981824
	  108 D(18,4,7,21)    =      0.486861     0.000000    -0.010053     0.476808
	  109 R(4,14)         =      2.875190    -0.000065     0.001429     2.876619
	 ---------------------------------------------------------------------------
	Successfully symmetrized geometry.
	 Forces used to impose fixed constraints are not included.
	  Forces zeroed: 69 

  ==> Convergence Check <==

  Measures of convergence in internal coordinates in au.
  Criteria marked as inactive (o), active & met (*), and active & unmet ( ).
  ---------------------------------------------------------------------------------------------
   Step     Total Energy     Delta E     MAX Force     RMS Force      MAX Disp      RMS Disp   
  ---------------------------------------------------------------------------------------------
    Convergence Criteria    1.00e-06 *    3.00e-04 *             o    1.20e-03 *             o
  ---------------------------------------------------------------------------------------------
     12    -652.87299708    9.63e-07 *    6.25e-05 *    9.50e-06 o    2.70e-03      4.44e-04 o  ~
  ---------------------------------------------------------------------------------------------


  **** Optimization is complete! (in 12 steps) ****

  ==> Optimization Summary <==

  Measures of convergence in internal coordinates in au.
  --------------------------------------------------------------------------------------------------------------- ~
   Step         Total Energy             Delta E       MAX Force       RMS Force        MAX Disp        RMS Disp  ~
  --------------------------------------------------------------------------------------------------------------- ~
      1    -652.867890012088   -652.867890012088      0.01595694      0.00456379      0.02987088      0.00958582  ~
      2    -652.870970222484     -0.003080210396      0.00491532      0.00159732      0.03809894      0.00958803  ~
      3    -652.871804437613     -0.000834215129      0.00196508      0.00048184      0.05133706      0.00955697  ~
      4    -652.872122969336     -0.000318531722      0.00132936      0.00030536      0.05050474      0.00954319  ~
      5    -652.872375898025     -0.000252928689      0.00111743      0.00028987      0.04870265      0.00953155  ~
      6    -652.872584735240     -0.000208837215      0.00105276      0.00027776      0.04608129      0.00952418  ~
      7    -652.872760517448     -0.000175782207      0.00093469      0.00023537      0.04779813      0.00952055  ~
      8    -652.872895639187     -0.000135121739      0.00084415      0.00018127      0.05257904      0.00952139  ~
      9    -652.872980864882     -0.000085225695      0.00089393      0.00014517      0.05478677      0.00952099  ~
     10    -652.873007650920     -0.000026786039      0.00090813      0.00013081      0.00633977      0.00132670  ~
     11    -652.872998042543      0.000009608377      0.00014015      0.00002079      0.00434517      0.00064538  ~
     12    -652.872997079175      0.000000963368      0.00010162      0.00001360      0.00270023      0.00044428  ~
  --------------------------------------------------------------------------------------------------------------- ~

	Writing optimization data to binary file.
	Final energy is   -652.8729970791753
	Final (previous) structure:
	Cartesian Geometry (in Angstrom)
	    C    -1.4225219583   0.5401939557  -0.7372692821
	    C    -2.5015003364   1.1160965292  -0.0908591411
	    C     0.6280272317  -1.3573099521  -1.8182236218
	    C     2.1694318380  -0.1837702917  -0.4484873420
	    C    -1.3611453173   0.8536169856   2.0048081870
	    C     1.7107183204  -1.8859844705  -2.5020126670
	    C     3.1869781586  -0.7613444024  -1.1907086505
	    C    -0.2816767070   0.1220201930  -0.0506225759
	    C     0.8454915911  -0.4775716790  -0.7617139520
	    C    -2.4736448910   1.2667418527   1.2870398879
	    C    -0.2935061159   0.3044132644   1.3262488804
	    N     2.9812016563  -1.6027048602  -2.2067667624
	    O    -3.5679496831   1.8096898832   1.9050747801
	    F     0.7610424777  -0.1049553657   2.0568955693
	    H    -1.4396393561   0.4419042147  -1.8122809953
	    H    -3.3654316563   1.4550570877  -0.6392193111
	    H    -0.3758895688  -1.6437338291  -2.0932932124
	    H     2.4068341683   0.4964001394   0.3532448225
	    H    -1.3220327971   0.9352068262   3.0795171939
	    H     1.5511059462  -2.5730620195  -3.3212283736
	    H     4.2183877818  -0.5351509844  -0.9596586542
	    H    -3.2761429879   2.4609794356   2.5490536099
	Saving final (previous) structure.
			--------------------------
			 OPTKING Finished Execution 
			--------------------------

    Final optimized geometry and variables:
    Molecular point group: c1
    Full point group: C1

    Geometry (in Angstrom), charge = 0, multiplicity = 1:

    C           -1.422521958316     0.540193955675    -0.737269282105
    C           -2.501500336369     1.116096529247    -0.090859141113
    C            0.628027231653    -1.357309952077    -1.818223621806
    C            2.169431838037    -0.183770291671    -0.448487341991
    C           -1.361145317326     0.853616985554     2.004808186965
    C            1.710718320356    -1.885984470461    -2.502012667035
    C            3.186978158608    -0.761344402353    -1.190708650496
    C           -0.281676706997     0.122020193019    -0.050622575939
    C            0.845491591146    -0.477571679002    -0.761713951975
    C           -2.473644891031     1.266741852733     1.287039887854
    C           -0.293506115904     0.304413264434     1.326248880398
    N            2.981201656326    -1.602704860179    -2.206766762371
    O           -3.567949683056     1.809689883249     1.905074780086
    F            0.761042477702    -0.104955365672     2.056895569276
    H           -1.439639356146     0.441904214694    -1.812280995292
    H           -3.365431656274     1.455057087732    -0.639219311071
    H           -0.375889568804    -1.643733829052    -2.093293212399
    H            2.406834168325     0.496400139413     0.353244822514
    H           -1.322032797068     0.935206826198     3.079517193906
    H            1.551105946205    -2.573062019479    -3.321228373643
    H            4.218387781768    -0.535150984366    -0.959658654167
    H           -3.276142987933     2.460979435613     2.549053609933

	Cleaning optimization helper files.

*** Psi4 exiting successfully. Buy a developer a beer!
