
    -----------------------------------------------------------------------
          Psi4: An Open-Source Ab Initio Electronic Structure Package
                               Psi4 1.1 release

                         Git: Rev {HEAD} add49b9 


    R. M. Parrish, L. A. Burns, D. G. A. Smith, A. C. Simmonett,
    A. E. DePrince III, E. G. Hohenstein, U. Bozkaya, A. Yu. Sokolov,
    R. Di Remigio, R. M. Richard, J. F. Gonthier, A. M. James,
    H. R. McAlexander, A. Kumar, M. Saitow, X. Wang, B. P. Pritchard,
    P. Verma, H. F. Schaefer III, K. Patkowski, R. A. King, E. F. Valeev,
    F. A. Evangelista, J. M. Turney, T. D. Crawford, and C. D. Sherrill,
    J. Chem. Theory Comput. in press (2017).
    (doi: 10.1021/acs.jctc.7b00174)

    -----------------------------------------------------------------------


    Psi4 started on: Tuesday, 14 November 2017 02:41AM

    Process ID:  14303
    PSIDATADIR: /cbio/jclab/home/chayas/anaconda/envs/py35/share/psi4
    Memory:     500.0 MiB
    Threads:    8
    
  ==> Input File <==

--------------------------------------------------------------------------

memory 5 Gb

molecule phepyrF {
  symmetry C1
  0 1 
  C      1.885   -1.036   -0.112
  C      0.807   -0.463   0.561
  C      2.921   -1.631   0.608
  C      0.764   -0.484   1.955
  C      3.695   -3.343   3.590
  C      5.255   -1.793   2.616
  C      4.761   -3.900   4.278
  C      6.251   -2.420   3.347
  C      2.878   -1.652   2.002
  C      3.955   -2.270   2.745
  C      1.800   -1.079   2.676
  N      6.037   -3.465   4.178
  F      1.744   -1.089   4.016
  H      1.918   -1.020   -1.198
  H      0.000   -0.000   -0.000
  H      3.755   -2.073   0.068
  H      -0.076   -0.038   2.480
  H      2.694   -3.743   3.716
  H      5.496   -0.958   1.966
  H      4.611   -4.740   4.948
  H      7.281   -2.086   3.282
  units Angstrom
}

dih_string = "3 9 10 5 240"
set optking { opt_coordinates = cartesian
              fixed_dihedral = $dih_string
              dynamic_level = 1
              geom_maxiter = 250
              print_trajectory_xyz_file = True }

optimize('MP2/aug-cc-PVTZ')
--------------------------------------------------------------------------

  Memory set to   4.657 GiB by Python driver.
gradient() will perform analytic gradient computation.

*** tstart() called on gpu-2-11.local
*** at Tue Nov 14 02:41:21 2017

    SCF Algorithm Type (re)set to DF.

*** tstart() called on gpu-2-11.local
*** at Tue Nov 14 02:41:21 2017

   => Loading Basis Set <=

    Name: AUG-CC-PVTZ
    Role: ORBITAL
    Keyword: BASIS
    atoms 1-11  entry C          line   221 file /cbio/jclab/home/chayas/anaconda/envs/py35/share/psi4/basis/aug-cc-pvtz.gbs 
    atoms 12    entry N          line   267 file /cbio/jclab/home/chayas/anaconda/envs/py35/share/psi4/basis/aug-cc-pvtz.gbs 
    atoms 13    entry F          line   359 file /cbio/jclab/home/chayas/anaconda/envs/py35/share/psi4/basis/aug-cc-pvtz.gbs 
    atoms 14-21 entry H          line    34 file /cbio/jclab/home/chayas/anaconda/envs/py35/share/psi4/basis/aug-cc-pvtz.gbs 


         ---------------------------------------------------------
                                   SCF
            by Justin Turney, Rob Parrish, and Andy Simmonett
                              RHF Reference
                        8 Threads,   4768 MiB Core
         ---------------------------------------------------------

  ==> Geometry <==

    Molecular point group: c1
    Full point group: C1

    Geometry (in Angstrom), charge = 0, multiplicity = 1:

       Center              X                  Y                   Z               Mass       
    ------------   -----------------  -----------------  -----------------  -----------------
           C         -1.369365204909     0.840961508000    -2.662360898647    12.000000000000
           C         -2.447365204909     1.413961508000    -1.989360898647    12.000000000000
           C         -0.333365204909     0.245961508000    -1.942360898647    12.000000000000
           C         -2.490365204909     1.392961508000    -0.595360898647    12.000000000000
           C          0.440634795091    -1.466038492000     1.039639101353    12.000000000000
           C          2.000634795091     0.083961508000     0.065639101353    12.000000000000
           C          1.506634795091    -2.023038492000     1.727639101353    12.000000000000
           C          2.996634795091    -0.543038492000     0.796639101353    12.000000000000
           C         -0.376365204909     0.224961508000    -0.548360898647    12.000000000000
           C          0.700634795091    -0.393038492000     0.194639101353    12.000000000000
           C         -1.454365204909     0.797961508000     0.125639101353    12.000000000000
           N          2.782634795091    -1.588038492000     1.627639101353    14.003074004780
           F         -1.510365204909     0.787961508000     1.465639101353    18.998403224000
           H         -1.336365204909     0.856961508000    -3.748360898647     1.007825032070
           H         -3.254365204909     1.876961508000    -2.550360898647     1.007825032070
           H          0.500634795091    -0.196038492000    -2.482360898647     1.007825032070
           H         -3.330365204909     1.838961508000    -0.070360898647     1.007825032070
           H         -0.560365204909    -1.866038492000     1.165639101353     1.007825032070
           H          2.241634795091     0.918961508000    -0.584360898647     1.007825032070
           H          1.356634795091    -2.863038492000     2.397639101353     1.007825032070
           H          4.026634795091    -0.209038492000     0.731639101353     1.007825032070

  Running in c1 symmetry.

  Rotational constants: A =      0.06383  B =      0.01782  C =      0.01530 [cm^-1]
  Rotational constants: A =   1913.54277  B =    534.19230  C =    458.66592 [MHz]
  Nuclear repulsion =  715.370015044238812

  Charge       = 0
  Multiplicity = 1
  Electrons    = 90
  Nalpha       = 45
  Nbeta        = 45

  ==> Algorithm <==

  SCF Algorithm Type is DF.
  DIIS enabled.
  MOM disabled.
  Fractional occupation disabled.
  Guess Type is SAD.
  Energy threshold   = 1.00e-10
  Density threshold  = 1.00e-10
  Integral threshold = 0.00e+00

  ==> Primary Basis <==

  Basis Set: AUG-CC-PVTZ
    Blend: AUG-CC-PVTZ
    Number of shells: 254
    Number of basis function: 782
    Number of Cartesian functions: 915
    Spherical Harmonics?: true
    Max angular momentum: 3

   => Loading Basis Set <=

    Name: (AUG-CC-PVTZ AUX)
    Role: JKFIT
    Keyword: DF_BASIS_SCF
    atoms 1-11  entry C          line   161 file /cbio/jclab/home/chayas/anaconda/envs/py35/share/psi4/basis/aug-cc-pvtz-jkfit.gbs 
    atoms 12    entry N          line   223 file /cbio/jclab/home/chayas/anaconda/envs/py35/share/psi4/basis/aug-cc-pvtz-jkfit.gbs 
    atoms 13    entry F          line   347 file /cbio/jclab/home/chayas/anaconda/envs/py35/share/psi4/basis/aug-cc-pvtz-jkfit.gbs 
    atoms 14-21 entry H          line    69 file /cbio/jclab/home/chayas/anaconda/envs/py35/share/psi4/basis/aug-cc-pvtz-jkfit.gbs 

  ==> Pre-Iterations <==

   -------------------------------------------------------
    Irrep   Nso     Nmo     Nalpha   Nbeta   Ndocc  Nsocc
   -------------------------------------------------------
     A        782     782       0       0       0       0
   -------------------------------------------------------
    Total     782     782      45      45      45       0
   -------------------------------------------------------

  ==> Integral Setup <==

  ==> DFJK: Density-Fitted J/K Matrices <==

    J tasked:                  Yes
    K tasked:                  Yes
    wK tasked:                  No
    OpenMP threads:              8
    Integrals threads:           8
    Memory (MB):              3576
    Algorithm:                Disk
    Integral Cache:           NONE
    Schwarz Cutoff:          1E-12
    Fitting Condition:       1E-12

   => Auxiliary Basis Set <=

  Basis Set: (AUG-CC-PVTZ AUX)
    Blend: AUG-CC-PVTZ-JKFIT
    Number of shells: 502
    Number of basis function: 1720
    Number of Cartesian functions: 2143
    Spherical Harmonics?: true
    Max angular momentum: 4

  Minimum eigenvalue in the overlap matrix is 6.6711808277E-07.
  Using Symmetric Orthogonalization.

  SCF Guess: Superposition of Atomic Densities via on-the-fly atomic UHF.

  ==> Iterations <==

                           Total Energy        Delta E     RMS |[F,P]|

   @DF-RHF iter   0:  -581.35515812194490   -5.81355e+02   2.03613e-02 
   @DF-RHF iter   1:  -574.91286480066788    6.44229e+00   2.11029e-03 
   @DF-RHF iter   2:  -575.20689846101197   -2.94034e-01   1.12807e-03 DIIS
   @DF-RHF iter   3:  -575.26739529235192   -6.04968e-02   4.01469e-04 DIIS
   @DF-RHF iter   4:  -575.28175691641206   -1.43616e-02   1.33066e-04 DIIS
   @DF-RHF iter   5:  -575.28334614549863   -1.58923e-03   5.09789e-05 DIIS
   @DF-RHF iter   6:  -575.28367515669493   -3.29011e-04   1.85284e-05 DIIS
   @DF-RHF iter   7:  -575.28372140334784   -4.62467e-05   4.87095e-06 DIIS
   @DF-RHF iter   8:  -575.28372711250574   -5.70916e-06   2.32294e-06 DIIS
   @DF-RHF iter   9:  -575.28372839697863   -1.28447e-06   1.33930e-06 DIIS
   @DF-RHF iter  10:  -575.28372879741323   -4.00435e-07   5.63472e-07 DIIS
   @DF-RHF iter  11:  -575.28372889743946   -1.00026e-07   2.09966e-07 DIIS
   @DF-RHF iter  12:  -575.28372890634114   -8.90168e-09   7.61857e-08 DIIS
   @DF-RHF iter  13:  -575.28372890732555   -9.84414e-10   2.51081e-08 DIIS
   @DF-RHF iter  14:  -575.28372890743049   -1.04933e-10   1.06958e-08 DIIS
   @DF-RHF iter  15:  -575.28372890744220   -1.17097e-11   4.98674e-09 DIIS
   @DF-RHF iter  16:  -575.28372890745868   -1.64846e-11   2.18959e-09 DIIS
   @DF-RHF iter  17:  -575.28372890746152   -2.84217e-12   8.94269e-10 DIIS
   @DF-RHF iter  18:  -575.28372890746516   -3.63798e-12   3.62038e-10 DIIS
   @DF-RHF iter  19:  -575.28372890747778   -1.26192e-11   1.33439e-10 DIIS
   @DF-RHF iter  20:  -575.28372890747130    6.48015e-12   6.10142e-11 DIIS

  ==> Post-Iterations <==

    Orbital Energies (a.u.)
    -----------------------

    Doubly Occupied:                                                      

       1A    -26.322087     2A    -15.566925     3A    -11.341112  
       4A    -11.276179     5A    -11.275404     6A    -11.267086  
       7A    -11.260940     8A    -11.258181     9A    -11.257623  
      10A    -11.255104    11A    -11.250063    12A    -11.241620  
      13A    -11.240239    14A     -1.640683    15A     -1.251843  
      16A     -1.183279    17A     -1.113909    18A     -1.037770  
      19A     -1.032919    20A     -1.025669    21A     -0.892118  
      22A     -0.868168    23A     -0.849111    24A     -0.822923  
      25A     -0.756209    26A     -0.722920    27A     -0.714063  
      28A     -0.707213    29A     -0.669081    30A     -0.664608  
      31A     -0.652354    32A     -0.625378    33A     -0.611880  
      34A     -0.600588    35A     -0.588051    36A     -0.547598  
      37A     -0.535688    38A     -0.525371    39A     -0.514400  
      40A     -0.508798    41A     -0.420866    42A     -0.393184  
      43A     -0.354199    44A     -0.349338    45A     -0.339428  

    Virtual:                                                              

      46A      0.023668    47A      0.030571    48A      0.033594  
      49A      0.036749    50A      0.043761    51A      0.047511  
      52A      0.052579    53A      0.054285    54A      0.075028  
      55A      0.079797    56A      0.085882    57A      0.088516  
      58A      0.092569    59A      0.093147    60A      0.098082  
      61A      0.101613    62A      0.107126    63A      0.107797  
      64A      0.112122    65A      0.113571    66A      0.115384  
      67A      0.118585    68A      0.122406    69A      0.127012  
      70A      0.128936    71A      0.132487    72A      0.134556  
      73A      0.135532    74A      0.142999    75A      0.143395  
      76A      0.147099    77A      0.147676    78A      0.152655  
      79A      0.155336    80A      0.157525    81A      0.169990  
      82A      0.174277    83A      0.175748    84A      0.185955  
      85A      0.187338    86A      0.196871    87A      0.200651  
      88A      0.213355    89A      0.217598    90A      0.224397  
      91A      0.233177    92A      0.236812    93A      0.239844  
      94A      0.241306    95A      0.242692    96A      0.246312  
      97A      0.252129    98A      0.254206    99A      0.260003  
     100A      0.263108   101A      0.267692   102A      0.269570  
     103A      0.273191   104A      0.280502   105A      0.280902  
     106A      0.283029   107A      0.295128   108A      0.295250  
     109A      0.299508   110A      0.307840   111A      0.308568  
     112A      0.312162   113A      0.315818   114A      0.319722  
     115A      0.323256   116A      0.324868   117A      0.327615  
     118A      0.331011   119A      0.336109   120A      0.343503  
     121A      0.349392   122A      0.353259   123A      0.357405  
     124A      0.361991   125A      0.374154   126A      0.377847  
     127A      0.381972   128A      0.385977   129A      0.392724  
     130A      0.395564   131A      0.405318   132A      0.409396  
     133A      0.413655   134A      0.415875   135A      0.421917  
     136A      0.424837   137A      0.431734   138A      0.435384  
     139A      0.439234   140A      0.439816   141A      0.446127  
     142A      0.449173   143A      0.458370   144A      0.460852  
     145A      0.468036   146A      0.469514   147A      0.473819  
     148A      0.474445   149A      0.479310   150A      0.482109  
     151A      0.484182   152A      0.486236   153A      0.490035  
     154A      0.493992   155A      0.497304   156A      0.504923  
     157A      0.507786   158A      0.509627   159A      0.512163  
     160A      0.514443   161A      0.520923   162A      0.521626  
     163A      0.523208   164A      0.527250   165A      0.531435  
     166A      0.538500   167A      0.541781   168A      0.546272  
     169A      0.548207   170A      0.551583   171A      0.557531  
     172A      0.565534   173A      0.569237   174A      0.576693  
     175A      0.578433   176A      0.586802   177A      0.593080  
     178A      0.598404   179A      0.603415   180A      0.616428  
     181A      0.620507   182A      0.625110   183A      0.631374  
     184A      0.636423   185A      0.639802   186A      0.647004  
     187A      0.655226   188A      0.661408   189A      0.671628  
     190A      0.673584   191A      0.676244   192A      0.682815  
     193A      0.687056   194A      0.698196   195A      0.701002  
     196A      0.705581   197A      0.707147   198A      0.714937  
     199A      0.721720   200A      0.723236   201A      0.732891  
     202A      0.737320   203A      0.743386   204A      0.747204  
     205A      0.749345   206A      0.758202   207A      0.763181  
     208A      0.770731   209A      0.782707   210A      0.785991  
     211A      0.790508   212A      0.793647   213A      0.800544  
     214A      0.818349   215A      0.823388   216A      0.830887  
     217A      0.841061   218A      0.845319   219A      0.850077  
     220A      0.855227   221A      0.860229   222A      0.864717  
     223A      0.871868   224A      0.873170   225A      0.874960  
     226A      0.880753   227A      0.885087   228A      0.886266  
     229A      0.888001   230A      0.898480   231A      0.903284  
     232A      0.905931   233A      0.915331   234A      0.916700  
     235A      0.923791   236A      0.929628   237A      0.935631  
     238A      0.941508   239A      0.943715   240A      0.946938  
     241A      0.950331   242A      0.959740   243A      0.962508  
     244A      0.964340   245A      0.968736   246A      0.976007  
     247A      0.983386   248A      0.988174   249A      0.990893  
     250A      0.998493   251A      1.002952   252A      1.008006  
     253A      1.009362   254A      1.015190   255A      1.023390  
     256A      1.028055   257A      1.032300   258A      1.036738  
     259A      1.039065   260A      1.042099   261A      1.049414  
     262A      1.060753   263A      1.064650   264A      1.068183  
     265A      1.074604   266A      1.076128   267A      1.079800  
     268A      1.086128   269A      1.089465   270A      1.093518  
     271A      1.097876   272A      1.100733   273A      1.110092  
     274A      1.117217   275A      1.118872   276A      1.125983  
     277A      1.133969   278A      1.136387   279A      1.137258  
     280A      1.143004   281A      1.146542   282A      1.153148  
     283A      1.155397   284A      1.167929   285A      1.170451  
     286A      1.176535   287A      1.178881   288A      1.183353  
     289A      1.190894   290A      1.198298   291A      1.201834  
     292A      1.210335   293A      1.212539   294A      1.213679  
     295A      1.220917   296A      1.224445   297A      1.232628  
     298A      1.239070   299A      1.245895   300A      1.251766  
     301A      1.254891   302A      1.264720   303A      1.270461  
     304A      1.275848   305A      1.279072   306A      1.284323  
     307A      1.290837   308A      1.295718   309A      1.306624  
     310A      1.313276   311A      1.316146   312A      1.322687  
     313A      1.340591   314A      1.350164   315A      1.351261  
     316A      1.359011   317A      1.368128   318A      1.372387  
     319A      1.373700   320A      1.385547   321A      1.390025  
     322A      1.397601   323A      1.400613   324A      1.407054  
     325A      1.416857   326A      1.424931   327A      1.433285  
     328A      1.440862   329A      1.445480   330A      1.461224  
     331A      1.468963   332A      1.476741   333A      1.483251  
     334A      1.492872   335A      1.497950   336A      1.501032  
     337A      1.504303   338A      1.530225   339A      1.537602  
     340A      1.545960   341A      1.557323   342A      1.562255  
     343A      1.567433   344A      1.571444   345A      1.575826  
     346A      1.585705   347A      1.594402   348A      1.599427  
     349A      1.612091   350A      1.626331   351A      1.629615  
     352A      1.641458   353A      1.646733   354A      1.659221  
     355A      1.666634   356A      1.671248   357A      1.675800  
     358A      1.686080   359A      1.693095   360A      1.698990  
     361A      1.703422   362A      1.714263   363A      1.727031  
     364A      1.728568   365A      1.731642   366A      1.735919  
     367A      1.743651   368A      1.754102   369A      1.761129  
     370A      1.766480   371A      1.784463   372A      1.786922  
     373A      1.798345   374A      1.804695   375A      1.810617  
     376A      1.822799   377A      1.825130   378A      1.840307  
     379A      1.850854   380A      1.858030   381A      1.866718  
     382A      1.876712   383A      1.886924   384A      1.890431  
     385A      1.893127   386A      1.904978   387A      1.907811  
     388A      1.910977   389A      1.922829   390A      1.933901  
     391A      1.939887   392A      1.951767   393A      1.962490  
     394A      1.969481   395A      1.973160   396A      1.991324  
     397A      1.992969   398A      1.998174   399A      2.000450  
     400A      2.010456   401A      2.017625   402A      2.022386  
     403A      2.033248   404A      2.048128   405A      2.049817  
     406A      2.058751   407A      2.061390   408A      2.068369  
     409A      2.080153   410A      2.088637   411A      2.089976  
     412A      2.097334   413A      2.105739   414A      2.115691  
     415A      2.123922   416A      2.126908   417A      2.144696  
     418A      2.154899   419A      2.158531   420A      2.170618  
     421A      2.179253   422A      2.180809   423A      2.184824  
     424A      2.201006   425A      2.210088   426A      2.214797  
     427A      2.232912   428A      2.235029   429A      2.247482  
     430A      2.255595   431A      2.263167   432A      2.273632  
     433A      2.277154   434A      2.288222   435A      2.294914  
     436A      2.309468   437A      2.316621   438A      2.324666  
     439A      2.332308   440A      2.346950   441A      2.353896  
     442A      2.364094   443A      2.373011   444A      2.392932  
     445A      2.409125   446A      2.415462   447A      2.420753  
     448A      2.448758   449A      2.454890   450A      2.468170  
     451A      2.475586   452A      2.478720   453A      2.511259  
     454A      2.518683   455A      2.538651   456A      2.552678  
     457A      2.561739   458A      2.568787   459A      2.573124  
     460A      2.590904   461A      2.593979   462A      2.602430  
     463A      2.633271   464A      2.644687   465A      2.675779  
     466A      2.686692   467A      2.693419   468A      2.725083  
     469A      2.749760   470A      2.752906   471A      2.759923  
     472A      2.766427   473A      2.785033   474A      2.795455  
     475A      2.830126   476A      2.835028   477A      2.860137  
     478A      2.880804   479A      2.930032   480A      2.964336  
     481A      2.981394   482A      3.021069   483A      3.043443  
     484A      3.054478   485A      3.072531   486A      3.076670  
     487A      3.101813   488A      3.125818   489A      3.144111  
     490A      3.153324   491A      3.163001   492A      3.172930  
     493A      3.179319   494A      3.191091   495A      3.200933  
     496A      3.217381   497A      3.239568   498A      3.244495  
     499A      3.255632   500A      3.286331   501A      3.292329  
     502A      3.302109   503A      3.318354   504A      3.323089  
     505A      3.336660   506A      3.360257   507A      3.370446  
     508A      3.385004   509A      3.389429   510A      3.404475  
     511A      3.415423   512A      3.423177   513A      3.431932  
     514A      3.432238   515A      3.440274   516A      3.445402  
     517A      3.455260   518A      3.456397   519A      3.469255  
     520A      3.477462   521A      3.486267   522A      3.497277  
     523A      3.513962   524A      3.528415   525A      3.536309  
     526A      3.544040   527A      3.547651   528A      3.553944  
     529A      3.558112   530A      3.568938   531A      3.576068  
     532A      3.582887   533A      3.596034   534A      3.600891  
     535A      3.602977   536A      3.616168   537A      3.626126  
     538A      3.636619   539A      3.647731   540A      3.652308  
     541A      3.665209   542A      3.674681   543A      3.680582  
     544A      3.685519   545A      3.705405   546A      3.708556  
     547A      3.713010   548A      3.723762   549A      3.726937  
     550A      3.739153   551A      3.748958   552A      3.767507  
     553A      3.781317   554A      3.786507   555A      3.797303  
     556A      3.807516   557A      3.813772   558A      3.818371  
     559A      3.833986   560A      3.845063   561A      3.847188  
     562A      3.854040   563A      3.862239   564A      3.864916  
     565A      3.869004   566A      3.880816   567A      3.892015  
     568A      3.909338   569A      3.916578   570A      3.926618  
     571A      3.934784   572A      3.940895   573A      3.947412  
     574A      3.953688   575A      3.956461   576A      3.976143  
     577A      3.979384   578A      3.982751   579A      3.999855  
     580A      4.003509   581A      4.009908   582A      4.019268  
     583A      4.029260   584A      4.032105   585A      4.034631  
     586A      4.050266   587A      4.064469   588A      4.074264  
     589A      4.081809   590A      4.087270   591A      4.103661  
     592A      4.104427   593A      4.117938   594A      4.122652  
     595A      4.133522   596A      4.138874   597A      4.144803  
     598A      4.158049   599A      4.171596   600A      4.190418  
     601A      4.200880   602A      4.210430   603A      4.219635  
     604A      4.230626   605A      4.232904   606A      4.253464  
     607A      4.259226   608A      4.270377   609A      4.282420  
     610A      4.294518   611A      4.299902   612A      4.305101  
     613A      4.315819   614A      4.324057   615A      4.336926  
     616A      4.345699   617A      4.355994   618A      4.358513  
     619A      4.365308   620A      4.381682   621A      4.386732  
     622A      4.393135   623A      4.402479   624A      4.414417  
     625A      4.415734   626A      4.432336   627A      4.442491  
     628A      4.449750   629A      4.459839   630A      4.473832  
     631A      4.476379   632A      4.492038   633A      4.499492  
     634A      4.513579   635A      4.522397   636A      4.532679  
     637A      4.554452   638A      4.575796   639A      4.583149  
     640A      4.603784   641A      4.614142   642A      4.625677  
     643A      4.649170   644A      4.662043   645A      4.678717  
     646A      4.689162   647A      4.699929   648A      4.713100  
     649A      4.721503   650A      4.743084   651A      4.748420  
     652A      4.753702   653A      4.771512   654A      4.788034  
     655A      4.806873   656A      4.819907   657A      4.842916  
     658A      4.857260   659A      4.876864   660A      4.891978  
     661A      4.911064   662A      4.935467   663A      4.940554  
     664A      4.951758   665A      4.961594   666A      4.972889  
     667A      4.987933   668A      4.995676   669A      5.009087  
     670A      5.024436   671A      5.027872   672A      5.030094  
     673A      5.044378   674A      5.052357   675A      5.084866  
     676A      5.089933   677A      5.111570   678A      5.115330  
     679A      5.128824   680A      5.134258   681A      5.152150  
     682A      5.155006   683A      5.170361   684A      5.172034  
     685A      5.178693   686A      5.185587   687A      5.192353  
     688A      5.194980   689A      5.203695   690A      5.237913  
     691A      5.270523   692A      5.280818   693A      5.300010  
     694A      5.321864   695A      5.326700   696A      5.343408  
     697A      5.356071   698A      5.369689   699A      5.380590  
     700A      5.392063   701A      5.432080   702A      5.444817  
     703A      5.451740   704A      5.458284   705A      5.476627  
     706A      5.518767   707A      5.529250   708A      5.547420  
     709A      5.561549   710A      5.586882   711A      5.634130  
     712A      5.641493   713A      5.663350   714A      5.689423  
     715A      5.714276   716A      5.755569   717A      5.775767  
     718A      5.789809   719A      5.798907   720A      5.806408  
     721A      5.838111   722A      5.864182   723A      5.885172  
     724A      5.907232   725A      5.952416   726A      5.993732  
     727A      6.058103   728A      6.079893   729A      6.112581  
     730A      6.169709   731A      6.180353   732A      6.216430  
     733A      6.237450   734A      6.261444   735A      6.280326  
     736A      6.298090   737A      6.336487   738A      6.357927  
     739A      6.362674   740A      6.483093   741A      6.506022  
     742A      6.535344   743A      6.566098   744A      6.656749  
     745A      6.695665   746A      6.711983   747A      6.729846  
     748A      6.828315   749A      6.871702   750A      6.924172  
     751A      6.984394   752A      7.031328   753A      7.057364  
     754A      7.076642   755A      7.292354   756A      7.415641  
     757A      7.474487   758A      9.005686   759A      9.049386  
     760A      9.269442   761A      9.289483   762A      9.406720  
     763A      9.517878   764A      9.539760   765A      9.592531  
     766A      9.651386   767A      9.718841   768A     10.027386  
     769A     10.076225   770A     15.531122   771A     16.124791  
     772A     16.496594   773A     16.584072   774A     16.680624  
     775A     18.426191   776A     18.643528   777A     19.033672  
     778A     19.296688   779A     20.046819   780A     20.108655  
     781A     20.273400   782A     21.818653  

    Final Occupation by Irrep:
              A 
    DOCC [    45 ]

  Energy converged.

  @DF-RHF Final Energy:  -575.28372890747130

   => Energetics <=

    Nuclear Repulsion Energy =            715.3700150442388122
    One-Electron Energy =               -2202.6431400276164823
    Two-Electron Energy =                 911.9893960759064839
    DFT Exchange-Correlation Energy =       0.0000000000000000
    Empirical Dispersion Energy =           0.0000000000000000
    PCM Polarization Energy =               0.0000000000000000
    EFP Energy =                            0.0000000000000000
    Total Energy =                       -575.2837289074712999



Properties will be evaluated at   0.000000,   0.000000,   0.000000 Bohr

Properties computed using the SCF density matrix

  Nuclear Dipole Moment: (a.u.)
     X:     1.0831      Y:    -0.4034      Z:    -6.2068

  Electronic Dipole Moment: (a.u.)
     X:    -1.8359      Y:     0.8400      Z:     5.0754

  Dipole Moment: (a.u.)
     X:    -0.7528      Y:     0.4366      Z:    -1.1314     Total:     1.4274

  Dipole Moment: (Debye)
     X:    -1.9135      Y:     1.1098      Z:    -2.8756     Total:     3.6280


*** tstop() called on gpu-2-11.local at Tue Nov 14 02:48:35 2017
Module time:
	user time   =    1154.05 seconds =      19.23 minutes
	system time =      49.08 seconds =       0.82 minutes
	total time  =        434 seconds =       7.23 minutes
Total time:
	user time   =    1154.05 seconds =      19.23 minutes
	system time =      49.08 seconds =       0.82 minutes
	total time  =        434 seconds =       7.23 minutes

  //>>>>>>>>>>>>>>>>>>>>>>>>>>>>>>>>>>>//
  //               DFMP2               //
  //<<<<<<<<<<<<<<<<<<<<<<<<<<<<<<<<<<<//

   => Loading Basis Set <=

    Name: (AUG-CC-PVTZ AUX)
    Role: RIFIT
    Keyword: DF_BASIS_MP2
    atoms 1-11  entry C          line   147 file /cbio/jclab/home/chayas/anaconda/envs/py35/share/psi4/basis/aug-cc-pvtz-ri.gbs 
    atoms 12    entry N          line   205 file /cbio/jclab/home/chayas/anaconda/envs/py35/share/psi4/basis/aug-cc-pvtz-ri.gbs 
    atoms 13    entry F          line   321 file /cbio/jclab/home/chayas/anaconda/envs/py35/share/psi4/basis/aug-cc-pvtz-ri.gbs 
    atoms 14-21 entry H          line    29 file /cbio/jclab/home/chayas/anaconda/envs/py35/share/psi4/basis/aug-cc-pvtz-ri.gbs 

	 --------------------------------------------------------
	                          DF-MP2                         
	      2nd-Order Density-Fitted Moller-Plesset Theory     
	              RMP2 Wavefunction,   8 Threads             
	                                                         
	        Rob Parrish, Justin Turney, Andy Simmonett,      
	           Ed Hohenstein, and C. David Sherrill          
	 --------------------------------------------------------

   => Auxiliary Basis Set <=

  Basis Set: (AUG-CC-PVTZ AUX)
    Blend: AUG-CC-PVTZ-RI
    Number of shells: 476
    Number of basis function: 1746
    Number of Cartesian functions: 2208
    Spherical Harmonics?: true
    Max angular momentum: 4

	 --------------------------------------------------------
	                 NBF =   782, NAUX =  1746
	 --------------------------------------------------------
	   CLASS    FOCC     OCC    AOCC    AVIR     VIR    FVIR
	   PAIRS       0      45      45     737     737       0
	 --------------------------------------------------------


         ------------------------------------------------------------
                                     CPHF                           
                                  Rob Parrish                       
         ------------------------------------------------------------

  ==> Geometry <==

    Molecular point group: c1
    Full point group: C1

    Geometry (in Angstrom), charge = 0, multiplicity = 1:

       Center              X                  Y                   Z               Mass       
    ------------   -----------------  -----------------  -----------------  -----------------
           C         -1.369365204909     0.840961508000    -2.662360898647    12.000000000000
           C         -2.447365204909     1.413961508000    -1.989360898647    12.000000000000
           C         -0.333365204909     0.245961508000    -1.942360898647    12.000000000000
           C         -2.490365204909     1.392961508000    -0.595360898647    12.000000000000
           C          0.440634795091    -1.466038492000     1.039639101353    12.000000000000
           C          2.000634795091     0.083961508000     0.065639101353    12.000000000000
           C          1.506634795091    -2.023038492000     1.727639101353    12.000000000000
           C          2.996634795091    -0.543038492000     0.796639101353    12.000000000000
           C         -0.376365204909     0.224961508000    -0.548360898647    12.000000000000
           C          0.700634795091    -0.393038492000     0.194639101353    12.000000000000
           C         -1.454365204909     0.797961508000     0.125639101353    12.000000000000
           N          2.782634795091    -1.588038492000     1.627639101353    14.003074004780
           F         -1.510365204909     0.787961508000     1.465639101353    18.998403224000
           H         -1.336365204909     0.856961508000    -3.748360898647     1.007825032070
           H         -3.254365204909     1.876961508000    -2.550360898647     1.007825032070
           H          0.500634795091    -0.196038492000    -2.482360898647     1.007825032070
           H         -3.330365204909     1.838961508000    -0.070360898647     1.007825032070
           H         -0.560365204909    -1.866038492000     1.165639101353     1.007825032070
           H          2.241634795091     0.918961508000    -0.584360898647     1.007825032070
           H          1.356634795091    -2.863038492000     2.397639101353     1.007825032070
           H          4.026634795091    -0.209038492000     0.731639101353     1.007825032070

  Nuclear repulsion =  715.370015044238812
  Reference energy  = -575.283728907471300

  ==> Basis Set <==

  Basis Set: AUG-CC-PVTZ
    Blend: AUG-CC-PVTZ
    Number of shells: 254
    Number of basis function: 782
    Number of Cartesian functions: 915
    Spherical Harmonics?: true
    Max angular momentum: 3

  ==> CGRSolver (by Rob Parrish) <==

   Number of roots    =         1
   Preconditioning    =    JACOBI
   Convergence cutoff =     1E-06
   Maximum iterations =       100

  ==> CPHFRHamiltonian (by Rob Parrish) <== 

  ==> DFJK: Density-Fitted J/K Matrices <==

    J tasked:                  Yes
    K tasked:                  Yes
    wK tasked:                  No
    OpenMP threads:              8
    Integrals threads:           8
    Memory (MB):              3576
    Algorithm:                Disk
    Integral Cache:           NONE
    Schwarz Cutoff:          1E-12
    Fitting Condition:       1E-12

   => Auxiliary Basis Set <=

  Basis Set: (AUG-CC-PVTZ AUX)
    Blend: AUG-CC-PVTZ-JKFIT
    Number of shells: 502
    Number of basis function: 1720
    Number of Cartesian functions: 2143
    Spherical Harmonics?: true
    Max angular momentum: 4

  ==> CPHF Iterations <==

  => Iterations <=

             Iter  Converged  Remaining    Residual
  CGR           1          0          1   9.747E-02
  CGR           2          0          1   2.972E-02
  CGR           3          0          1   1.905E-02
  CGR           4          0          1   9.434E-03
  CGR           5          0          1   3.668E-03
  CGR           6          0          1   1.323E-03
  CGR           7          0          1   3.830E-04
  CGR           8          0          1   1.307E-04
  CGR           9          0          1   5.186E-05
  CGR          10          0          1   2.163E-05
  CGR          11          0          1   1.073E-05
  CGR          12          0          1   4.188E-06
  CGR          13          0          1   1.427E-06
  CGR          14          1          0   5.133E-07

    CGRSolver converged.

  ==> DFCorrGrad: Density-Fitted Correlated Gradients <==

    OpenMP threads:              8
    Integrals threads:           8
    Memory (MB):              3576
    Schwarz Cutoff:          0E+00
    Fitting Condition:       1E-12

   => Auxiliary Basis Set <=

  Basis Set: (AUG-CC-PVTZ AUX)
    Blend: AUG-CC-PVTZ-JKFIT
    Number of shells: 502
    Number of basis function: 1720
    Number of Cartesian functions: 2143
    Spherical Harmonics?: true
    Max angular momentum: 4

	-----------------------------------------------------------
	 ==================> DF-MP2 Energies <==================== 
	-----------------------------------------------------------
	 Reference Energy          =    -575.2837289074712999 [Eh]
	 Singles Energy            =      -0.0000000000000001 [Eh]
	 Same-Spin Energy          =      -0.6078554555992931 [Eh]
	 Opposite-Spin Energy      =      -1.8320472180787264 [Eh]
	 Correlation Energy        =      -2.4399026736780196 [Eh]
	 Total Energy              =    -577.7236315811493341 [Eh]
	-----------------------------------------------------------
	 ================> DF-SCS-MP2 Energies <================== 
	-----------------------------------------------------------
	 SCS Same-Spin Scale       =       0.3333333333333333 [-]
	 SCS Opposite-Spin Scale   =       1.2000000000000000 [-]
	 SCS Same-Spin Energy      =      -0.2026184851997644 [Eh]
	 SCS Opposite-Spin Energy  =      -2.1984566616944714 [Eh]
	 SCS Correlation Energy    =      -2.4010751468942360 [Eh]
	 SCS Total Energy          =    -577.6848040543654861 [Eh]
	-----------------------------------------------------------


  -Total Gradient:
     Atom            X                  Y                   Z
    ------   -----------------  -----------------  -----------------
       1       -0.001001497409     0.000344082881     0.000805901228
       2       -0.004006840107     0.002205260266    -0.001997335306
       3        0.010605882591    -0.008743921932     0.005812974728
       4        0.000946780858    -0.000229269089    -0.004391552320
       5       -0.007123428331     0.000078045795    -0.003438199402
       6       -0.002204873080     0.006367080891    -0.003172053013
       7       -0.013121800413    -0.000175773335    -0.002228862527
       8       -0.003570519297     0.010681418157    -0.009026809130
       9        0.002673127385    -0.001266776161    -0.001167247916
      10       -0.001164164246     0.000324807466    -0.002630951189
      11        0.010490305596    -0.003970081527     0.023599183797
      12        0.012749277310    -0.008039621518     0.009116671484
      13       -0.002331547947     0.000707349825     0.002187186578
      14        0.000248087659     0.000233008398    -0.005352867327
      15       -0.003546516964     0.002153866821    -0.003862148701
      16        0.002939416476    -0.000853224941    -0.006578741163
      17       -0.005070161958     0.002481093491     0.000875895009
      18       -0.003669234574    -0.003249280616     0.001837811992
      19        0.003110631825     0.002870276886    -0.002570134264
      20        0.000314416033    -0.002138982467     0.001934580574
      21        0.002732658605     0.000220640710     0.000246696861


*** tstop() called on gpu-2-11.local at Tue Nov 14 03:16:06 2017
Module time:
	user time   =    5059.72 seconds =      84.33 minutes
	system time =     106.03 seconds =       1.77 minutes
	total time  =       2085 seconds =      34.75 minutes
Total time:
	user time   =    5059.72 seconds =      84.33 minutes
	system time =     106.03 seconds =       1.77 minutes
	total time  =       2085 seconds =      34.75 minutes

			-----------------------------------------
			 OPTKING 2.0: for geometry optimizations 
			  - R.A. King,  Bethel University        
			-----------------------------------------
	At level 1: Red. Int., RFO, no backsteps, dynamic trust

	Internal coordinates to be generated automatically.
	Detected frag 1 with atoms:  1 2 3 4 5 6 7 8 9 10 11 12 13 14 15 16 17 18 19 20
	 21
	---Fragment 1 Bond Connectivity---
	 1 : 2 3 14
	 2 : 1 4 15
	 3 : 1 9 16
	 4 : 2 11 17
	 5 : 7 10 18
	 6 : 8 10 19
	 7 : 5 12 20
	 8 : 6 12 21
	 9 : 3 10 11
	 10 : 5 6 9
	 11 : 4 9 13
	 12 : 7 8
	 13 : 11
	 14 : 1
	 15 : 2
	 16 : 3
	 17 : 4
	 18 : 5
	 19 : 6
	 20 : 7
	 21 : 8

	Assuming in current code that numbering for constraints corresponds to unified fragment.
	Fixed dihedral atom list: 
	     3     9    10     5
	---Fragment 1 Geometry and Gradient---
	 C          -2.5877252132        1.5891869384       -5.0311329653
	 C          -4.6248499844        2.6720000126       -3.7593472779
	 C          -0.6299689395        0.4647998894       -3.6705301497
	 C          -4.7061082081        2.6323157638       -1.1250690487
	 C           0.8326790873       -2.7704112501        1.9646331786
	 C           3.7806518546        0.1586642558        0.1240399252
	 C           2.8471271450       -3.8229887062        3.2647647580
	 C           5.6628190830       -1.0261940295        1.5054297283
	 C          -0.7112271632        0.4251156406       -1.0362519204
	 C           1.3240078819       -0.7427351096        0.3678145963
	 C          -2.7483519345        1.5079287147        0.2374234931
	 N           5.2584176906       -3.0009578384        3.0757921447
	 F          -2.8541765979        1.4890314534        2.7696565112
	 H          -2.5253642508        1.6194225565       -7.0833755457
	 H          -6.1498589737        3.5469432121       -4.8194836385
	 H           0.9460626553       -0.3704590614       -4.6909822614
	 H          -6.2934781598        3.4751336190       -0.1329628289
	 H          -1.0589367717       -3.5263017033        2.2027386713
	 H           4.2360758527        1.7365855768       -1.1042820612
	 H           2.5636682251       -5.4103586578        4.5308812671
	 H           7.6092369999       -0.3950255011        1.3825975297
	            -0.0010014974        0.0003440829        0.0008059012
	            -0.0040068401        0.0022052603       -0.0019973353
	             0.0106058826       -0.0087439219        0.0058129747
	             0.0009467809       -0.0002292691       -0.0043915523
	            -0.0071234283        0.0000780458       -0.0034381994
	            -0.0022048731        0.0063670809       -0.0031720530
	            -0.0131218004       -0.0001757733       -0.0022288625
	            -0.0035705193        0.0106814182       -0.0090268091
	             0.0026731274       -0.0012667762       -0.0011672479
	            -0.0011641642        0.0003248075       -0.0026309512
	             0.0104903056       -0.0039700815        0.0235991838
	             0.0127492773       -0.0080396215        0.0091166715
	            -0.0023315479        0.0007073498        0.0021871866
	             0.0002480877        0.0002330084       -0.0053528673
	            -0.0035465170        0.0021538668       -0.0038621487
	             0.0029394165       -0.0008532249       -0.0065787412
	            -0.0050701620        0.0024810935        0.0008758950
	            -0.0036692346       -0.0032492806        0.0018378120
	             0.0031106318        0.0028702769       -0.0025701343
	             0.0003144160       -0.0021389825        0.0019345806
	             0.0027326586        0.0002206407        0.0002466969

	Previous optimization step data not found.  Starting new optimization.

	---Fragment 1 Intrafragment Coordinates---
	 - Coordinate -           - BOHR/RAD -       - ANG/DEG -
	 R(1,2)           =         2.634350	       1.394038
	 R(1,3)           =         2.635962	       1.394891
	 R(1,14)          =         2.053412	       1.086619
	 R(2,4)           =         2.635830	       1.394821
	 R(2,15)          =         2.053063	       1.086434
	 R(3,9)           =         2.635830	       1.394821
	 R(3,16)          =         2.054959	       1.087437
	 R(4,11)          =         2.636938	       1.395407
	 R(4,17)          =         2.052891	       1.086343
	 R(5,7)           =         2.618447	       1.385622
	 R(5,10)          =         2.627300	       1.390307
	 R(5,18)          =         2.050921	       1.085300
	 R(6,8)           =         2.618144	       1.385462
	 R(6,10)          =         2.628126	       1.390744
	 R(6,19)          =         2.050859	       1.085268
	 R(7,12)          =         2.554558	       1.351814
	 R(7,20)          =         2.050157	       1.084896
	 R(8,12)          =         2.555244	       1.352177
	 R(8,21)          =         2.049879	       1.084749
	 R(9,10)          =         2.734494	       1.447032
	 R(9,11)          =         2.635263	       1.394521
	 R(11,13)         =         2.534514	       1.341207
	 B(1,2,4)         =         2.094553	     120.009056
	 B(1,2,15)        =         2.094721	     120.018646
	 B(1,3,9)         =         2.093692	     119.959722
	 B(1,3,16)        =         2.079074	     119.122177
	 B(2,1,3)         =         2.094940	     120.031219
	 B(2,1,14)        =         2.094311	     119.995189
	 B(2,4,11)        =         2.094306	     119.994870
	 B(2,4,17)        =         2.095140	     120.042665
	 B(3,1,14)        =         2.093934	     119.973570
	 B(3,9,10)        =         2.090528	     119.778448
	 B(3,9,11)        =         2.095181	     120.045019
	 B(4,2,15)        =         2.093912	     119.972298
	 B(4,11,9)        =         2.093699	     119.960108
	 B(4,11,13)       =         2.081063	     119.236128
	 B(5,7,12)        =         2.165300	     124.062556
	 B(5,7,20)        =         2.107745	     120.764875
	 B(5,10,6)        =         2.089651	     119.728182
	 B(5,10,9)        =         2.097278	     120.165204
	 B(6,8,12)        =         2.165462	     124.071805
	 B(6,8,21)        =         2.107899	     120.773745
	 B(6,10,9)        =         2.096256	     120.106608
	 B(7,5,10)        =         2.057991	     117.914204
	 B(7,5,18)        =         2.098754	     120.249754
	 B(7,12,8)        =         2.030339	     116.329827
	 B(8,6,10)        =         2.057628	     117.893391
	 B(8,6,19)        =         2.099672	     120.302316
	 B(9,3,16)        =         2.110419	     120.918077
	 B(9,11,13)       =         2.108422	     120.803676
	 B(10,5,18)       =         2.126440	     121.836013
	 B(10,6,19)       =         2.125885	     121.804235
	 B(10,9,11)       =         2.097476	     120.176533
	 B(11,4,17)       =         2.093740	     119.962450
	 B(12,7,20)       =         2.010138	     115.172433
	 B(12,8,21)       =         2.009823	     115.154399
	 D(1,2,4,11)      =        -0.000325	      -0.018609
	 D(1,2,4,17)      =        -3.141151	    -179.974682
	 D(1,3,9,10)      =        -3.141334	    -179.985190
	 D(1,3,9,11)      =         0.000325	       0.018608
	 D(2,1,3,9)       =        -0.000348	      -0.019945
	 D(2,1,3,16)      =        -3.140969	    -179.964243
	 D(2,4,11,9)      =         0.000301	       0.017261
	 D(2,4,11,13)     =         3.140029	     179.910408
	 D(3,1,2,4)       =         0.000348	       0.019955
	 D(3,1,2,15)      =        -3.141142	    -179.974167
	 D(3,9,10,5)      =        -2.094451	    -120.003196
	 D(3,9,10,6)      =         1.046620	      59.966888
	 D(3,9,11,4)      =        -0.000301	      -0.017270
	 D(3,9,11,13)     =        -3.139999	    -179.908714
	 D(4,2,1,14)      =         3.141002	     179.966134
	 D(4,11,9,10)     =         3.141358	     179.986543
	 D(5,7,12,8)      =         0.000374	       0.021405
	 D(5,10,6,8)      =         0.001122	       0.064263
	 D(5,10,6,19)     =         3.141198	     179.977411
	 D(5,10,9,11)     =         1.047075	      59.993001
	 D(6,8,12,7)      =         0.000373	       0.021370
	 D(6,10,5,7)      =        -0.000453	      -0.025976
	 D(6,10,5,18)     =        -3.140985	    -179.965194
	 D(6,10,9,11)     =        -2.095039	    -120.036915
	 D(7,5,10,9)      =         3.140619	     179.944222
	 D(7,12,8,21)     =         3.140539	     179.939615
	 D(8,6,10,9)      =        -3.139951	    -179.905952
	 D(8,12,7,20)     =         3.139632	     179.887649
	 D(9,3,1,14)      =        -3.141002	    -179.966136
	 D(9,10,5,18)     =         0.000087	       0.005003
	 D(9,10,6,19)     =         0.000126	       0.007196
	 D(9,11,4,17)     =         3.141128	     179.973370
	 D(10,5,7,12)     =        -0.000326	      -0.018674
	 D(10,5,7,20)     =        -3.139460	    -179.877796
	 D(10,6,8,12)     =        -0.001117	      -0.063992
	 D(10,6,8,21)     =        -3.141206	    -179.977862
	 D(10,9,3,16)     =        -0.000731	      -0.041910
	 D(10,9,11,13)    =         0.001660	       0.095099
	 D(11,4,2,15)     =         3.141165	     179.975516
	 D(11,9,3,16)     =         3.140927	     179.961888
	 D(12,7,5,18)     =         3.140223	     179.921549
	 D(12,8,6,19)     =        -3.141217	    -179.978500
	 D(13,11,4,17)    =        -0.002330	      -0.133484
	 D(14,1,2,15)     =        -0.000488	      -0.027988
	 D(14,1,3,16)     =         0.001563	       0.089566
	 D(15,2,4,17)     =         0.000339	       0.019443
	 D(18,5,7,20)     =         0.001090	       0.062427
	 D(19,6,8,21)     =         0.001879	       0.107630
	 R(5,13)          =         5.690678	       3.011377

	Current energy   :      -577.7236315811

	Using model Hessian from Lindh (1995).
	 - Coordinate -           - BOHR/RAD -       - ANG/DEG -
	 R(1,2)           =         2.634350	       1.394038
	 R(1,3)           =         2.635962	       1.394891
	 R(1,14)          =         2.053412	       1.086619
	 R(2,4)           =         2.635830	       1.394821
	 R(2,15)          =         2.053063	       1.086434
	 R(3,9)           =         2.635830	       1.394821
	 R(3,16)          =         2.054959	       1.087437
	 R(4,11)          =         2.636938	       1.395407
	 R(4,17)          =         2.052891	       1.086343
	 R(5,7)           =         2.618447	       1.385622
	 R(5,10)          =         2.627300	       1.390307
	 R(5,18)          =         2.050921	       1.085300
	 R(6,8)           =         2.618144	       1.385462
	 R(6,10)          =         2.628126	       1.390744
	 R(6,19)          =         2.050859	       1.085268
	 R(7,12)          =         2.554558	       1.351814
	 R(7,20)          =         2.050157	       1.084896
	 R(8,12)          =         2.555244	       1.352177
	 R(8,21)          =         2.049879	       1.084749
	 R(9,10)          =         2.734494	       1.447032
	 R(9,11)          =         2.635263	       1.394521
	 R(11,13)         =         2.534514	       1.341207
	 R(12,20)         =         3.896687	       2.062038
	 R(12,21)         =         3.896684	       2.062036
	 B(1,2,4)         =         2.094553	     120.009056
	 B(1,2,15)        =         2.094721	     120.018646
	 B(1,3,9)         =         2.093692	     119.959722
	 B(1,3,16)        =         2.079074	     119.122177
	 B(2,1,3)         =         2.094940	     120.031219
	 B(2,1,14)        =         2.094311	     119.995189
	 B(2,4,11)        =         2.094306	     119.994870
	 B(2,4,17)        =         2.095140	     120.042665
	 B(3,1,14)        =         2.093934	     119.973570
	 B(3,9,10)        =         2.090528	     119.778448
	 B(3,9,11)        =         2.095181	     120.045019
	 B(4,2,15)        =         2.093912	     119.972298
	 B(4,11,9)        =         2.093699	     119.960108
	 B(4,11,13)       =         2.081063	     119.236128
	 B(5,7,12)        =         2.165300	     124.062556
	 B(5,7,20)        =         2.107745	     120.764875
	 B(5,10,6)        =         2.089651	     119.728182
	 B(5,10,9)        =         2.097278	     120.165204
	 B(6,8,12)        =         2.165462	     124.071805
	 B(6,8,21)        =         2.107899	     120.773745
	 B(6,10,9)        =         2.096256	     120.106608
	 B(7,5,10)        =         2.057991	     117.914204
	 B(7,5,18)        =         2.098754	     120.249754
	 B(7,12,8)        =         2.030339	     116.329827
	 B(7,12,20)       =         0.496286	      28.435082
	 B(7,12,21)       =         2.526631	     144.765298
	 B(7,20,12)       =         0.635169	      36.392485
	 B(8,6,10)        =         2.057628	     117.893391
	 B(8,6,19)        =         2.099672	     120.302316
	 B(8,12,20)       =         2.526623	     144.764828
	 B(8,12,21)       =         0.496293	      28.435494
	 B(8,21,12)       =         0.635476	      36.410107
	 B(9,3,16)        =         2.110419	     120.918077
	 B(9,11,13)       =         2.108422	     120.803676
	 B(10,5,18)       =         2.126440	     121.836013
	 B(10,6,19)       =         2.125885	     121.804235
	 B(10,9,11)       =         2.097476	     120.176533
	 B(11,4,17)       =         2.093740	     119.962450
	 B(12,7,20)       =         2.010138	     115.172433
	 B(12,8,21)       =         2.009823	     115.154399
	 B(20,12,21)      =         3.022916	     173.200300
	 D(1,2,4,11)      =        -0.000325	      -0.018609
	 D(1,2,4,17)      =        -3.141151	    -179.974682
	 D(1,3,9,10)      =        -3.141334	    -179.985190
	 D(1,3,9,11)      =         0.000325	       0.018608
	 D(2,1,3,9)       =        -0.000348	      -0.019945
	 D(2,1,3,16)      =        -3.140969	    -179.964243
	 D(2,4,11,9)      =         0.000301	       0.017261
	 D(2,4,11,13)     =         3.140029	     179.910408
	 D(3,1,2,4)       =         0.000348	       0.019955
	 D(3,1,2,15)      =        -3.141142	    -179.974167
	 D(3,9,10,5)      =        -2.094451	    -120.003196
	 D(3,9,10,6)      =         1.046620	      59.966888
	 D(3,9,11,4)      =        -0.000301	      -0.017270
	 D(3,9,11,13)     =        -3.139999	    -179.908714
	 D(4,2,1,14)      =         3.141002	     179.966134
	 D(4,11,9,10)     =         3.141358	     179.986543
	 D(5,7,12,8)      =         0.000374	       0.021405
	 D(5,7,12,20)     =        -3.139258	    -179.866244
	 D(5,7,12,21)     =         0.001243	       0.071244
	 D(5,7,20,12)     =         3.139342	     179.871046
	 D(5,10,6,8)      =         0.001122	       0.064263
	 D(5,10,6,19)     =         3.141198	     179.977411
	 D(5,10,9,11)     =         1.047075	      59.993001
	 D(6,8,12,7)      =         0.000373	       0.021370
	 D(6,8,12,20)     =         0.001991	       0.114097
	 D(6,8,12,21)     =        -3.140166	    -179.918245
	 D(6,8,21,12)     =         3.140217	     179.921181
	 D(6,10,5,7)      =        -0.000453	      -0.025976
	 D(6,10,5,18)     =        -3.140985	    -179.965194
	 D(6,10,9,11)     =        -2.095039	    -120.036915
	 D(7,5,10,9)      =         3.140619	     179.944222
	 D(7,12,8,21)     =         3.140539	     179.939615
	 D(7,12,21,8)     =        -0.001637	      -0.093808
	 D(7,20,12,8)     =        -0.003046	      -0.174535
	 D(7,20,12,21)    =        -0.005316	      -0.304605
	 D(8,6,10,9)      =        -3.139951	    -179.905952
	 D(8,12,7,20)     =         3.139632	     179.887649
	 D(8,21,12,20)    =         0.002751	       0.157595
	 D(9,3,1,14)      =        -3.141002	    -179.966136
	 D(9,10,5,18)     =         0.000087	       0.005003
	 D(9,10,6,19)     =         0.000126	       0.007196
	 D(9,11,4,17)     =         3.141128	     179.973370
	 D(10,5,7,12)     =        -0.000326	      -0.018674
	 D(10,5,7,20)     =        -3.139460	    -179.877796
	 D(10,6,8,12)     =        -0.001117	      -0.063992
	 D(10,6,8,21)     =        -3.141206	    -179.977862
	 D(10,9,3,16)     =        -0.000731	      -0.041910
	 D(10,9,11,13)    =         0.001660	       0.095099
	 D(11,4,2,15)     =         3.141165	     179.975516
	 D(11,9,3,16)     =         3.140927	     179.961888
	 D(12,7,5,18)     =         3.140223	     179.921549
	 D(12,8,6,19)     =        -3.141217	    -179.978500
	 D(13,11,4,17)    =        -0.002330	      -0.133484
	 D(14,1,2,15)     =        -0.000488	      -0.027988
	 D(14,1,3,16)     =         0.001563	       0.089566
	 D(15,2,4,17)     =         0.000339	       0.019443
	 D(18,5,7,20)     =         0.001090	       0.062427
	 D(19,6,8,21)     =         0.001879	       0.107630
	 D(20,7,12,21)    =         3.140502	     179.937488
	 D(20,12,8,21)    =        -3.141028	    -179.967658

	Adding user-defined constraint: Fragment 1; Coordinate 67:
		Value =    -2.094451; Fixed value    =    -2.094395
		Force =     0.000028; Force constant =     0.500000
	Removing off-diagonal coupling between coordinate 67 and others.
	Taking RFO optimization step.
	Going to follow RFO solution 1.
	Using RFO vector 1.

	Determining step-restricting scale parameter for RS-RFO.
	Maximum step size allowed    0.10000

	 Iter      |step|        alpha        rfo_root  
	------------------------------------------------
	    0     0.18298       1.00000           1
	    1     0.13789       3.20655           1
	    2     0.11550       6.61866           1
	    3     0.10454      10.55171           1
	    4     0.10056      12.80009           1
	    5     0.10001      13.15522           1
	------------------------------------------------
	Norm of target step-size    0.10001
	Projected energy change by RFO approximation:        -0.0037232669

	Back-transformation to cartesian coordinates...
	Could not converge backtransformation.
	Using first guess instead.

	--- Internal Coordinate Step in ANG or DEG, aJ/ANG or AJ/DEG ---
	 ---------------------------------------------------------------------------
	   Coordinate                Previous        Force       Change         New 
	   ----------                --------       ------       ------       ------
	    1 R(1,2)          =      1.394038    -0.046835    -0.004382     1.389656
	    2 R(1,3)          =      1.394891    -0.053624    -0.004836     1.390056
	    3 R(1,14)         =      1.086619    -0.044167    -0.005274     1.081346
	    4 R(2,4)          =      1.394821    -0.066084    -0.006268     1.388554
	    5 R(2,15)         =      1.086434    -0.045696    -0.005432     1.081002
	    6 R(3,9)          =      1.394821    -0.026664    -0.002085     1.392736
	    7 R(3,16)         =      1.087437    -0.048346    -0.005694     1.081743
	    8 R(4,11)         =      1.395407    -0.106931    -0.009832     1.385575
	    9 R(4,17)         =      1.086343    -0.044178    -0.005157     1.081186
	   10 R(5,7)          =      1.385622     0.000895     0.000069     1.385691
	   11 R(5,10)         =      1.390307    -0.018999    -0.001015     1.389292
	   12 R(5,18)         =      1.085300    -0.039507    -0.004678     1.080622
	   13 R(6,8)          =      1.385462     0.005227     0.000466     1.385929
	   14 R(6,10)         =      1.390744    -0.021225    -0.001222     1.389522
	   15 R(6,19)         =      1.085268    -0.036567    -0.004350     1.080918
	   16 R(7,12)         =      1.351814    -0.116166    -0.009875     1.341939
	   17 R(7,20)         =      1.084896    -0.023130    -0.002656     1.082241
	   18 R(8,12)         =      1.352177    -0.122777    -0.010429     1.341748
	   19 R(8,21)         =      1.084749    -0.021814    -0.002497     1.082253
	   20 R(9,10)         =      1.447032     0.134787     0.014551     1.461583
	   21 R(9,11)         =      1.394521    -0.058139    -0.004575     1.389947
	   22 R(11,13)        =      1.341207    -0.019855    -0.001502     1.339705
	   23 B(1,2,4)        =    120.009056     0.000047     0.082246   120.091302
	   24 B(1,2,15)       =    120.018646     0.000068     0.203899   120.222545
	   25 B(1,3,9)        =    119.959722     0.000291     0.763531   120.723253
	   26 B(1,3,16)       =    119.122177     0.000186     0.504232   119.626410
	   27 B(2,1,3)        =    120.031219    -0.000093    -0.167363   119.863856
	   28 B(2,1,14)       =    119.995189     0.000046     0.083723   120.078913
	   29 B(2,4,11)       =    119.994870    -0.000274    -0.637787   119.357084
	   30 B(2,4,17)       =    120.042665     0.000289     0.729311   120.771976
	   31 B(3,1,14)       =    119.973570     0.000046     0.083493   120.057062
	   32 B(3,9,10)       =    119.778448     0.000522     1.021550   120.799998
	   33 B(3,9,11)       =    120.045019    -0.000762    -1.624023   118.420996
	   34 B(4,2,15)       =    119.972298    -0.000115    -0.286194   119.686104
	   35 B(4,11,9)       =    119.960108     0.000790     1.582878   121.542987
	   36 B(4,11,13)      =    119.236128    -0.000100    -0.323194   118.912933
	   37 B(5,7,12)       =    124.062556    -0.000020    -0.113877   123.948679
	   38 B(5,7,20)       =    120.764875    -0.000047    -0.097021   120.667853
	   39 B(5,10,6)       =    119.728182    -0.000807    -1.561319   118.166863
	   40 B(5,10,9)       =    120.165204     0.000420     0.877802   121.043006
	   41 B(6,8,12)       =    124.071805    -0.000039    -0.156290   123.915515
	   42 B(6,8,21)       =    120.773745    -0.000039    -0.076679   120.697066
	   43 B(6,10,9)       =    120.106608     0.000387     0.680414   120.787022
	   44 B(7,5,10)       =    117.914204     0.000343     0.860101   118.774305
	   45 B(7,5,18)       =    120.249754    -0.000008    -0.001511   120.248243
	   46 B(7,12,8)       =    116.329827     0.000162     0.070991   116.400819
	   47 B(8,6,10)       =    117.893391     0.000361     0.900387   118.793779
	   48 B(8,6,19)       =    120.302316    -0.000016    -0.020416   120.281900
	   49 B(9,3,16)       =    120.918077    -0.000477    -1.268027   119.650050
	   50 B(9,11,13)      =    120.803676    -0.000690    -1.260736   119.542940
	   51 B(10,5,18)      =    121.836013    -0.000335    -0.858728   120.977285
	   52 B(10,6,19)      =    121.804235    -0.000345    -0.879971   120.924264
	   53 B(10,9,11)      =    120.176533     0.000240     0.601362   120.777895
	   54 B(11,4,17)      =    119.962450    -0.000016    -0.091510   119.870940
	   55 B(12,7,20)      =    115.172433     0.000067     0.210813   115.383246
	   56 B(12,8,21)      =    115.154399     0.000077     0.232752   115.387151
	   57 D(1,2,4,11)     =     -0.018609    -0.000000    -0.026694    -0.045303
	   58 D(1,2,4,17)     =   -179.974682    -0.000001    -0.059729  -180.034411
	   59 D(1,3,9,10)     =   -179.985190    -0.000002    -0.231590  -180.216780
	   60 D(1,3,9,11)     =      0.018608     0.000002     0.145147     0.163755
	   61 D(2,1,3,9)      =     -0.019945     0.000001     0.026034     0.006089
	   62 D(2,1,3,16)     =   -179.964243    -0.000004    -0.225567  -180.189811
	   63 D(2,4,11,9)     =      0.017261     0.000003     0.205663     0.222925
	   64 D(2,4,11,13)    =    179.910408    -0.000001    -0.077826   179.832582
	   65 D(3,1,2,4)      =      0.019955    -0.000002    -0.086780    -0.066826
	   66 D(3,1,2,15)     =   -179.974167    -0.000000    -0.012004  -179.986171
	   67 D(3,9,10,5)     =   -120.003196    -0.000017    -0.198782  -120.201978
	   68 D(3,9,10,6)     =     59.966888    -0.000024    -0.822118    59.144770
	   69 D(3,9,11,4)     =     -0.017270    -0.000004    -0.263015    -0.280285
	   70 D(3,9,11,13)    =   -179.908714     0.000000     0.021180  -179.887533
	   71 D(4,2,1,14)     =    179.966134    -0.000003    -0.182630   179.783504
	   72 D(4,11,9,10)    =    179.986543     0.000000     0.113620   180.100163
	   73 D(5,7,12,8)     =      0.021405    -0.000001    -0.064415    -0.043010
	   74 D(5,10,6,8)     =      0.064263     0.000001    -0.083056    -0.018793
	   75 D(5,10,6,19)    =    179.977411     0.000004     0.090670   180.068081
	   76 D(5,10,9,11)    =     59.993001    -0.000021    -0.584514    59.408488
	   77 D(6,8,12,7)     =      0.021370     0.000001     0.049184     0.070554
	   78 D(6,10,5,7)     =     -0.025976    -0.000001     0.069728     0.043753
	   79 D(6,10,5,18)    =   -179.965194     0.000001     0.157175  -179.808019
	   80 D(6,10,9,11)    =   -120.036915    -0.000028    -1.207849  -121.244764
	   81 D(7,5,10,9)     =    179.944222    -0.000008    -0.537047   179.407175
	   82 D(7,12,8,21)    =    179.939615    -0.000002    -0.056516   179.883099
	   83 D(8,6,10,9)     =   -179.905952     0.000007     0.522036  -179.383916
	   84 D(8,12,7,20)    =    179.887649    -0.000001    -0.101262   179.786387
	   85 D(9,3,1,14)     =   -179.966136     0.000002     0.121862  -179.844274
	   86 D(9,10,5,18)    =      0.005003    -0.000005    -0.449601    -0.444597
	   87 D(9,10,6,19)    =      0.007196     0.000010     0.695762     0.702958
	   88 D(9,11,4,17)    =    179.973370     0.000004     0.238762   180.212132
	   89 D(10,5,7,12)    =     -0.018674     0.000002     0.005550    -0.013124
	   90 D(10,5,7,20)    =   -179.877796     0.000002     0.043867  -179.833929
	   91 D(10,6,8,12)    =     -0.063992    -0.000001     0.023145    -0.040847
	   92 D(10,6,8,21)    =   -179.977862     0.000002     0.133965  -179.843897
	   93 D(10,9,3,16)    =     -0.041910     0.000002     0.021075    -0.020835
	   94 D(10,9,11,13)   =      0.095099     0.000005     0.397815     0.492914
	   95 D(11,4,2,15)    =    179.975516    -0.000002    -0.101040   179.874476
	   96 D(11,9,3,16)    =    179.961888     0.000007     0.397813   180.359701
	   97 D(12,7,5,18)    =    179.921549    -0.000001    -0.081789   179.839760
	   98 D(12,8,6,19)    =   -179.978500    -0.000004    -0.148648  -180.127147
	   99 D(13,11,4,17)   =     -0.133484    -0.000000    -0.044727    -0.178211
	  100 D(14,1,2,15)    =     -0.027988    -0.000002    -0.107853    -0.135840
	  101 D(14,1,3,16)    =      0.089566    -0.000002    -0.129740    -0.040174
	  102 D(15,2,4,17)    =      0.019443    -0.000003    -0.134075    -0.114632
	  103 D(18,5,7,20)    =      0.062427    -0.000001    -0.043472     0.018955
	  104 D(19,6,8,21)    =      0.107630    -0.000001    -0.037828     0.069803
	  105 R(5,13)         =      3.011377     0.006716     0.004604     3.015981
	 ---------------------------------------------------------------------------
	Successfully symmetrized geometry.
	 Forces used to impose fixed constraints are not included.
	  Forces zeroed: 67 

  ==> Convergence Check <==

  Measures of convergence in internal coordinates in au.
  Criteria marked as inactive (o), active & met (*), and active & unmet ( ).
  --------------------------------------------------------------------------------------------- ~
   Step     Total Energy     Delta E     MAX Force     RMS Force      MAX Disp      RMS Disp    ~
  --------------------------------------------------------------------------------------------- ~
    Convergence Criteria    1.00e-06 *    3.00e-04 *             o    1.20e-03 *             o  ~
  --------------------------------------------------------------------------------------------- ~
      1    -577.72363158   -5.78e+02      1.64e-02      4.32e-03 o    2.83e-02      9.77e-03 o  ~
  ---------------------------------------------------------------------------------------------

	Writing optimization data to binary file.
	Structure for next step:
	Cartesian Geometry (in Angstrom)
	    C    -1.3821981134   0.8540921814  -2.6684144262
	    C    -2.4596927247   1.4180698142  -1.9960467118
	    C    -0.3487193428   0.2653695861  -1.9489829270
	    C    -2.5050444079   1.3926042788  -0.6084676511
	    C     0.4599864256  -1.4599586575   1.0524649237
	    C     2.0113581579   0.0657533150   0.0783712224
	    C     1.5240865628  -2.0226451436   1.7389159088
	    C     3.0086172867  -0.5633861995   0.8066952791
	    C    -0.3791223359   0.2330488866  -0.5569535748
	    C     0.7043391867  -0.3896908785   0.2010240879
	    C    -1.4683247029   0.8000242079   0.0942978903
	    N     2.7924348101  -1.5969870770   1.6344766565
	    F    -1.5195397147   0.7834477009   1.4329208298
	    H    -1.3487760833   0.8709324033  -3.7491121479
	    H    -3.2666499700   1.8772150547  -2.5497348013
	    H     0.4866818520  -0.1752288109  -2.4763785784
	    H    -3.3377488715   1.8285581756  -0.0741350435
	    H    -0.5386627792  -1.8527057172   1.1797187645
	    H     2.2516728055   0.8960793922  -0.5706209737
	    H     1.3690373959  -2.8590668385   2.4079475759
	    H     4.0365952599  -0.2323340060   0.7364348253
			--------------------------
			 OPTKING Finished Execution 
			--------------------------

    Structure for next step:
    Molecular point group: c1
    Full point group: C1

    Geometry (in Angstrom), charge = 0, multiplicity = 1:

    C           -1.381427893772     0.854108827257    -2.664311886432
    C           -2.458922505127     1.418086460083    -1.991944172045
    C           -0.347949123264     0.265386231910    -1.944880387261
    C           -2.504274188309     1.392620924664    -0.604365111386
    C            0.460756645184    -1.459942011627     1.056567463465
    C            2.012128377456     0.065769960834     0.082473762139
    C            1.524856782422    -2.022628497771     1.743018448536
    C            3.009387506322    -0.563369553610     0.810797818839
    C           -0.378352116291     0.233065532487    -0.552851035086
    C            0.705109406318    -0.389674232690     0.205126627667
    C           -1.467554483346     0.800040853768     0.098400430085
    N            2.793205029652    -1.596970431140     1.638579196302
    F           -1.518769495163     0.783464346699     1.437023369579
    H           -1.348005863698     0.870949049196    -3.745009608111
    H           -3.265879750369     1.877231700562    -2.545632261506
    H            0.487452071630    -0.175212165031    -2.472276038685
    H           -3.336978651902     1.828574821414    -0.070032503774
    H           -0.537892559617    -1.852689071399     1.183821304258
    H            2.252443025059     0.896096038057    -0.566518433970
    H            1.369807615512    -2.859050192692     2.412050115708
    H            4.037365479442    -0.232317360180     0.740537365091

gradient() will perform analytic gradient computation.

*** tstart() called on gpu-2-11.local
*** at Tue Nov 14 03:16:07 2017

    SCF Algorithm Type (re)set to DF.

*** tstart() called on gpu-2-11.local
*** at Tue Nov 14 03:16:07 2017

   => Loading Basis Set <=

    Name: AUG-CC-PVTZ
    Role: ORBITAL
    Keyword: BASIS
    atoms 1-11  entry C          line   221 file /cbio/jclab/home/chayas/anaconda/envs/py35/share/psi4/basis/aug-cc-pvtz.gbs 
    atoms 12    entry N          line   267 file /cbio/jclab/home/chayas/anaconda/envs/py35/share/psi4/basis/aug-cc-pvtz.gbs 
    atoms 13    entry F          line   359 file /cbio/jclab/home/chayas/anaconda/envs/py35/share/psi4/basis/aug-cc-pvtz.gbs 
    atoms 14-21 entry H          line    34 file /cbio/jclab/home/chayas/anaconda/envs/py35/share/psi4/basis/aug-cc-pvtz.gbs 


         ---------------------------------------------------------
                                   SCF
            by Justin Turney, Rob Parrish, and Andy Simmonett
                              RHF Reference
                        8 Threads,   4768 MiB Core
         ---------------------------------------------------------

  ==> Geometry <==

    Molecular point group: c1
    Full point group: C1

    Geometry (in Angstrom), charge = 0, multiplicity = 1:

       Center              X                  Y                   Z               Mass       
    ------------   -----------------  -----------------  -----------------  -----------------
           C         -1.381427893772     0.854108827257    -2.664311886432    12.000000000000
           C         -2.458922505127     1.418086460083    -1.991944172045    12.000000000000
           C         -0.347949123264     0.265386231910    -1.944880387261    12.000000000000
           C         -2.504274188309     1.392620924664    -0.604365111386    12.000000000000
           C          0.460756645184    -1.459942011627     1.056567463465    12.000000000000
           C          2.012128377456     0.065769960834     0.082473762139    12.000000000000
           C          1.524856782422    -2.022628497771     1.743018448536    12.000000000000
           C          3.009387506322    -0.563369553610     0.810797818839    12.000000000000
           C         -0.378352116291     0.233065532487    -0.552851035086    12.000000000000
           C          0.705109406318    -0.389674232690     0.205126627667    12.000000000000
           C         -1.467554483346     0.800040853768     0.098400430085    12.000000000000
           N          2.793205029652    -1.596970431140     1.638579196302    14.003074004780
           F         -1.518769495163     0.783464346699     1.437023369579    18.998403224000
           H         -1.348005863698     0.870949049196    -3.745009608111     1.007825032070
           H         -3.265879750369     1.877231700562    -2.545632261506     1.007825032070
           H          0.487452071630    -0.175212165031    -2.472276038685     1.007825032070
           H         -3.336978651902     1.828574821414    -0.070032503774     1.007825032070
           H         -0.537892559617    -1.852689071399     1.183821304258     1.007825032070
           H          2.252443025059     0.896096038057    -0.566518433970     1.007825032070
           H          1.369807615512    -2.859050192692     2.412050115708     1.007825032070
           H          4.037365479442    -0.232317360180     0.740537365091     1.007825032070

  Running in c1 symmetry.

  Rotational constants: A =      0.06489  B =      0.01762  C =      0.01516 [cm^-1]
  Rotational constants: A =   1945.32216  B =    528.22630  C =    454.63123 [MHz]
  Nuclear repulsion =  715.590002211563842

  Charge       = 0
  Multiplicity = 1
  Electrons    = 90
  Nalpha       = 45
  Nbeta        = 45

  ==> Algorithm <==

  SCF Algorithm Type is DF.
  DIIS enabled.
  MOM disabled.
  Fractional occupation disabled.
  Guess Type is READ.
  Energy threshold   = 1.00e-10
  Density threshold  = 1.00e-10
  Integral threshold = 0.00e+00

  ==> Primary Basis <==

  Basis Set: AUG-CC-PVTZ
    Blend: AUG-CC-PVTZ
    Number of shells: 254
    Number of basis function: 782
    Number of Cartesian functions: 915
    Spherical Harmonics?: true
    Max angular momentum: 3

   => Loading Basis Set <=

    Name: (AUG-CC-PVTZ AUX)
    Role: JKFIT
    Keyword: DF_BASIS_SCF
    atoms 1-11  entry C          line   161 file /cbio/jclab/home/chayas/anaconda/envs/py35/share/psi4/basis/aug-cc-pvtz-jkfit.gbs 
    atoms 12    entry N          line   223 file /cbio/jclab/home/chayas/anaconda/envs/py35/share/psi4/basis/aug-cc-pvtz-jkfit.gbs 
    atoms 13    entry F          line   347 file /cbio/jclab/home/chayas/anaconda/envs/py35/share/psi4/basis/aug-cc-pvtz-jkfit.gbs 
    atoms 14-21 entry H          line    69 file /cbio/jclab/home/chayas/anaconda/envs/py35/share/psi4/basis/aug-cc-pvtz-jkfit.gbs 

  Reading orbitals from file 180, no projection.

  ==> Pre-Iterations <==

   -------------------------------------------------------
    Irrep   Nso     Nmo     Nalpha   Nbeta   Ndocc  Nsocc
   -------------------------------------------------------
     A        782     782       0       0       0       0
   -------------------------------------------------------
    Total     782     782      45      45      45       0
   -------------------------------------------------------

  ==> Integral Setup <==

  ==> DFJK: Density-Fitted J/K Matrices <==

    J tasked:                  Yes
    K tasked:                  Yes
    wK tasked:                  No
    OpenMP threads:              8
    Integrals threads:           8
    Memory (MB):              3576
    Algorithm:                Disk
    Integral Cache:           NONE
    Schwarz Cutoff:          1E-12
    Fitting Condition:       1E-12

   => Auxiliary Basis Set <=

  Basis Set: (AUG-CC-PVTZ AUX)
    Blend: AUG-CC-PVTZ-JKFIT
    Number of shells: 502
    Number of basis function: 1720
    Number of Cartesian functions: 2143
    Spherical Harmonics?: true
    Max angular momentum: 4

  Minimum eigenvalue in the overlap matrix is 6.4736772085E-07.
  Using Symmetric Orthogonalization.

  SCF Guess: Orbitals guess was supplied from a previous computation.

  ==> Iterations <==

                           Total Energy        Delta E     RMS |[F,P]|

   @DF-RHF iter   0:  -575.35765700606066   -5.75358e+02   4.34318e-04 
   @DF-RHF iter   1:  -575.28837472343423    6.92823e-02   1.02328e-04 
   @DF-RHF iter   2:  -575.28871729055516   -3.42567e-04   6.27485e-05 DIIS
   @DF-RHF iter   3:  -575.28890588197248   -1.88591e-04   1.07108e-05 DIIS
   @DF-RHF iter   4:  -575.28891255007534   -6.66810e-06   4.74005e-06 DIIS
   @DF-RHF iter   5:  -575.28891468380448   -2.13373e-06   1.50817e-06 DIIS
   @DF-RHF iter   6:  -575.28891518155581   -4.97751e-07   9.39438e-07 DIIS
   @DF-RHF iter   7:  -575.28891536727838   -1.85723e-07   3.46770e-07 DIIS
   @DF-RHF iter   8:  -575.28891540754967   -4.02713e-08   1.16321e-07 DIIS
   @DF-RHF iter   9:  -575.28891541074745   -3.19778e-09   4.47832e-08 DIIS
   @DF-RHF iter  10:  -575.28891541103565   -2.88196e-10   1.34795e-08 DIIS
   @DF-RHF iter  11:  -575.28891541107339   -3.77440e-11   3.92783e-09 DIIS
   @DF-RHF iter  12:  -575.28891541107987   -6.48015e-12   1.69082e-09 DIIS
   @DF-RHF iter  13:  -575.28891541108817   -8.29914e-12   7.01394e-10 DIIS
   @DF-RHF iter  14:  -575.28891541107419    1.39835e-11   2.95329e-10 DIIS
   @DF-RHF iter  15:  -575.28891541108987   -1.56888e-11   1.17270e-10 DIIS
   @DF-RHF iter  16:  -575.28891541108294    6.93490e-12   4.69317e-11 DIIS

  ==> Post-Iterations <==

    Orbital Energies (a.u.)
    -----------------------

    Doubly Occupied:                                                      

       1A    -26.319566     2A    -15.565458     3A    -11.338554  
       4A    -11.274434     5A    -11.273600     6A    -11.268315  
       7A    -11.261027     8A    -11.256889     9A    -11.256136  
      10A    -11.252004    11A    -11.247932    12A    -11.240761  
      13A    -11.239361    14A     -1.639940    15A     -1.257261  
      16A     -1.185010    17A     -1.114843    18A     -1.038101  
      19A     -1.034422    20A     -1.028096    21A     -0.892031  
      22A     -0.869190    23A     -0.850982    24A     -0.825147  
      25A     -0.756887    26A     -0.723452    27A     -0.714291  
      28A     -0.706442    29A     -0.670909    30A     -0.665997  
      31A     -0.652571    32A     -0.626079    33A     -0.612316  
      34A     -0.599037    35A     -0.590799    36A     -0.549155  
      37A     -0.537037    38A     -0.526682    39A     -0.516704  
      40A     -0.510016    41A     -0.420638    42A     -0.395482  
      43A     -0.354791    44A     -0.348971    45A     -0.340789  

    Virtual:                                                              

      46A      0.023690    47A      0.030560    48A      0.033646  
      49A      0.036876    50A      0.043712    51A      0.047574  
      52A      0.052737    53A      0.054338    54A      0.075357  
      55A      0.079966    56A      0.085917    57A      0.088559  
      58A      0.092717    59A      0.093768    60A      0.098083  
      61A      0.101738    62A      0.107314    63A      0.107939  
      64A      0.112299    65A      0.113542    66A      0.115168  
      67A      0.118819    68A      0.122154    69A      0.127017  
      70A      0.129011    71A      0.132524    72A      0.134651  
      73A      0.135536    74A      0.143021    75A      0.143476  
      76A      0.147611    77A      0.148306    78A      0.152482  
      79A      0.155134    80A      0.157334    81A      0.170022  
      82A      0.174133    83A      0.175562    84A      0.185674  
      85A      0.187385    86A      0.196946    87A      0.200995  
      88A      0.213059    89A      0.218107    90A      0.224088  
      91A      0.233007    92A      0.236426    93A      0.239829  
      94A      0.241045    95A      0.242138    96A      0.246207  
      97A      0.251863    98A      0.253650    99A      0.259877  
     100A      0.262521   101A      0.267407   102A      0.269765  
     103A      0.273013   104A      0.280896   105A      0.281537  
     106A      0.283496   107A      0.294880   108A      0.296282  
[...]
	 R(5,18)          =         2.039111	       1.079051
	 R(6,8)           =         2.619854	       1.386367
	 R(6,10)          =         2.626378	       1.389820
	 R(6,19)          =         2.040523	       1.079798
	 R(7,12)          =         2.523706	       1.335488
	 R(7,20)          =         2.042370	       1.080776
	 R(8,12)          =         2.521699	       1.334426
	 R(8,21)          =         2.042731	       1.080967
	 R(9,10)          =         2.767433	       1.464463
	 R(9,11)          =         2.623531	       1.388313
	 R(11,13)         =         2.542930	       1.345661
	 B(1,2,4)         =         2.095864	     120.084184
	 B(1,2,15)        =         2.100957	     120.375973
	 B(1,3,9)         =         2.115661	     121.218423
	 B(1,3,16)        =         2.101141	     120.386510
	 B(2,1,3)         =         2.091816	     119.852253
	 B(2,1,14)        =         2.097429	     120.173819
	 B(2,4,11)        =         2.074311	     118.849270
	 B(2,4,17)        =         2.126434	     121.835707
	 B(3,1,14)        =         2.093908	     119.972068
	 B(3,9,10)        =         2.111730	     120.993207
	 B(3,9,11)        =         2.046809	     117.273536
	 B(4,2,15)        =         2.086360	     119.539624
	 B(4,11,9)        =         2.141750	     122.713262
	 B(4,11,13)       =         2.069054	     118.548089
	 B(5,7,12)        =         2.158644	     123.681209
	 B(5,7,20)        =         2.096406	     120.115202
	 B(5,10,6)        =         2.048860	     117.391022
	 B(5,10,9)        =         2.122957	     121.636487
	 B(6,8,12)        =         2.156606	     123.564424
	 B(6,8,21)        =         2.097341	     120.168816
	 B(6,10,9)        =         2.109390	     120.859161
	 B(7,5,10)        =         2.080102	     119.181048
	 B(7,5,18)        =         2.101377	     120.400047
	 B(7,12,8)        =         2.040084	     116.888212
	 B(8,6,10)        =         2.082013	     119.290554
	 B(8,6,19)        =         2.101586	     120.412021
	 B(9,3,16)        =         2.066357	     118.393507
	 B(9,11,13)       =         2.072266	     118.732075
	 B(10,5,18)       =         2.101705	     120.418842
	 B(10,6,19)       =         2.099531	     120.294282
	 B(10,9,11)       =         2.123717	     121.680043
	 B(11,4,17)       =         2.082431	     119.314525
	 B(12,7,20)       =         2.028121	     116.202778
	 B(12,8,21)       =         2.029238	     116.266748
	 D(1,2,4,11)      =         0.001089	       0.062421
	 D(1,2,4,17)      =         3.138167	     179.803717
	 D(1,3,9,10)      =         3.113503	     178.390572
	 D(1,3,9,11)      =         0.017456	       1.000153
	 D(2,1,3,9)       =        -0.006486	      -0.371621
	 D(2,1,3,16)      =         3.127048	     179.166672
	 D(2,4,11,9)      =         0.010836	       0.620851
	 D(2,4,11,13)     =         3.135928	     179.675434
	 D(3,1,2,4)       =        -0.003127	      -0.179155
	 D(3,1,2,15)      =         3.141454	     179.992051
	 D(3,9,10,5)      =        -2.099554	    -120.295583
	 D(3,9,10,6)      =         0.972718	      55.732632
	 D(3,9,11,4)      =        -0.019852	      -1.137455
	 D(3,9,11,13)     =         3.138270	     179.809622
	 D(4,2,1,14)      =         3.129806	     179.324660
	 D(4,11,9,10)     =        -3.115565	    -178.508743
	 D(5,7,12,8)      =        -0.001539	      -0.088174
	 D(5,10,6,8)      =        -0.012016	      -0.688472
	 D(5,10,6,19)     =         3.140786	     179.953761
	 D(5,10,9,11)     =         0.994466	      56.978729
	 D(6,8,12,7)      =         0.000542	       0.031034
	 D(6,10,5,7)      =         0.011093	       0.635558
	 D(6,10,5,18)     =        -3.128922	    -179.274004
	 D(6,10,9,11)     =        -2.216447	    -126.993056
	 D(7,5,10,9)      =         3.085668	     176.795743
	 D(7,12,8,21)     =         3.141416	     179.989870
	 D(8,6,10,9)      =        -3.087142	    -176.880184
	 D(8,12,7,20)     =         3.134325	     179.583585
	 D(9,3,1,14)      =        -3.139436	    -179.876446
	 D(9,10,5,18)     =        -0.054346	      -3.113818
	 D(9,10,6,19)     =         0.065660	       3.762049
	 D(9,11,4,17)     =        -3.126357	    -179.127085
	 D(10,5,7,12)     =        -0.004477	      -0.256517
	 D(10,5,7,20)     =        -3.140127	    -179.916050
	 D(10,6,8,12)     =         0.006448	       0.369435
	 D(10,6,8,21)     =        -3.134400	    -179.587868
	 D(10,9,3,16)     =        -0.020188	      -1.156680
	 D(10,9,11,13)    =         0.042557	       2.438334
	 D(11,4,2,15)     =         3.139719	     179.892650
	 D(11,9,3,16)     =        -3.116235	    -178.547099
	 D(12,7,5,18)     =         3.135537	     179.653061
	 D(12,8,6,19)     =         3.136818	     179.726427
	 D(13,11,4,17)    =        -0.001265	      -0.072501
	 D(14,1,2,15)     =        -0.008799	      -0.504134
	 D(14,1,3,16)     =        -0.005902	      -0.338154
	 D(15,2,4,17)     =        -0.006389	      -0.366055
	 D(18,5,7,20)     =        -0.000113	      -0.006472
	 D(19,6,8,21)     =        -0.004030	      -0.230875
	 R(5,13)          =         5.701012	       3.016845

	Current energy   :      -577.7269393810

	Energy change for the previous step:
		Projected    :        -0.0000363400
		Actual       :        -0.0000006034

	Performing BFGS update.
	Previous computed or guess Hessian on step 1.
	Steps to be used in Hessian update: 6 5
	Adding user-defined constraint: Fragment 1; Coordinate 67:
		Value =    -2.099554; Fixed value    =    -2.094400
		Force =     0.003350; Force constant =     0.650000
	Removing off-diagonal coupling between coordinate 67 and others.
	Taking RFO optimization step.
	Going to follow RFO solution 1.
	Using RFO vector 1.
	Norm of target step-size    0.01291
	Projected energy change by RFO approximation:        -0.0000139480

	Back-transformation to cartesian coordinates...
	Could not converge backtransformation.
	Using first guess instead.

	--- Internal Coordinate Step in ANG or DEG, aJ/ANG or AJ/DEG ---
	 ---------------------------------------------------------------------------
	   Coordinate                Previous        Force       Change         New 
	   ----------                --------       ------       ------       ------
	    1 R(1,2)          =      1.388078     0.000026    -0.000043     1.388035
	    2 R(1,3)          =      1.386293    -0.000397    -0.000109     1.386184
	    3 R(1,14)         =      1.078370     0.000316     0.000072     1.078441
	    4 R(2,4)          =      1.387439    -0.000486    -0.000026     1.387413
	    5 R(2,15)         =      1.078874    -0.000454    -0.000031     1.078843
	    6 R(3,9)          =      1.393627     0.001732     0.000358     1.393985
	    7 R(3,16)         =      1.079859     0.000001    -0.000005     1.079854
	    8 R(4,11)         =      1.379417     0.000499     0.000031     1.379448
	    9 R(4,17)         =      1.077854    -0.000165    -0.000038     1.077816
	   10 R(5,7)          =      1.385695     0.000079    -0.000024     1.385671
	   11 R(5,10)         =      1.389959     0.000208     0.000098     1.390056
	   12 R(5,18)         =      1.079051    -0.000095    -0.000065     1.078986
	   13 R(6,8)          =      1.386367     0.000066    -0.000017     1.386350
	   14 R(6,10)         =      1.389820    -0.000270    -0.000093     1.389727
	   15 R(6,19)         =      1.079798    -0.000006     0.000040     1.079838
	   16 R(7,12)         =      1.335488    -0.000336    -0.000180     1.335308
	   17 R(7,20)         =      1.080776     0.000232     0.000045     1.080821
	   18 R(8,12)         =      1.334426     0.000287    -0.000049     1.334377
	   19 R(8,21)         =      1.080967     0.000032    -0.000047     1.080920
	   20 R(9,10)         =      1.464463    -0.001501    -0.000438     1.464025
	   21 R(9,11)         =      1.388313    -0.001515    -0.000284     1.388028
	   22 R(11,13)        =      1.345661     0.001678     0.000482     1.346142
	   23 B(1,2,4)        =    120.084184    -0.000002    -0.013964   120.070219
	   24 B(1,2,15)       =    120.375973    -0.000001    -0.003382   120.372591
	   25 B(1,3,9)        =    121.218423    -0.000002     0.003643   121.222066
	   26 B(1,3,16)       =    120.386510    -0.000001     0.008405   120.394915
	   27 B(2,1,3)        =    119.852253     0.000001     0.012734   119.864987
	   28 B(2,1,14)       =    120.173819    -0.000001    -0.009149   120.164670
	   29 B(2,4,11)       =    118.849270     0.000002    -0.000335   118.848934
	   30 B(2,4,17)       =    121.835707     0.000003     0.041601   121.877308
	   31 B(3,1,14)       =    119.972068    -0.000000    -0.003291   119.968777
	   32 B(3,9,10)       =    120.993207    -0.000003    -0.039604   120.953603
	   33 B(3,9,11)       =    117.273536    -0.000002    -0.026201   117.247335
	   34 B(4,2,15)       =    119.539624     0.000003     0.017099   119.556722
	   35 B(4,11,9)       =    122.713262     0.000002     0.026019   122.739281
	   36 B(4,11,13)      =    118.548089    -0.000007    -0.030188   118.517900
	   37 B(5,7,12)       =    123.681209     0.000003     0.003985   123.685194
	   38 B(5,7,20)       =    120.115202    -0.000002    -0.027725   120.087477
	   39 B(5,10,6)       =    117.391022     0.000001     0.001041   117.392063
	   40 B(5,10,9)       =    121.636487    -0.000004    -0.012479   121.624008
	   41 B(6,8,12)       =    123.564424     0.000003     0.006753   123.571176
	   42 B(6,8,21)       =    120.168816    -0.000002    -0.033538   120.135278
	   43 B(6,10,9)       =    120.859161     0.000003     0.016744   120.875905
	   44 B(7,5,10)       =    119.181048    -0.000002    -0.004109   119.176939
	   45 B(7,5,18)       =    120.400047     0.000000     0.002251   120.402298
	   46 B(7,12,8)       =    116.888212    -0.000004    -0.001251   116.886960
	   47 B(8,6,10)       =    119.290554    -0.000002    -0.005183   119.285370
	   48 B(8,6,19)       =    120.412021     0.000000     0.007741   120.419762
	   49 B(9,3,16)       =    118.393507     0.000003    -0.012613   118.380893
	   50 B(9,11,13)      =    118.732075     0.000005     0.006731   118.738806
	   51 B(10,5,18)      =    120.418842     0.000001     0.001920   120.420762
	   52 B(10,6,19)      =    120.294282     0.000002    -0.001428   120.292854
	   53 B(10,9,11)      =    121.680043     0.000006     0.069139   121.749182
	   54 B(11,4,17)      =    119.314525    -0.000005    -0.040777   119.273748
	   55 B(12,7,20)      =    116.202778    -0.000001     0.023885   116.226663
	   56 B(12,8,21)      =    116.266748    -0.000000     0.026505   116.293253
	   57 D(1,2,4,11)     =      0.062421    -0.000000    -0.043093     0.019328
	   58 D(1,2,4,17)     =    179.803717     0.000001     0.180181   179.983898
	   59 D(1,3,9,10)     =    178.390572    -0.000000    -0.040905   178.349667
	   60 D(1,3,9,11)     =      1.000153    -0.000001    -0.125730     0.874423
	   61 D(2,1,3,9)      =     -0.371621     0.000000     0.055348    -0.316273
	   62 D(2,1,3,16)     =    179.166672    -0.000000    -0.021956   179.144716
	   63 D(2,4,11,9)     =      0.620851    -0.000000    -0.032277     0.588574
	   64 D(2,4,11,13)    =    179.675434     0.000001     0.174575   179.850010
	   65 D(3,1,2,4)      =     -0.179155     0.000000     0.031737    -0.147418
	   66 D(3,1,2,15)     =    179.992051     0.000000     0.110358   180.102410
	   67 D(3,9,10,5)     =   -120.295583    -0.000000    -0.023195  -120.318778
	   68 D(3,9,10,6)     =     55.732632    -0.000000     0.070821    55.803454
	   69 D(3,9,11,4)     =     -1.137455     0.000001     0.115218    -1.022237
	   70 D(3,9,11,13)    =    179.809622    -0.000001    -0.091738   179.717884
	   71 D(4,2,1,14)     =    179.324660     0.000000     0.072649   179.397308
	   72 D(4,11,9,10)    =   -178.508743     0.000000     0.032725  -178.476018
	   73 D(5,7,12,8)     =     -0.088174     0.000001     0.102569     0.014395
	   74 D(5,10,6,8)     =     -0.688472     0.000001     0.179444    -0.509029
	   75 D(5,10,6,19)    =    179.953761     0.000000     0.051184   180.004946
	   76 D(5,10,9,11)    =     56.978729     0.000000     0.062819    57.041548
	   77 D(6,8,12,7)     =      0.031034     0.000000     0.010722     0.041756
	   78 D(6,10,5,7)     =      0.635558    -0.000000    -0.075796     0.559762
	   79 D(6,10,5,18)    =   -179.274004    -0.000001    -0.170709  -179.444712
	   80 D(6,10,9,11)    =   -126.993056     0.000000     0.156835  -126.836220
	   81 D(7,5,10,9)     =    176.795743     0.000000     0.015707   176.811450
	   82 D(7,12,8,21)    =    179.989870    -0.000001    -0.145279   179.844591
	   83 D(8,6,10,9)     =   -176.880184     0.000001     0.089843  -176.790341
	   84 D(8,12,7,20)    =    179.583585     0.000001     0.133370   179.716956
	   85 D(9,3,1,14)     =   -179.876446     0.000000     0.014547  -179.861899
	   86 D(9,10,5,18)    =     -3.113818    -0.000000    -0.079205    -3.193023
	   87 D(9,10,6,19)    =      3.762049     0.000000    -0.038416     3.723634
	   88 D(9,11,4,17)    =   -179.127085    -0.000001    -0.249849  -179.376934
	   89 D(10,5,7,12)    =     -0.256517    -0.000000    -0.069339    -0.325856
	   90 D(10,5,7,20)    =   -179.916050    -0.000000    -0.101438  -180.017488
	   91 D(10,6,8,12)    =      0.369435    -0.000001    -0.153935     0.215499
	   92 D(10,6,8,21)    =   -179.587868    -0.000000     0.007759  -179.580110
	   93 D(10,9,3,16)    =     -1.156680     0.000000     0.034791    -1.121889
	   94 D(10,9,11,13)   =      2.438334    -0.000001    -0.174231     2.264103
	   95 D(11,4,2,15)    =    179.892650    -0.000001    -0.121106   179.771544
	   96 D(11,9,3,16)    =   -178.547099    -0.000000    -0.050035  -178.597133
	   97 D(12,7,5,18)    =    179.653061    -0.000000     0.025555   179.678617
	   98 D(12,8,6,19)    =    179.726427    -0.000000    -0.025570   179.700858
	   99 D(13,11,4,17)   =     -0.072501     0.000000    -0.042997    -0.115498
	  100 D(14,1,2,15)    =     -0.504134     0.000000     0.151270    -0.352864
	  101 D(14,1,3,16)    =     -0.338154    -0.000000    -0.062756    -0.400910
	  102 D(15,2,4,17)    =     -0.366055     0.000000     0.102168    -0.263887
	  103 D(18,5,7,20)    =     -0.006472     0.000000    -0.006543    -0.013015
	  104 D(19,6,8,21)    =     -0.230875     0.000000     0.136124    -0.094751
	  105 R(5,13)         =      3.016845    -0.000078     0.001127     3.017972
	 ---------------------------------------------------------------------------
	Successfully symmetrized geometry.
	 Forces used to impose fixed constraints are not included.
	  Forces zeroed: 67 

  ==> Convergence Check <==

  Measures of convergence in internal coordinates in au.
  Criteria marked as inactive (o), active & met (*), and active & unmet ( ).
  ---------------------------------------------------------------------------------------------
   Step     Total Energy     Delta E     MAX Force     RMS Force      MAX Disp      RMS Disp   
  ---------------------------------------------------------------------------------------------
    Convergence Criteria    1.00e-06 *    3.00e-04 *             o    1.20e-03 *             o
  ---------------------------------------------------------------------------------------------
      7    -577.72693938   -6.03e-07 *    2.10e-04 *    4.91e-05 o    4.36e-03      1.26e-03 o  ~
  ---------------------------------------------------------------------------------------------


  **** Optimization is complete! (in 7 steps) ****

  ==> Optimization Summary <==

  Measures of convergence in internal coordinates in au.
  --------------------------------------------------------------------------------------------------------------- ~
   Step         Total Energy             Delta E       MAX Force       RMS Force        MAX Disp        RMS Disp  ~
  --------------------------------------------------------------------------------------------------------------- ~
      1    -577.723631581149   -577.723631581149      0.01636019      0.00432580      0.02834455      0.00977290  ~
      2    -577.726307660893     -0.002676079744      0.00562101      0.00152080      0.04802282      0.00975611  ~
      3    -577.726865768279     -0.000558107385      0.00239979      0.00038428      0.05503885      0.00944837  ~
      4    -577.726932767151     -0.000066998872      0.00109535      0.00019747      0.01231762      0.00305161  ~
      5    -577.726938774308     -0.000006007157      0.00035518      0.00009191      0.01143397      0.00276311  ~
      6    -577.726938777544     -0.000000003236      0.00035360      0.00009366      0.00582734      0.00139898  ~
      7    -577.726939380954     -0.000000603410      0.00021017      0.00004914      0.00436069      0.00125958  ~
  --------------------------------------------------------------------------------------------------------------- ~

	Writing optimization data to binary file.
	Final energy is   -577.7269393809541
	Final (previous) structure:
	Cartesian Geometry (in Angstrom)
	    C    -1.3594994912   0.8679645815  -2.6576598678
	    C    -2.4626277577   1.4000012474  -2.0043569744
	    C    -0.3268845631   0.3062933575  -1.9227853975
	    C    -2.5335551904   1.3664996469  -0.6191367109
	    C     0.4685722140  -1.4263966441   1.0928283126
	    C     2.0286255154   0.0508591859   0.0803977949
	    C     1.5352601741  -2.0228134065   1.7459854417
	    C     3.0300918467  -0.6073867759   0.7773851578
	    C    -0.3678912150   0.2700810891  -0.5302328289
	    C     0.7091749107  -0.3555982241   0.2399002622
	    C    -1.4930851462   0.7995026944   0.0870704929
	    N     2.8040042190  -1.6312812610   1.6027434174
	    F    -1.5651147625   0.7761891398   1.4305996988
	    H    -1.3078505092   0.8834458799  -3.7346806327
	    H    -3.2709819265   1.8392800000  -2.5678874994
	    H     0.5291143651  -0.1221130272  -2.4226146069
	    H    -3.3750893348   1.7739900549  -0.0829073733
	    H    -0.5362066371  -1.7898218281   1.2434688745
	    H     2.2689497606   0.8773539150  -0.5716107517
	    H     1.3655968864  -2.8572867568   2.4115266263
	    H     4.0603767573  -0.2987267067   0.6690730446
	Saving final (previous) structure.
			--------------------------
			 OPTKING Finished Execution 
			--------------------------

    Final optimized geometry and variables:
    Molecular point group: c1
    Full point group: C1

    Geometry (in Angstrom), charge = 0, multiplicity = 1:

    C           -1.359499491158     0.867964581456    -2.657659867815
    C           -2.462627757731     1.400001247361    -2.004356974405
    C           -0.326884563128     0.306293357532    -1.922785397547
    C           -2.533555190444     1.366499646907    -0.619136710935
    C            0.468572214027    -1.426396644055     1.092828312573
    C            2.028625515445     0.050859185862     0.080397794876
    C            1.535260174132    -2.022813406505     1.745985441727
    C            3.030091846726    -0.607386775945     0.777385157830
    C           -0.367891215005     0.270081089102    -0.530232828904
    C            0.709174910725    -0.355598224103     0.239900262192
    C           -1.493085146244     0.799502694375     0.087070492878
    N            2.804004218998    -1.631281261038     1.602743417418
    F           -1.565114762535     0.776189139764     1.430599698762
    H           -1.307850509226     0.883445879865    -3.734680632679
    H           -3.270981926549     1.839279999998    -2.567887499448
    H            0.529114365097    -0.122113027157    -2.422614606856
    H           -3.375089334825     1.773990054862    -0.082907373279
    H           -0.536206637122    -1.789821828129     1.243468874476
    H            2.268949760587     0.877353914990    -0.571610751681
    H            1.365596886442    -2.857286756752     2.411526626279
    H            4.060376757346    -0.298726706710     0.669073044588

	Cleaning optimization helper files.

*** Psi4 exiting successfully. Buy a developer a beer!
