
    -----------------------------------------------------------------------
          Psi4: An Open-Source Ab Initio Electronic Structure Package
                               Psi4 1.1 release

                         Git: Rev {HEAD} add49b9 


    R. M. Parrish, L. A. Burns, D. G. A. Smith, A. C. Simmonett,
    A. E. DePrince III, E. G. Hohenstein, U. Bozkaya, A. Yu. Sokolov,
    R. Di Remigio, R. M. Richard, J. F. Gonthier, A. M. James,
    H. R. McAlexander, A. Kumar, M. Saitow, X. Wang, B. P. Pritchard,
    P. Verma, H. F. Schaefer III, K. Patkowski, R. A. King, E. F. Valeev,
    F. A. Evangelista, J. M. Turney, T. D. Crawford, and C. D. Sherrill,
    J. Chem. Theory Comput. in press (2017).
    (doi: 10.1021/acs.jctc.7b00174)

    -----------------------------------------------------------------------


    Psi4 started on: Sunday, 12 November 2017 04:44PM

    Process ID:  17523
    PSIDATADIR: /cbio/jclab/home/chayas/anaconda/envs/py35/share/psi4
    Memory:     500.0 MiB
    Threads:    8
    
  ==> Input File <==

--------------------------------------------------------------------------

memory 5 Gb

molecule phepyrOH_zwitterion {
  symmetry C1
  0 1 
  C      1.885   -1.036   -0.112
  C      2.878   -1.652   2.002
  C      0.807   -0.463   0.561
  C      1.800   -1.079   2.676
  C      3.817   -3.041   -1.196
  C      5.340   -1.984   0.343
  C      4.909   -3.598   -1.846
  C      6.393   -2.569   -0.346
  C      2.921   -1.631   0.608
  C      4.040   -2.226   -0.090
  C      0.764   -0.484   1.955
  N      6.151   -3.349   -1.408
  O      -0.227   0.042   2.574
  H      1.904   -1.011   -1.199
  H      3.678   -2.112   2.577
  H      0.011   -0.006   -0.025
  H      1.791   -1.108   3.764
  H      2.813   -3.246   -1.556
  H      5.543   -1.353   1.203
  H      4.831   -4.242   -2.711
  H      7.433   -2.437   -0.082
  H      6.939   -3.770   -1.899
  units Angstrom
}

dih_string = "1 9 10 5 315"
set optking fixed_dihedral = $dih_string

optimize('MP2/aug-cc-PVTZ')
--------------------------------------------------------------------------

  Memory set to   4.657 GiB by Python driver.
gradient() will perform analytic gradient computation.

*** tstart() called on gpu-2-9.local
*** at Sun Nov 12 16:44:42 2017

    SCF Algorithm Type (re)set to DF.

*** tstart() called on gpu-2-9.local
*** at Sun Nov 12 16:44:42 2017

   => Loading Basis Set <=

    Name: AUG-CC-PVTZ
    Role: ORBITAL
    Keyword: BASIS
    atoms 1-11  entry C          line   221 file /cbio/jclab/home/chayas/anaconda/envs/py35/share/psi4/basis/aug-cc-pvtz.gbs 
    atoms 12    entry N          line   267 file /cbio/jclab/home/chayas/anaconda/envs/py35/share/psi4/basis/aug-cc-pvtz.gbs 
    atoms 13    entry O          line   313 file /cbio/jclab/home/chayas/anaconda/envs/py35/share/psi4/basis/aug-cc-pvtz.gbs 
    atoms 14-22 entry H          line    34 file /cbio/jclab/home/chayas/anaconda/envs/py35/share/psi4/basis/aug-cc-pvtz.gbs 


         ---------------------------------------------------------
                                   SCF
            by Justin Turney, Rob Parrish, and Andy Simmonett
                              RHF Reference
                        8 Threads,   4768 MiB Core
         ---------------------------------------------------------

  ==> Geometry <==

    Molecular point group: c1
    Full point group: C1

    Geometry (in Angstrom), charge = 0, multiplicity = 1:

       Center              X                  Y                   Z               Mass       
    ------------   -----------------  -----------------  -----------------  -----------------
           C         -1.297156660185     0.734148019993    -0.557360681681    12.000000000000
           C         -0.304156660185     0.118148019993     1.556639318319    12.000000000000
           C         -2.375156660185     1.307148019993     0.115639318319    12.000000000000
           C         -1.382156660185     0.691148019993     2.230639318319    12.000000000000
           C          0.634843339815    -1.270851980007    -1.641360681681    12.000000000000
           C          2.157843339815    -0.213851980007    -0.102360681681    12.000000000000
           C          1.726843339815    -1.827851980007    -2.291360681681    12.000000000000
           C          3.210843339815    -0.798851980007    -0.791360681681    12.000000000000
           C         -0.261156660185     0.139148019993     0.162639318319    12.000000000000
           C          0.857843339815    -0.455851980007    -0.535360681681    12.000000000000
           C         -2.418156660185     1.286148019993     1.509639318319    12.000000000000
           N          2.968843339815    -1.578851980007    -1.853360681681    14.003074004780
           O         -3.409156660185     1.812148019993     2.128639318319    15.994914619560
           H         -1.278156660185     0.759148019993    -1.644360681681     1.007825032070
           H          0.495843339815    -0.341851980007     2.131639318319     1.007825032070
           H         -3.171156660185     1.764148019993    -0.470360681681     1.007825032070
           H         -1.391156660185     0.662148019993     3.318639318319     1.007825032070
           H         -0.369156660185    -1.475851980007    -2.001360681681     1.007825032070
           H          2.360843339815     0.417148019993     0.757639318319     1.007825032070
           H          1.648843339815    -2.471851980007    -3.156360681681     1.007825032070
           H          4.250843339815    -0.666851980007    -0.527360681681     1.007825032070
           H          3.756843339815    -1.999851980007    -2.344360681681     1.007825032070

  Running in c1 symmetry.

  Rotational constants: A =      0.09650  B =      0.01358  C =      0.01235 [cm^-1]
  Rotational constants: A =   2892.90824  B =    407.12778  C =    370.27140 [MHz]
  Nuclear repulsion =  701.042706572048928

  Charge       = 0
  Multiplicity = 1
  Electrons    = 90
  Nalpha       = 45
  Nbeta        = 45

  ==> Algorithm <==

  SCF Algorithm Type is DF.
  DIIS enabled.
  MOM disabled.
  Fractional occupation disabled.
  Guess Type is SAD.
  Energy threshold   = 1.00e-10
  Density threshold  = 1.00e-10
  Integral threshold = 0.00e+00

  ==> Primary Basis <==

  Basis Set: AUG-CC-PVTZ
    Blend: AUG-CC-PVTZ
    Number of shells: 263
    Number of basis function: 805
    Number of Cartesian functions: 940
    Spherical Harmonics?: true
    Max angular momentum: 3

   => Loading Basis Set <=

    Name: (AUG-CC-PVTZ AUX)
    Role: JKFIT
    Keyword: DF_BASIS_SCF
    atoms 1-11  entry C          line   161 file /cbio/jclab/home/chayas/anaconda/envs/py35/share/psi4/basis/aug-cc-pvtz-jkfit.gbs 
    atoms 12    entry N          line   223 file /cbio/jclab/home/chayas/anaconda/envs/py35/share/psi4/basis/aug-cc-pvtz-jkfit.gbs 
    atoms 13    entry O          line   285 file /cbio/jclab/home/chayas/anaconda/envs/py35/share/psi4/basis/aug-cc-pvtz-jkfit.gbs 
    atoms 14-22 entry H          line    69 file /cbio/jclab/home/chayas/anaconda/envs/py35/share/psi4/basis/aug-cc-pvtz-jkfit.gbs 

  ==> Pre-Iterations <==

   -------------------------------------------------------
    Irrep   Nso     Nmo     Nalpha   Nbeta   Ndocc  Nsocc
   -------------------------------------------------------
     A        805     805       0       0       0       0
   -------------------------------------------------------
    Total     805     805      45      45      45       0
   -------------------------------------------------------

  ==> Integral Setup <==

  ==> DFJK: Density-Fitted J/K Matrices <==

    J tasked:                  Yes
    K tasked:                  Yes
    wK tasked:                  No
    OpenMP threads:              8
    Integrals threads:           8
    Memory (MB):              3576
    Algorithm:                Disk
    Integral Cache:           NONE
    Schwarz Cutoff:          1E-12
    Fitting Condition:       1E-12

   => Auxiliary Basis Set <=

  Basis Set: (AUG-CC-PVTZ AUX)
    Blend: AUG-CC-PVTZ-JKFIT
    Number of shells: 516
    Number of basis function: 1766
    Number of Cartesian functions: 2198
    Spherical Harmonics?: true
    Max angular momentum: 4

  Minimum eigenvalue in the overlap matrix is 6.7646821974E-07.
  Using Symmetric Orthogonalization.

  SCF Guess: Superposition of Atomic Densities via on-the-fly atomic UHF.

  ==> Iterations <==

                           Total Energy        Delta E     RMS |[F,P]|

   @DF-RHF iter   0:  -560.29772919408640   -5.60298e+02   2.46360e-02 
   @DF-RHF iter   1:  -550.81942985916362    9.47830e+00   1.66170e-03 
   @DF-RHF iter   2:  -551.00395265724649   -1.84523e-01   2.05908e-03 DIIS
   @DF-RHF iter   3:  -551.18050618663472   -1.76554e-01   5.05174e-04 DIIS
   @DF-RHF iter   4:  -551.20444290739397   -2.39367e-02   1.70961e-04 DIIS
   @DF-RHF iter   5:  -551.20741794602964   -2.97504e-03   8.27516e-05 DIIS
   @DF-RHF iter   6:  -551.20817354116787   -7.55595e-04   2.75885e-05 DIIS
   @DF-RHF iter   7:  -551.20835191928813   -1.78378e-04   1.39618e-05 DIIS
   @DF-RHF iter   8:  -551.20838016622952   -2.82469e-05   4.99957e-06 DIIS
   @DF-RHF iter   9:  -551.20838861886432   -8.45263e-06   2.62817e-06 DIIS
   @DF-RHF iter  10:  -551.20839030153286   -1.68267e-06   1.12554e-06 DIIS
   @DF-RHF iter  11:  -551.20839065368909   -3.52156e-07   4.40100e-07 DIIS
   @DF-RHF iter  12:  -551.20839071449495   -6.08059e-08   1.81297e-07 DIIS
   @DF-RHF iter  13:  -551.20839072266972   -8.17477e-09   5.86358e-08 DIIS
   @DF-RHF iter  14:  -551.20839072477042   -2.10071e-09   2.78392e-08 DIIS
   @DF-RHF iter  15:  -551.20839072503372   -2.63299e-10   1.28900e-08 DIIS
   @DF-RHF iter  16:  -551.20839072506931   -3.55840e-11   3.00018e-09 DIIS
   @DF-RHF iter  17:  -551.20839072507113   -1.81899e-12   1.56564e-09 DIIS
   @DF-RHF iter  18:  -551.20839072507374   -2.61480e-12   9.87884e-10 DIIS
   @DF-RHF iter  19:  -551.20839072506567    8.07177e-12   4.03437e-10 DIIS
   @DF-RHF iter  20:  -551.20839072505476    1.09139e-11   1.94023e-10 DIIS
   @DF-RHF iter  21:  -551.20839072505999   -5.22959e-12   5.78081e-11 DIIS

  ==> Post-Iterations <==

    Orbital Energies (a.u.)
    -----------------------

    Doubly Occupied:                                                      

       1A    -20.420493     2A    -15.707558     3A    -11.362380  
       4A    -11.362325     5A    -11.310150     6A    -11.290501  
       7A    -11.290395     8A    -11.236396     9A    -11.223874  
      10A    -11.223830    11A    -11.209647    12A    -11.181798  
      13A    -11.181765    14A     -1.390586    15A     -1.247036  
      16A     -1.182244    17A     -1.115910    18A     -1.105548  
      19A     -0.990224    20A     -0.989951    21A     -0.943076  
      22A     -0.903072    23A     -0.842882    24A     -0.808263  
      25A     -0.779692    26A     -0.740325    27A     -0.721132  
      28A     -0.694493    29A     -0.676467    30A     -0.660056  
      31A     -0.613983    32A     -0.613802    33A     -0.603434  
      34A     -0.587278    35A     -0.559108    36A     -0.530171  
      37A     -0.507101    38A     -0.480895    39A     -0.470518  
      40A     -0.459281    41A     -0.422726    42A     -0.391631  
      43A     -0.333416    44A     -0.318478    45A     -0.226336  

    Virtual:                                                              

      46A     -0.010768    47A      0.009483    48A      0.016048  
      49A      0.022082    50A      0.035257    51A      0.039413  
      52A      0.040265    53A      0.051611    54A      0.052225  
      55A      0.054774    56A      0.062423    57A      0.068555  
      58A      0.069171    59A      0.069590    60A      0.080273  
      61A      0.091147    62A      0.092605    63A      0.103281  
      64A      0.103808    65A      0.103982    66A      0.117330  
      67A      0.120267    68A      0.120482    69A      0.126458  
      70A      0.127714    71A      0.128860    72A      0.132073  
      73A      0.134863    74A      0.144723    75A      0.150378  
      76A      0.151482    77A      0.151790    78A      0.161014  
      79A      0.165216    80A      0.166069    81A      0.168548  
      82A      0.173241    83A      0.181529    84A      0.182101  
      85A      0.185800    86A      0.189974    87A      0.196317  
      88A      0.196815    89A      0.206854    90A      0.208844  
      91A      0.210474    92A      0.213091    93A      0.221485  
      94A      0.225965    95A      0.227333    96A      0.231293  
      97A      0.235860    98A      0.245969    99A      0.251905  
     100A      0.253426   101A      0.254207   102A      0.263397  
     103A      0.264007   104A      0.268069   105A      0.271068  
     106A      0.279519   107A      0.284198   108A      0.289202  
     109A      0.290168   110A      0.293145   111A      0.297251  
     112A      0.303206   113A      0.307352   114A      0.312085  
     115A      0.319304   116A      0.321368   117A      0.327110  
     118A      0.329889   119A      0.330537   120A      0.331548  
     121A      0.340908   122A      0.344460   123A      0.347312  
     124A      0.347357   125A      0.361130   126A      0.361482  
     127A      0.363288   128A      0.364433   129A      0.369831  
     130A      0.374226   131A      0.379561   132A      0.385966  
     133A      0.387954   134A      0.394340   135A      0.402138  
     136A      0.404176   137A      0.413697   138A      0.414426  
     139A      0.420253   140A      0.421982   141A      0.425441  
     142A      0.433621   143A      0.439304   144A      0.440917  
     145A      0.445982   146A      0.454037   147A      0.455705  
     148A      0.459880   149A      0.463881   150A      0.464460  
     151A      0.469412   152A      0.471599   153A      0.474814  
     154A      0.480262   155A      0.483285   156A      0.487888  
     157A      0.492970   158A      0.494628   159A      0.494906  
     160A      0.498677   161A      0.499286   162A      0.501527  
     163A      0.507608   164A      0.508495   165A      0.516062  
     166A      0.521512   167A      0.527965   168A      0.528928  
     169A      0.532829   170A      0.534902   171A      0.544329  
     172A      0.545356   173A      0.551465   174A      0.555962  
     175A      0.564334   176A      0.566279   177A      0.570365  
     178A      0.576518   179A      0.579225   180A      0.583788  
     181A      0.594209   182A      0.596491   183A      0.604958  
     184A      0.608125   185A      0.609037   186A      0.623970  
     187A      0.624492   188A      0.642797   189A      0.649135  
     190A      0.651128   191A      0.657383   192A      0.662288  
     193A      0.669395   194A      0.669722   195A      0.673846  
     196A      0.684240   197A      0.689824   198A      0.692974  
     199A      0.695090   200A      0.703411   201A      0.706154  
     202A      0.716899   203A      0.720520   204A      0.721629  
     205A      0.724433   206A      0.730629   207A      0.734736  
     208A      0.748128   209A      0.750181   210A      0.753588  
     211A      0.760374   212A      0.760967   213A      0.768675  
     214A      0.776153   215A      0.779230   216A      0.788485  
     217A      0.793239   218A      0.795459   219A      0.807559  
     220A      0.811058   221A      0.817536   222A      0.828269  
     223A      0.836013   224A      0.839039   225A      0.849484  
     226A      0.852137   227A      0.855495   228A      0.861332  
     229A      0.873058   230A      0.876768   231A      0.878663  
     232A      0.884734   233A      0.889737   234A      0.891931  
     235A      0.902553   236A      0.908100   237A      0.910378  
     238A      0.914951   239A      0.915101   240A      0.920079  
     241A      0.922785   242A      0.927019   243A      0.931611  
     244A      0.932108   245A      0.937776   246A      0.938242  
     247A      0.953084   248A      0.959594   249A      0.960879  
     250A      0.966423   251A      0.969342   252A      0.975605  
     253A      0.984790   254A      0.988695   255A      0.995691  
     256A      0.999899   257A      1.006841   258A      1.009590  
     259A      1.012486   260A      1.019171   261A      1.024244  
     262A      1.026100   263A      1.028265   264A      1.032698  
     265A      1.036560   266A      1.037141   267A      1.045321  
     268A      1.048070   269A      1.054887   270A      1.056115  
     271A      1.057589   272A      1.062212   273A      1.077136  
     274A      1.079377   275A      1.085937   276A      1.086272  
     277A      1.094082   278A      1.094782   279A      1.097676  
     280A      1.101514   281A      1.112391   282A      1.113940  
     283A      1.116318   284A      1.121534   285A      1.125967  
     286A      1.134927   287A      1.135489   288A      1.144098  
     289A      1.151674   290A      1.154566   291A      1.154910  
     292A      1.164363   293A      1.166464   294A      1.180710  
     295A      1.183623   296A      1.189526   297A      1.189679  
     298A      1.192438   299A      1.193681   300A      1.202405  
     301A      1.209950   302A      1.216691   303A      1.218617  
     304A      1.221497   305A      1.226319   306A      1.236261  
     307A      1.243989   308A      1.244580   309A      1.248418  
     310A      1.252345   311A      1.262252   312A      1.263403  
     313A      1.272409   314A      1.276684   315A      1.279541  
     316A      1.286342   317A      1.297869   318A      1.305905  
     319A      1.312301   320A      1.323226   321A      1.325703  
     322A      1.330409   323A      1.338141   324A      1.345642  
     325A      1.351803   326A      1.360653   327A      1.361647  
     328A      1.372425   329A      1.375640   330A      1.379952  
     331A      1.389069   332A      1.394784   333A      1.397243  
     334A      1.411584   335A      1.412649   336A      1.419132  
     337A      1.434873   338A      1.440975   339A      1.448504  
     340A      1.454088   341A      1.459363   342A      1.465312  
     343A      1.469673   344A      1.480116   345A      1.487000  
     346A      1.494815   347A      1.496556   348A      1.504365  
     349A      1.512958   350A      1.521841   351A      1.525810  
     352A      1.533348   353A      1.545943   354A      1.552612  
     355A      1.564698   356A      1.566263   357A      1.578091  
     358A      1.580210   359A      1.594865   360A      1.607545  
     361A      1.617269   362A      1.629422   363A      1.631708  
     364A      1.635511   365A      1.641887   366A      1.647295  
     367A      1.649986   368A      1.666181   369A      1.680713  
     370A      1.686225   371A      1.689881   372A      1.692845  
     373A      1.713096   374A      1.716846   375A      1.721366  
     376A      1.728058   377A      1.732775   378A      1.743703  
     379A      1.750284   380A      1.751826   381A      1.773990  
     382A      1.780830   383A      1.790233   384A      1.799417  
     385A      1.805765   386A      1.817997   387A      1.818745  
     388A      1.826489   389A      1.828534   390A      1.839769  
     391A      1.854106   392A      1.858461   393A      1.858885  
     394A      1.875768   395A      1.881963   396A      1.883913  
     397A      1.906869   398A      1.909128   399A      1.916433  
     400A      1.936309   401A      1.938157   402A      1.939693  
     403A      1.947539   404A      1.950763   405A      1.960876  
     406A      1.962244   407A      1.974923   408A      1.985075  
     409A      1.999559   410A      2.002737   411A      2.005936  
     412A      2.014103   413A      2.015889   414A      2.025507  
     415A      2.030792   416A      2.032957   417A      2.038447  
     418A      2.047213   419A      2.047681   420A      2.056296  
     421A      2.068348   422A      2.084441   423A      2.090790  
     424A      2.095724   425A      2.115812   426A      2.118115  
     427A      2.131740   428A      2.131933   429A      2.150077  
     430A      2.152462   431A      2.157775   432A      2.173805  
     433A      2.175389   434A      2.188143   435A      2.194332  
     436A      2.204015   437A      2.205056   438A      2.224107  
     439A      2.224783   440A      2.240875   441A      2.254237  
     442A      2.263978   443A      2.286093   444A      2.287331  
     445A      2.299645   446A      2.313665   447A      2.320787  
     448A      2.323483   449A      2.331045   450A      2.339428  
     451A      2.342865   452A      2.353021   453A      2.369877  
     454A      2.389540   455A      2.389777   456A      2.398405  
     457A      2.405057   458A      2.420221   459A      2.436648  
     460A      2.443408   461A      2.445431   462A      2.451587  
     463A      2.468449   464A      2.479410   465A      2.489412  
     466A      2.496382   467A      2.514552   468A      2.515249  
     469A      2.522464   470A      2.538744   471A      2.542464  
     472A      2.554063   473A      2.556251   474A      2.560957  
     475A      2.561793   476A      2.599347   477A      2.610495  
     478A      2.633885   479A      2.641499   480A      2.656894  
     481A      2.657577   482A      2.682086   483A      2.682172  
     484A      2.686951   485A      2.708414   486A      2.733904  
     487A      2.744129   488A      2.763742   489A      2.768784  
     490A      2.784609   491A      2.789436   492A      2.797217  
     493A      2.838078   494A      2.847414   495A      2.865351  
     496A      2.870120   497A      2.907307   498A      2.919114  
     499A      2.924069   500A      2.935523   501A      2.988538  
     502A      3.006117   503A      3.027764   504A      3.057281  
     505A      3.079737   506A      3.088218   507A      3.097855  
     508A      3.110267   509A      3.130651   510A      3.155712  
     511A      3.180754   512A      3.183761   513A      3.192123  
     514A      3.219780   515A      3.233162   516A      3.237100  
     517A      3.262179   518A      3.262749   519A      3.287342  
     520A      3.307591   521A      3.322579   522A      3.328196  
     523A      3.342732   524A      3.355655   525A      3.369414  
     526A      3.373053   527A      3.383834   528A      3.390822  
     529A      3.393680   530A      3.419096   531A      3.431791  
     532A      3.435793   533A      3.444497   534A      3.457954  
     535A      3.464382   536A      3.473091   537A      3.491362  
     538A      3.498444   539A      3.517545   540A      3.527863  
     541A      3.528319   542A      3.531815   543A      3.532176  
     544A      3.542842   545A      3.557529   546A      3.560422  
     547A      3.567516   548A      3.571315   549A      3.579967  
     550A      3.585305   551A      3.598030   552A      3.616245  
     553A      3.633344   554A      3.633429   555A      3.650749  
     556A      3.653027   557A      3.661107   558A      3.679572  
     559A      3.693818   560A      3.696188   561A      3.703834  
     562A      3.704667   563A      3.714778   564A      3.718896  
     565A      3.732142   566A      3.746856   567A      3.760316  
     568A      3.769280   569A      3.770120   570A      3.789143  
     571A      3.804635   572A      3.805483   573A      3.819202  
     574A      3.823005   575A      3.831671   576A      3.835765  
     577A      3.837366   578A      3.850971   579A      3.857857  
     580A      3.860674   581A      3.889862   582A      3.903492  
     583A      3.907655   584A      3.912134   585A      3.917621  
     586A      3.923001   587A      3.950079   588A      3.955524  
     589A      3.965598   590A      3.970784   591A      3.976441  
     592A      3.985200   593A      3.999010   594A      4.006264  
     595A      4.009356   596A      4.018884   597A      4.019889  
     598A      4.029545   599A      4.032883   600A      4.049299  
     601A      4.056079   602A      4.075447   603A      4.084867  
     604A      4.086423   605A      4.091566   606A      4.092510  
     607A      4.108617   608A      4.113043   609A      4.133668  
     610A      4.148779   611A      4.163205   612A      4.168401  
     613A      4.169885   614A      4.170553   615A      4.193474  
     616A      4.193831   617A      4.202061   618A      4.211023  
     619A      4.215084   620A      4.233279   621A      4.247106  
     622A      4.248869   623A      4.257210   624A      4.266561  
     625A      4.301185   626A      4.303715   627A      4.304850  
     628A      4.315884   629A      4.327587   630A      4.340971  
     631A      4.342131   632A      4.352247   633A      4.355958  
     634A      4.366827   635A      4.370302   636A      4.384819  
     637A      4.387135   638A      4.395413   639A      4.401181  
     640A      4.409483   641A      4.410196   642A      4.420209  
     643A      4.420641   644A      4.445492   645A      4.454876  
     646A      4.464007   647A      4.467587   648A      4.486784  
     649A      4.498820   650A      4.509048   651A      4.512944  
     652A      4.526108   653A      4.527767   654A      4.543305  
     655A      4.554574   656A      4.557422   657A      4.573741  
     658A      4.596378   659A      4.616138   660A      4.619228  
     661A      4.647094   662A      4.651686   663A      4.663466  
     664A      4.705645   665A      4.712516   666A      4.725751  
     667A      4.737526   668A      4.755190   669A      4.760182  
     670A      4.768984   671A      4.782676   672A      4.794097  
     673A      4.801645   674A      4.812080   675A      4.823268  
     676A      4.862486   677A      4.864513   678A      4.875023  
     679A      4.895247   680A      4.904757   681A      4.906407  
     682A      4.940073   683A      4.943298   684A      4.946229  
     685A      4.956796   686A      4.964686   687A      4.987422  
     688A      4.997282   689A      5.028503   690A      5.030330  
     691A      5.055075   692A      5.058474   693A      5.063413  
     694A      5.063934   695A      5.080754   696A      5.086666  
     697A      5.107543   698A      5.125164   699A      5.133859  
     700A      5.144217   701A      5.148949   702A      5.152760  
     703A      5.172901   704A      5.181735   705A      5.185324  
     706A      5.192122   707A      5.210733   708A      5.222361  
     709A      5.240992   710A      5.241789   711A      5.253632  
     712A      5.292870   713A      5.303616   714A      5.315520  
     715A      5.330403   716A      5.341032   717A      5.351593  
     718A      5.376566   719A      5.387495   720A      5.392322  
     721A      5.424419   722A      5.437170   723A      5.451410  
     724A      5.464117   725A      5.466332   726A      5.504512  
     727A      5.506568   728A      5.521270   729A      5.567515  
     730A      5.580487   731A      5.598623   732A      5.631040  
     733A      5.640384   734A      5.688929   735A      5.700697  
     736A      5.721949   737A      5.735246   738A      5.747919  
     739A      5.780818   740A      5.791764   741A      5.801278  
     742A      5.819246   743A      5.848721   744A      5.849009  
     745A      5.894061   746A      5.946656   747A      5.967344  
     748A      5.998402   749A      6.055041   750A      6.108262  
     751A      6.112670   752A      6.126923   753A      6.144072  
     754A      6.165235   755A      6.247660   756A      6.264642  
     757A      6.289553   758A      6.328922   759A      6.365222  
     760A      6.407658   761A      6.441526   762A      6.497720  
     763A      6.508438   764A      6.541672   765A      6.587885  
     766A      6.625868   767A      6.645333   768A      6.696567  
     769A      6.751144   770A      6.782029   771A      6.783243  
     772A      6.866268   773A      6.872117   774A      6.927353  
     775A      6.954438   776A      6.961076   777A      6.994490  
     778A      7.074139   779A      7.099002   780A      7.129929  
     781A      7.192637   782A      7.238962   783A      7.242106  
     784A      7.498747   785A      7.525569   786A      7.578263  
     787A      7.661055   788A      7.819215   789A      7.826367  
     790A      7.910965   791A      8.033419   792A      8.103067  
     793A     16.004042   794A     16.195028   795A     16.341264  
     796A     16.593688   797A     17.096198   798A     18.927023  
     799A     19.214185   800A     19.673877   801A     19.836390  
     802A     20.116044   803A     20.265079   804A     20.348639  
     805A     21.885145  

    Final Occupation by Irrep:
              A 
    DOCC [    45 ]

  Energy converged.

  @DF-RHF Final Energy:  -551.20839072505999

   => Energetics <=

    Nuclear Repulsion Energy =            701.0427065720489281
    One-Electron Energy =               -2138.6817367930107139
    Two-Electron Energy =                 886.4306394959018007
    DFT Exchange-Correlation Energy =       0.0000000000000000
    Empirical Dispersion Energy =           0.0000000000000000
    PCM Polarization Energy =               0.0000000000000000
    EFP Energy =                            0.0000000000000000
    Total Energy =                       -551.2083907250599850



Properties will be evaluated at   0.000000,   0.000000,   0.000000 Bohr

Properties computed using the SCF density matrix

  Nuclear Dipole Moment: (a.u.)
     X:     5.8844      Y:    -3.1307      Z:    -3.6745

  Electronic Dipole Moment: (a.u.)
     X:     0.2126      Y:    -0.1120      Z:    -0.1320

  Dipole Moment: (a.u.)
     X:     6.0970      Y:    -3.2427      Z:    -3.8065     Total:     7.8853

  Dipole Moment: (Debye)
     X:    15.4970      Y:    -8.2422      Z:    -9.6752     Total:    20.0425


*** tstop() called on gpu-2-9.local at Sun Nov 12 16:52:04 2017
Module time:
	user time   =    1087.84 seconds =      18.13 minutes
	system time =      48.48 seconds =       0.81 minutes
	total time  =        442 seconds =       7.37 minutes
Total time:
	user time   =    1087.85 seconds =      18.13 minutes
	system time =      48.48 seconds =       0.81 minutes
	total time  =        442 seconds =       7.37 minutes

  //>>>>>>>>>>>>>>>>>>>>>>>>>>>>>>>>>>>//
  //               DFMP2               //
  //<<<<<<<<<<<<<<<<<<<<<<<<<<<<<<<<<<<//

   => Loading Basis Set <=

    Name: (AUG-CC-PVTZ AUX)
    Role: RIFIT
    Keyword: DF_BASIS_MP2
    atoms 1-11  entry C          line   147 file /cbio/jclab/home/chayas/anaconda/envs/py35/share/psi4/basis/aug-cc-pvtz-ri.gbs 
    atoms 12    entry N          line   205 file /cbio/jclab/home/chayas/anaconda/envs/py35/share/psi4/basis/aug-cc-pvtz-ri.gbs 
    atoms 13    entry O          line   263 file /cbio/jclab/home/chayas/anaconda/envs/py35/share/psi4/basis/aug-cc-pvtz-ri.gbs 
    atoms 14-22 entry H          line    29 file /cbio/jclab/home/chayas/anaconda/envs/py35/share/psi4/basis/aug-cc-pvtz-ri.gbs 

	 --------------------------------------------------------
	                          DF-MP2                         
	      2nd-Order Density-Fitted Moller-Plesset Theory     
	              RMP2 Wavefunction,   8 Threads             
	                                                         
	        Rob Parrish, Justin Turney, Andy Simmonett,      
	           Ed Hohenstein, and C. David Sherrill          
	 --------------------------------------------------------

   => Auxiliary Basis Set <=

  Basis Set: (AUG-CC-PVTZ AUX)
    Blend: AUG-CC-PVTZ-RI
    Number of shells: 490
    Number of basis function: 1792
    Number of Cartesian functions: 2263
    Spherical Harmonics?: true
    Max angular momentum: 4

	 --------------------------------------------------------
	                 NBF =   805, NAUX =  1792
	 --------------------------------------------------------
	   CLASS    FOCC     OCC    AOCC    AVIR     VIR    FVIR
	   PAIRS       0      45      45     760     760       0
	 --------------------------------------------------------


         ------------------------------------------------------------
                                     CPHF                           
                                  Rob Parrish                       
         ------------------------------------------------------------

  ==> Geometry <==

    Molecular point group: c1
    Full point group: C1

    Geometry (in Angstrom), charge = 0, multiplicity = 1:

       Center              X                  Y                   Z               Mass       
    ------------   -----------------  -----------------  -----------------  -----------------
           C         -1.297156660185     0.734148019993    -0.557360681681    12.000000000000
           C         -0.304156660185     0.118148019993     1.556639318319    12.000000000000
           C         -2.375156660185     1.307148019993     0.115639318319    12.000000000000
           C         -1.382156660185     0.691148019993     2.230639318319    12.000000000000
           C          0.634843339815    -1.270851980007    -1.641360681681    12.000000000000
           C          2.157843339815    -0.213851980007    -0.102360681681    12.000000000000
           C          1.726843339815    -1.827851980007    -2.291360681681    12.000000000000
           C          3.210843339815    -0.798851980007    -0.791360681681    12.000000000000
           C         -0.261156660185     0.139148019993     0.162639318319    12.000000000000
           C          0.857843339815    -0.455851980007    -0.535360681681    12.000000000000
           C         -2.418156660185     1.286148019993     1.509639318319    12.000000000000
           N          2.968843339815    -1.578851980007    -1.853360681681    14.003074004780
           O         -3.409156660185     1.812148019993     2.128639318319    15.994914619560
           H         -1.278156660185     0.759148019993    -1.644360681681     1.007825032070
           H          0.495843339815    -0.341851980007     2.131639318319     1.007825032070
           H         -3.171156660185     1.764148019993    -0.470360681681     1.007825032070
           H         -1.391156660185     0.662148019993     3.318639318319     1.007825032070
           H         -0.369156660185    -1.475851980007    -2.001360681681     1.007825032070
           H          2.360843339815     0.417148019993     0.757639318319     1.007825032070
           H          1.648843339815    -2.471851980007    -3.156360681681     1.007825032070
           H          4.250843339815    -0.666851980007    -0.527360681681     1.007825032070
           H          3.756843339815    -1.999851980007    -2.344360681681     1.007825032070

  Nuclear repulsion =  701.042706572048928
  Reference energy  = -551.208390725059985

  ==> Basis Set <==

  Basis Set: AUG-CC-PVTZ
    Blend: AUG-CC-PVTZ
    Number of shells: 263
    Number of basis function: 805
    Number of Cartesian functions: 940
    Spherical Harmonics?: true
    Max angular momentum: 3

  ==> CGRSolver (by Rob Parrish) <==

   Number of roots    =         1
   Preconditioning    =    JACOBI
   Convergence cutoff =     1E-06
   Maximum iterations =       100

  ==> CPHFRHamiltonian (by Rob Parrish) <== 

  ==> DFJK: Density-Fitted J/K Matrices <==

    J tasked:                  Yes
    K tasked:                  Yes
    wK tasked:                  No
    OpenMP threads:              8
    Integrals threads:           8
    Memory (MB):              3576
    Algorithm:                Disk
    Integral Cache:           NONE
    Schwarz Cutoff:          1E-12
    Fitting Condition:       1E-12

   => Auxiliary Basis Set <=

  Basis Set: (AUG-CC-PVTZ AUX)
    Blend: AUG-CC-PVTZ-JKFIT
    Number of shells: 516
    Number of basis function: 1766
    Number of Cartesian functions: 2198
    Spherical Harmonics?: true
    Max angular momentum: 4

  ==> CPHF Iterations <==

  => Iterations <=

             Iter  Converged  Remaining    Residual
  CGR           1          0          1   1.636E-01
  CGR           2          0          1   6.637E-02
  CGR           3          0          1   3.299E-02
  CGR           4          0          1   9.635E-03
  CGR           5          0          1   3.557E-03
  CGR           6          0          1   1.461E-03
  CGR           7          0          1   6.161E-04
  CGR           8          0          1   3.633E-04
  CGR           9          0          1   1.587E-04
  CGR          10          0          1   4.899E-05
  CGR          11          0          1   2.080E-05
  CGR          12          0          1   5.696E-06
  CGR          13          0          1   2.342E-06
  CGR          14          1          0   7.433E-07

    CGRSolver converged.

  ==> DFCorrGrad: Density-Fitted Correlated Gradients <==

    OpenMP threads:              8
    Integrals threads:           8
    Memory (MB):              3576
    Schwarz Cutoff:          0E+00
    Fitting Condition:       1E-12

   => Auxiliary Basis Set <=

  Basis Set: (AUG-CC-PVTZ AUX)
    Blend: AUG-CC-PVTZ-JKFIT
    Number of shells: 516
    Number of basis function: 1766
    Number of Cartesian functions: 2198
    Spherical Harmonics?: true
    Max angular momentum: 4

	-----------------------------------------------------------
	 ==================> DF-MP2 Energies <==================== 
	-----------------------------------------------------------
	 Reference Energy          =    -551.2083907250599850 [Eh]
	 Singles Energy            =      -0.0000000000000003 [Eh]
	 Same-Spin Energy          =      -0.6066351952134863 [Eh]
	 Opposite-Spin Energy      =      -1.8386183691137807 [Eh]
	 Correlation Energy        =      -2.4452535643272673 [Eh]
	 Total Energy              =    -553.6536442893872163 [Eh]
	-----------------------------------------------------------
	 ================> DF-SCS-MP2 Energies <================== 
	-----------------------------------------------------------
	 SCS Same-Spin Scale       =       0.3333333333333333 [-]
	 SCS Opposite-Spin Scale   =       1.2000000000000000 [-]
	 SCS Same-Spin Energy      =      -0.2022117317378287 [Eh]
	 SCS Opposite-Spin Energy  =      -2.2063420429365368 [Eh]
	 SCS Correlation Energy    =      -2.4085537746743659 [Eh]
	 SCS Total Energy          =    -553.6169444997343589 [Eh]
	-----------------------------------------------------------


  -Total Gradient:
     Atom            X                  Y                   Z
    ------   -----------------  -----------------  -----------------
       1        0.037424984138    -0.005140520544    -0.001660920300
       2        0.012207223999    -0.021214886507    -0.029358750354
       3       -0.027600334613     0.013333007232     0.051843111770
       4       -0.052637785242     0.029168821007    -0.000842336075
       5       -0.022220406949     0.012243394570     0.031875974964
       6       -0.036216464770     0.018876061181     0.004469718807
       7        0.032111565050    -0.002787633807     0.003252649276
       8        0.005626797620    -0.017648721479    -0.027069349984
       9       -0.035380204538     0.018753409245     0.022013223837
      10        0.047808090052    -0.025257291689    -0.029406825090
      11        0.065249586424    -0.034493716314    -0.041281895873
      12       -0.018139706190     0.010136864537     0.011742880926
      13       -0.019024814074     0.010037667052     0.011960825712
      14       -0.002017437173     0.000183546232    -0.003619740574
      15        0.002159180384    -0.000226173136     0.003399362623
      16       -0.003555231992     0.000171020660    -0.008992084904
      17        0.005888746821    -0.001394941276     0.007186182227
      18       -0.005640093593    -0.000365674613    -0.003151180051
      19        0.001446162447     0.002445183321     0.005594269638
      20        0.001384358690    -0.000715754388    -0.002886472675
      21        0.002790835168    -0.001592471078     0.000118696508
      22        0.008334948340    -0.004511190197    -0.005187340409


*** tstop() called on gpu-2-9.local at Sun Nov 12 17:24:14 2017
Module time:
	user time   =    5276.57 seconds =      87.94 minutes
	system time =     103.67 seconds =       1.73 minutes
	total time  =       2372 seconds =      39.53 minutes
Total time:
	user time   =    5276.58 seconds =      87.94 minutes
	system time =     103.67 seconds =       1.73 minutes
	total time  =       2372 seconds =      39.53 minutes

			-----------------------------------------
			 OPTKING 2.0: for geometry optimizations 
			  - R.A. King,  Bethel University        
			-----------------------------------------

	Internal coordinates to be generated automatically.
	Detected frag 1 with atoms:  1 2 3 4 5 6 7 8 9 10 11 12 13 14 15 16 17 18 19 20
	 21 22
	---Fragment 1 Bond Connectivity---
	 1 : 3 9 14
	 2 : 4 9 15
	 3 : 1 11 16
	 4 : 2 11 17
	 5 : 7 10 18
	 6 : 8 10 19
	 7 : 5 12 20
	 8 : 6 12 21
	 9 : 1 2 10
	 10 : 5 6 9
	 11 : 3 4 13
	 12 : 7 8 22
	 13 : 11
	 14 : 1
	 15 : 2
	 16 : 3
	 17 : 4
	 18 : 5
	 19 : 6
	 20 : 7
	 21 : 8
	 22 : 12

	Assuming in current code that numbering for constraints corresponds to unified fragment.
	Fixed dihedral atom list: 
	     1     9    10     5
	---Fragment 1 Geometry and Gradient---
	 C          -2.4512708392        1.3873386988       -1.0532590456
	 C          -0.5747727892        0.2232674009        2.9416219993
	 C          -4.4883956104        2.4701517729        0.2185266418
	 C          -2.6118975605        1.3060804751        4.2152974129
	 C           1.1996800495       -2.4015621976       -3.1017221737
	 C           4.0777329499       -0.4041216752       -0.1934336552
	 C           3.2632609866       -3.4541396537       -4.3300441600
	 C           6.0676145679       -1.5096114629       -1.4954549607
	 C          -0.4935145655        0.2629516497        0.3073437701
	 C           1.6210889772       -0.8614353993       -1.0116850707
	 C          -4.5696538342        2.4304675241        2.8528048711
	 N           5.6103008437       -2.9835978466       -3.5023441138
	 O          -6.4423724319        3.4244634700        4.0225453473
	 H          -2.4153660427        1.4345818521       -3.1073913521
	 H           0.9370081171       -0.6460066202        4.0282145257
	 H          -5.9926176122        3.3337566157       -0.8888528721
	 H          -2.6289050957        1.2512784172        6.2713194454
	 H          -0.6976049879       -2.7889560549       -3.7820235815
	 H           4.4613473549        0.7882955147        1.4317308191
	 H           3.1158623483       -4.6711232832       -5.9646572650
	 H           8.0329297461       -1.2601676134       -0.9965672616
	 H           7.0994050364       -3.7791725485       -4.4301996451
	             0.0374249841       -0.0051405205       -0.0016609203
	             0.0122072240       -0.0212148865       -0.0293587504
	            -0.0276003346        0.0133330072        0.0518431118
	            -0.0526377852        0.0291688210       -0.0008423361
	            -0.0222204069        0.0122433946        0.0318759750
	            -0.0362164648        0.0188760612        0.0044697188
	             0.0321115651       -0.0027876338        0.0032526493
	             0.0056267976       -0.0176487215       -0.0270693500
	            -0.0353802045        0.0187534092        0.0220132238
	             0.0478080901       -0.0252572917       -0.0294068251
	             0.0652495864       -0.0344937163       -0.0412818959
	            -0.0181397062        0.0101368645        0.0117428809
	            -0.0190248141        0.0100376671        0.0119608257
	            -0.0020174372        0.0001835462       -0.0036197406
	             0.0021591804       -0.0002261731        0.0033993626
	            -0.0035552320        0.0001710207       -0.0089920849
	             0.0058887468       -0.0013949413        0.0071861822
	            -0.0056400936       -0.0003656746       -0.0031511801
	             0.0014461624        0.0024451833        0.0055942696
	             0.0013843587       -0.0007157544       -0.0028864727
	             0.0027908352       -0.0015924711        0.0001186965
	             0.0083349483       -0.0045111902       -0.0051873404

	Previous optimization step data not found.  Starting new optimization.

	---Fragment 1 Intrafragment Coordinates---
	 - Coordinate -           - BOHR/RAD -       - ANG/DEG -
	 R(1,3)           =         2.634350	       1.394038
	 R(1,9)           =         2.635962	       1.394891
	 R(1,14)          =         2.054989	       1.087453
	 R(2,4)           =         2.635263	       1.394521
	 R(2,9)           =         2.635830	       1.394821
	 R(2,15)          =         2.054702	       1.087302
	 R(3,11)          =         2.635830	       1.394821
	 R(3,16)          =         2.057860	       1.088972
	 R(4,11)          =         2.636938	       1.395407
	 R(4,17)          =         2.056823	       1.088424
	 R(5,7)           =         2.622034	       1.387520
	 R(5,10)          =         2.630177	       1.391830
	 R(5,18)          =         2.052456	       1.086113
	 R(6,8)           =         2.622403	       1.387716
	 R(6,10)          =         2.629405	       1.391421
	 R(6,19)          =         2.051872	       1.085804
	 R(7,12)          =         2.532803	       1.340302
	 R(7,20)          =         2.043217	       1.081224
	 R(8,12)          =         2.531675	       1.339704
	 R(8,21)          =         2.042933	       1.081074
	 R(9,10)          =         2.734160	       1.446855
	 R(11,13)         =         2.421445	       1.281373
	 R(12,22)         =         1.926470	       1.019444
	 B(1,3,11)        =         2.094553	     120.009056
	 B(1,3,16)        =         2.069123	     118.552025
	 B(1,9,2)         =         2.093692	     119.959722
	 B(1,9,10)        =         2.095337	     120.053983
	 B(2,4,11)        =         2.093699	     119.960108
	 B(2,4,17)        =         2.069829	     118.592446
	 B(2,9,10)        =         2.094156	     119.986294
	 B(3,1,9)         =         2.094940	     120.031219
	 B(3,1,14)        =         2.079025	     119.119344
	 B(3,11,4)        =         2.094306	     119.994870
	 B(3,11,13)       =         2.094918	     120.029973
	 B(4,2,9)         =         2.095181	     120.045019
	 B(4,2,15)        =         2.079455	     119.143974
	 B(4,11,13)       =         2.093961	     119.975136
	 B(5,7,12)        =         2.096273	     120.107599
	 B(5,7,20)        =         2.161693	     123.855909
	 B(5,10,6)        =         2.093035	     119.922048
	 B(5,10,9)        =         2.094675	     120.016032
	 B(6,8,12)        =         2.096650	     120.129174
	 B(6,8,21)        =         2.161870	     123.866053
	 B(6,10,9)        =         2.095476	     120.061916
	 B(7,5,10)        =         2.072849	     118.765474
	 B(7,5,18)        =         2.090324	     119.766769
	 B(7,12,8)        =         2.134836	     122.317083
	 B(7,12,22)       =         2.073918	     118.826743
	 B(8,6,10)        =         2.072728	     118.758569
	 B(8,6,19)        =         2.090203	     119.759784
	 B(8,12,22)       =         2.074428	     118.855988
	 B(9,1,14)        =         2.109221	     120.849435
	 B(9,2,15)        =         2.108550	     120.811005
	 B(10,5,18)       =         2.120012	     121.467744
	 B(10,6,19)       =         2.120253	     121.481573
	 B(11,3,16)       =         2.119509	     121.438903
	 B(11,4,17)       =         2.119657	     121.447411
	 B(12,7,20)       =         2.025219	     116.036486
	 B(12,8,21)       =         2.024664	     116.004698
	 D(1,3,11,4)      =        -0.000325	      -0.018609
	 D(1,3,11,13)     =        -3.141004	    -179.966279
	 D(1,9,2,4)       =         0.000325	       0.018608
	 D(1,9,2,15)      =        -3.141527	    -179.996257
	 D(1,9,10,5)      =        -0.785466	     -45.003887
	 D(1,9,10,6)      =         2.355751	     134.974592
	 D(2,4,11,3)      =         0.000301	       0.017261
	 D(2,4,11,13)     =         3.140981	     179.964960
	 D(2,9,1,3)       =        -0.000348	      -0.019945
	 D(2,9,1,14)      =         3.141027	     179.967567
	 D(2,9,10,5)      =         2.356344	     135.008552
	 D(2,9,10,6)      =        -0.785625	     -45.012969
	 D(3,1,9,10)      =         3.141462	     179.992491
	 D(3,11,4,17)     =         3.140700	     179.948827
	 D(4,2,9,10)      =        -3.141485	    -179.993820
	 D(4,11,3,16)     =         3.140472	     179.935781
	 D(5,7,12,8)      =         0.000447	       0.025623
	 D(5,7,12,22)     =         3.139261	     179.866382
	 D(5,10,6,8)      =        -0.001005	      -0.057583
	 D(5,10,6,19)     =        -3.140864	    -179.958276
	 D(6,8,12,7)      =        -0.001295	      -0.074182
	 D(6,8,12,22)     =        -3.140107	    -179.914896
	 D(6,10,5,7)      =         0.000190	       0.010911
	 D(6,10,5,18)     =        -3.140658	    -179.946428
	 D(7,5,10,9)      =         3.141408	     179.989420
	 D(7,12,8,21)     =        -3.141211	    -179.978137
	 D(8,6,10,9)      =         3.140963	     179.963918
	 D(8,12,7,20)     =        -3.140681	    -179.947739
	 D(9,1,3,11)      =         0.000348	       0.019955
	 D(9,1,3,16)      =        -3.140471	    -179.935743
	 D(9,2,4,11)      =        -0.000301	      -0.017270
	 D(9,2,4,17)      =        -3.140734	    -179.950778
	 D(9,10,5,18)     =         0.000560	       0.032081
	 D(9,10,6,19)     =         0.001103	       0.063225
	 D(10,5,7,12)     =         0.000111	       0.006369
	 D(10,5,7,20)     =         3.141201	     179.977548
	 D(10,6,8,12)     =         0.001550	       0.088827
	 D(10,6,8,21)     =         3.141329	     179.984869
	 D(10,9,1,14)     =        -0.000349	      -0.019997
	 D(10,9,2,15)     =        -0.000152	      -0.008685
	 D(11,3,1,14)     =        -3.141030	    -179.967773
	 D(11,4,2,15)     =         3.141546	     179.997347
	 D(12,7,5,18)     =         3.140972	     179.964451
	 D(12,8,6,19)     =         3.141440	     179.991271
	 D(13,11,3,16)    =        -0.000207	      -0.011889
	 D(13,11,4,17)    =        -0.001806	      -0.103475
	 D(14,1,3,16)     =         0.001336	       0.076530
	 D(15,2,4,17)     =         0.001114	       0.063839
	 D(18,5,7,20)     =        -0.001123	      -0.064370
	 D(19,6,8,21)     =        -0.001967	      -0.112687
	 D(20,7,12,22)    =        -0.001867	      -0.106980
	 D(21,8,12,22)    =         0.003162	       0.181149

	Current energy   :      -553.6536442894

	Generating empirical Hessian (Schlegel '84) for each fragment.
	Adding user-defined constraint: Fragment 1; Coordinate 64:
		Value =    -0.785466; Fixed value    =    -0.785398
		Force =     0.000034; Force constant =     0.500000
	Removing off-diagonal coupling between coordinate 64 and others.
	Taking RFO optimization step.
	Going to follow RFO solution 1.
	Using RFO vector 1.

	Determining step-restricting scale parameter for RS-RFO.
	Maximum step size allowed    0.10000

	 Iter      |step|        alpha        rfo_root  
	------------------------------------------------
	    0     0.40139       1.00000           1
	    1     0.26671       2.98333           1
	    2     0.19105       8.28811           1
	    3     0.14227      20.97233           1
	    4     0.11407      39.80788           1
	    5     0.10239      53.47939           1
	    6     0.10009      56.82275           1
	    7     0.10000      56.95754           1
	------------------------------------------------
	Norm of target step-size    0.10000
	Projected energy change by RFO approximation:        -0.0090479100

	Back-transformation to cartesian coordinates...
	Could not converge backtransformation.
	Using first guess instead.

	--- Internal Coordinate Step in ANG or DEG, aJ/ANG or AJ/DEG ---
	 ---------------------------------------------------------------------------
	   Coordinate                Previous        Force       Change         New 
	   ----------                --------       ------       ------       ------
	    1 R(1,3)          =      1.394038    -0.167411    -0.010900     1.383138
	    2 R(1,9)          =      1.394891     0.128620     0.008236     1.403127
	    3 R(1,14)         =      1.087453    -0.029554    -0.002170     1.085283
	    4 R(2,4)          =      1.394521    -0.170432    -0.011114     1.383408
	    5 R(2,9)          =      1.394821     0.129646     0.008308     1.403129
	    6 R(2,15)         =      1.087302    -0.028687    -0.002100     1.085202
	    7 R(3,11)         =      1.394821     0.274561     0.018175     1.412997
	    8 R(3,16)         =      1.088972    -0.061868    -0.004565     1.084407
	    9 R(4,11)         =      1.395407     0.271156     0.017985     1.413393
	   10 R(4,17)         =      1.088424    -0.059087    -0.004356     1.084067
	   11 R(5,7)          =      1.387520    -0.171488    -0.011046     1.376474
	   12 R(5,10)         =      1.391830     0.159640     0.010372     1.402201
	   13 R(5,18)         =      1.086113    -0.052127    -0.003828     1.082285
	   14 R(6,8)          =      1.387716    -0.172502    -0.011105     1.376610
	   15 R(6,10)         =      1.391421     0.161859     0.010511     1.401932
	   16 R(6,19)         =      1.085804    -0.050440    -0.003702     1.082102
	   17 R(7,12)         =      1.340302     0.132185     0.007843     1.348145
	   18 R(7,20)         =      1.081224    -0.021714    -0.001579     1.079645
	   19 R(8,12)         =      1.339704     0.136072     0.008065     1.347769
	   20 R(8,21)         =      1.081074    -0.020757    -0.001500     1.079574
	   21 R(9,10)         =      1.446855    -0.183554    -0.013009     1.433846
	   22 R(11,13)        =      1.281373    -0.202771    -0.010452     1.270921
	   23 R(12,22)        =      1.019444    -0.089012    -0.005931     1.013513
	   24 B(1,3,11)       =    120.009056     0.000470     0.487338   120.496394
	   25 B(1,3,16)       =    118.552025     0.000221     0.258043   118.810068
	   26 B(1,9,2)        =    119.959722    -0.000222    -0.274316   119.685406
	   27 B(1,9,10)       =    120.053983     0.000103     0.129263   120.183246
	   28 B(2,4,11)       =    119.960108     0.000484     0.498699   120.458807
	   29 B(2,4,17)       =    118.592446     0.000211     0.249108   118.841553
	   30 B(2,9,10)       =    119.986294     0.000119     0.144641   120.130935
	   31 B(3,1,9)        =    120.031219     0.000278     0.246899   120.278118
	   32 B(3,1,14)       =    119.119344     0.000007     0.037690   119.157034
	   33 B(3,11,4)       =    119.994870    -0.001292    -1.207348   118.787523
	   34 B(3,11,13)      =    120.029973     0.000638     0.596909   120.626882
	   35 B(4,2,9)        =    120.045019     0.000281     0.248314   120.293333
	   36 B(4,2,15)       =    119.143974     0.000001     0.031067   119.175042
	   37 B(4,11,13)      =    119.975136     0.000654     0.610457   120.585593
	   38 B(5,7,12)       =    120.107599    -0.000125    -0.127810   119.979789
	   39 B(5,7,20)       =    123.855909    -0.000055    -0.067007   123.788902
	   40 B(5,10,6)       =    119.922048    -0.000910    -0.902984   119.019064
	   41 B(5,10,9)       =    120.016032     0.000458     0.454399   120.470431
	   42 B(6,8,12)       =    120.129174    -0.000131    -0.133670   119.995504
	   43 B(6,8,21)       =    123.866053    -0.000059    -0.070915   123.795138
	   44 B(6,10,9)       =    120.061916     0.000452     0.448282   120.510198
	   45 B(7,5,10)       =    118.765474     0.000592     0.585233   119.350707
	   46 B(7,5,18)       =    119.766769    -0.000267    -0.263246   119.503522
	   47 B(7,12,8)       =    122.317083    -0.000015    -0.006217   122.310865
	   48 B(7,12,22)      =    118.826743     0.000009     0.005394   118.832136
	   49 B(8,6,10)       =    118.758569     0.000589     0.585391   119.343960
	   50 B(8,6,19)       =    119.759784    -0.000265    -0.263280   119.496504
	   51 B(8,12,22)      =    118.855988     0.000006     0.000765   118.856753
	   52 B(9,1,14)       =    120.849435    -0.000285    -0.284796   120.564640
	   53 B(9,2,15)       =    120.811005    -0.000282    -0.279664   120.531341
	   54 B(10,5,18)      =    121.467744    -0.000325    -0.321975   121.145769
	   55 B(10,6,19)      =    121.481573    -0.000324    -0.322038   121.159536
	   56 B(11,3,16)      =    121.438903    -0.000690    -0.745374   120.693530
	   57 B(11,4,17)      =    121.447411    -0.000695    -0.747821   120.699591
	   58 B(12,7,20)      =    116.036486     0.000180     0.194697   116.231183
	   59 B(12,8,21)      =    116.004698     0.000190     0.204449   116.209146
	   60 D(1,3,11,4)     =     -0.018609     0.000016     0.107375     0.088766
	   61 D(1,3,11,13)    =   -179.966279     0.000012     0.074255  -179.892024
	   62 D(1,9,2,4)      =      0.018608     0.000025     0.185386     0.203994
	   63 D(1,9,2,15)     =   -179.996257    -0.000004     0.004662  -179.991594
	   64 D(1,9,10,5)     =    -45.003887     0.000101     0.450389   -44.553498
	   65 D(1,9,10,6)     =    134.974592     0.000127     0.675320   135.649911
	   66 D(2,4,11,3)     =      0.017261     0.000011     0.059718     0.076979
	   67 D(2,4,11,13)    =    179.964960     0.000015     0.092817   180.057777
	   68 D(2,9,1,3)      =     -0.019945     0.000001    -0.018189    -0.038134
	   69 D(2,9,1,14)     =    179.967567    -0.000025    -0.172981   179.794586
	   70 D(2,9,10,5)     =    135.008552     0.000126     0.672371   135.680923
	   71 D(2,9,10,6)     =    -45.012969     0.000152     0.897302   -44.115667
	   72 D(3,1,9,10)     =    179.992491     0.000027     0.202750   180.195241
	   73 D(3,11,4,17)    =    179.948827     0.000010     0.047250   179.996077
	   74 D(4,2,9,10)     =   -179.993820    -0.000000    -0.035438  -180.029258
	   75 D(4,11,3,16)    =    179.935781     0.000019     0.119445   180.055226
	   76 D(5,7,12,8)     =      0.025623     0.000001     0.010798     0.036422
	   77 D(5,7,12,22)    =    179.866382    -0.000002    -0.012447   179.853935
	   78 D(5,10,6,8)     =     -0.057583     0.000011     0.096012     0.038429
	   79 D(5,10,6,19)    =   -179.958276    -0.000003     0.009065  -179.949211
	   80 D(6,8,12,7)     =     -0.074182    -0.000003    -0.023864    -0.098046
	   81 D(6,8,12,22)    =   -179.914896    -0.000001    -0.000621  -179.915517
	   82 D(6,10,5,7)     =      0.010911    -0.000014    -0.109177    -0.098265
	   83 D(6,10,5,18)    =   -179.946428    -0.000024    -0.167782  -180.114210
	   84 D(7,5,10,9)     =    179.989420     0.000013     0.112719   180.102139
	   85 D(7,12,8,21)    =   -179.978137     0.000009     0.041213  -179.936924
	   86 D(8,6,10,9)     =    179.963918    -0.000015    -0.125975   179.837943
	   87 D(8,12,7,20)    =   -179.947739     0.000016     0.108388  -179.839351
	   88 D(9,1,3,11)     =      0.019955    -0.000022    -0.127437    -0.107483
	   89 D(9,1,3,16)     =   -179.935743    -0.000024    -0.138825  -180.074568
	   90 D(9,2,4,11)     =     -0.017270    -0.000031    -0.205823    -0.223094
	   91 D(9,2,4,17)     =   -179.950778    -0.000031    -0.192900  -180.143678
	   92 D(9,10,5,18)    =      0.032081     0.000002     0.054113     0.086194
	   93 D(9,10,6,19)    =      0.063225    -0.000029    -0.212922    -0.149697
	   94 D(10,5,7,12)    =      0.006369     0.000008     0.056332     0.062701
	   95 D(10,5,7,20)    =    179.977548    -0.000009    -0.048928   179.928619
	   96 D(10,6,8,12)    =      0.088827    -0.000003    -0.030609     0.058219
	   97 D(10,6,8,21)    =    179.984869    -0.000015    -0.100599   179.884270
	   98 D(10,9,1,14)    =     -0.019997     0.000001     0.047958     0.027961
	   99 D(10,9,2,15)    =     -0.008685    -0.000030    -0.216161    -0.224846
	  100 D(11,3,1,14)    =   -179.967773     0.000003     0.025227  -179.942546
	  101 D(11,4,2,15)    =    179.997347    -0.000003    -0.027492   179.969855
	  102 D(12,7,5,18)    =    179.964451     0.000018     0.113930   180.078381
	  103 D(12,8,6,19)    =    179.991271     0.000011     0.054795   180.046066
	  104 D(13,11,3,16)   =     -0.011889     0.000015     0.086325     0.074437
	  105 D(13,11,4,17)   =     -0.103475     0.000014     0.080349    -0.023125
	  106 D(14,1,3,16)    =      0.076530     0.000001     0.013840     0.090369
	  107 D(15,2,4,17)    =      0.063839    -0.000002    -0.014568     0.049271
	  108 D(18,5,7,20)    =     -0.064370     0.000001     0.008669    -0.055701
	  109 D(19,6,8,21)    =     -0.112687    -0.000002    -0.015195    -0.127882
	  110 D(20,7,12,22)   =     -0.106980     0.000014     0.085143    -0.021838
	  111 D(21,8,12,22)   =      0.181149     0.000011     0.064456     0.245605
	 ---------------------------------------------------------------------------
	Successfully symmetrized geometry.
	 Forces used to impose fixed constraints are not included.
	  Forces zeroed: 64 

  ==> Convergence Check <==

  Measures of convergence in internal coordinates in au.
  Criteria marked as inactive (o), active & met (*), and active & unmet ( ).
  --------------------------------------------------------------------------------------------- ~
   Step     Total Energy     Delta E     MAX Force     RMS Force      MAX Disp      RMS Disp    ~
  --------------------------------------------------------------------------------------------- ~
    Convergence Criteria    1.00e-06 *    3.00e-04 *             o    1.20e-03 *             o  ~
  --------------------------------------------------------------------------------------------- ~
      1    -553.65364429   -5.54e+02      3.33e-02      8.76e-03 o    3.43e-02      9.49e-03 o  ~
  ---------------------------------------------------------------------------------------------

	Writing optimization data to binary file.
	Structure for next step:
	Cartesian Geometry (in Angstrom)
	    C    -1.3059517629   0.7302195614  -0.5612585127
	    C    -0.3003334216   0.1240492752   1.5621445427
	    C    -2.3752429272   1.3012125139   0.1048149163
	    C    -1.3689222931   0.6905716812   2.2336998520
	    C     0.6378865902  -1.2698054786  -1.6514069621
	    C     2.1634992808  -0.2200152195  -0.0992334591
	    C     1.7196960875  -1.8238031139  -2.2975148317
	    C     3.2106635579  -0.7989317379  -0.7799379159
	    C    -0.2590035149   0.1361517468   0.1596762462
	    C     0.8505400020  -0.4514807277  -0.5327954115
	    C    -2.4282906285   1.2917778633   1.5167838447
	    N     2.9683588052  -1.5783842858  -1.8524230997
	    O    -3.4106264688   1.8139120118   2.1313022479
	    H    -1.2869587871   0.7505494996  -1.6461848633
	    H     0.5020138183  -0.3315347547   2.1334105559
	    H    -3.1707480828   1.7548573671  -0.4759750121
	    H    -1.3778878403   0.6659706458   3.3174510850
	    H    -0.3612134765  -1.4729769321  -2.0145326679
	    H     2.3673321898   0.4049475813   0.7603118807
	    H     1.6388483464  -2.4640486196  -3.1630678386
	    H     4.2477743923  -0.6679737814  -0.5102518906
	    H     3.7521196094  -1.9970086564  -2.3399477032
			--------------------------
			 OPTKING Finished Execution 
			--------------------------

    Structure for next step:
    Molecular point group: c1
    Full point group: C1

    Geometry (in Angstrom), charge = 0, multiplicity = 1:

    C           -1.305417629393     0.729944793066    -0.561494908475
    C           -0.299799288174     0.123774506899     1.561908146917
    C           -2.374708793755     1.300937745634     0.104578520496
    C           -1.368388159657     0.690296912886     2.233463456204
    C            0.638420723692    -1.270080246874    -1.651643357898
    C            2.164033414258    -0.220289987765    -0.099469854884
    C            1.720230220941    -1.824077882229    -2.297751227473
    C            3.211197691361    -0.799206506254    -0.780174311727
    C           -0.258469381397     0.135876978437     0.159439850434
    C            0.851074135419    -0.451755496011    -0.533031807335
    C           -2.427756494987     1.291503094998     1.516547448921
    N            2.968892938657    -1.578659054093    -1.852659495500
    O           -3.410092335355     1.813637243525     2.131065852146
    H           -1.286424653657     0.750274731308    -1.646421259099
    H            0.502547951733    -0.331809522979     2.133174160143
    H           -3.170213949339     1.754582598804    -0.476211407889
    H           -1.377353706803     0.665695877465     3.317214689226
    H           -0.360679343009    -1.473251700464    -2.014769063703
    H            2.367866323241     0.404672812991     0.760075484866
    H            1.639382479824    -2.464323387962    -3.163304234409
    H            4.248308525777    -0.668248549706    -0.510488286343
    H            3.752653742847    -1.997283424743    -2.340184098976

gradient() will perform analytic gradient computation.

*** tstart() called on gpu-2-9.local
*** at Sun Nov 12 17:24:15 2017

    SCF Algorithm Type (re)set to DF.

*** tstart() called on gpu-2-9.local
*** at Sun Nov 12 17:24:15 2017

   => Loading Basis Set <=

    Name: AUG-CC-PVTZ
    Role: ORBITAL
    Keyword: BASIS
    atoms 1-11  entry C          line   221 file /cbio/jclab/home/chayas/anaconda/envs/py35/share/psi4/basis/aug-cc-pvtz.gbs 
    atoms 12    entry N          line   267 file /cbio/jclab/home/chayas/anaconda/envs/py35/share/psi4/basis/aug-cc-pvtz.gbs 
    atoms 13    entry O          line   313 file /cbio/jclab/home/chayas/anaconda/envs/py35/share/psi4/basis/aug-cc-pvtz.gbs 
    atoms 14-22 entry H          line    34 file /cbio/jclab/home/chayas/anaconda/envs/py35/share/psi4/basis/aug-cc-pvtz.gbs 


         ---------------------------------------------------------
                                   SCF
            by Justin Turney, Rob Parrish, and Andy Simmonett
                              RHF Reference
                        8 Threads,   4768 MiB Core
         ---------------------------------------------------------

  ==> Geometry <==

    Molecular point group: c1
    Full point group: C1

    Geometry (in Angstrom), charge = 0, multiplicity = 1:

       Center              X                  Y                   Z               Mass       
    ------------   -----------------  -----------------  -----------------  -----------------
           C         -1.305417629393     0.729944793066    -0.561494908475    12.000000000000
           C         -0.299799288174     0.123774506899     1.561908146917    12.000000000000
           C         -2.374708793755     1.300937745634     0.104578520496    12.000000000000
           C         -1.368388159657     0.690296912886     2.233463456204    12.000000000000
           C          0.638420723692    -1.270080246874    -1.651643357898    12.000000000000
           C          2.164033414258    -0.220289987765    -0.099469854884    12.000000000000
           C          1.720230220941    -1.824077882229    -2.297751227473    12.000000000000
           C          3.211197691361    -0.799206506254    -0.780174311727    12.000000000000
           C         -0.258469381397     0.135876978437     0.159439850434    12.000000000000
           C          0.851074135419    -0.451755496011    -0.533031807335    12.000000000000
           C         -2.427756494987     1.291503094998     1.516547448921    12.000000000000
           N          2.968892938657    -1.578659054093    -1.852659495500    14.003074004780
           O         -3.410092335355     1.813637243525     2.131065852146    15.994914619560
           H         -1.286424653657     0.750274731308    -1.646421259099     1.007825032070
           H          0.502547951733    -0.331809522979     2.133174160143     1.007825032070
           H         -3.170213949339     1.754582598804    -0.476211407889     1.007825032070
           H         -1.377353706803     0.665695877465     3.317214689226     1.007825032070
           H         -0.360679343009    -1.473251700464    -2.014769063703     1.007825032070
           H          2.367866323241     0.404672812991     0.760075484866     1.007825032070
           H          1.639382479824    -2.464323387962    -3.163304234409     1.007825032070
           H          4.248308525777    -0.668248549706    -0.510488286343     1.007825032070
           H          3.752653742847    -1.997283424743    -2.340184098976     1.007825032070

  Running in c1 symmetry.

  Rotational constants: A =      0.09567  B =      0.01359  C =      0.01234 [cm^-1]
  Rotational constants: A =   2868.16155  B =    407.34466  C =    369.79749 [MHz]
  Nuclear repulsion =  700.375964136872881

  Charge       = 0
  Multiplicity = 1
  Electrons    = 90
  Nalpha       = 45
  Nbeta        = 45

  ==> Algorithm <==

  SCF Algorithm Type is DF.
  DIIS enabled.
  MOM disabled.
  Fractional occupation disabled.
  Guess Type is READ.
  Energy threshold   = 1.00e-10
  Density threshold  = 1.00e-10
  Integral threshold = 0.00e+00

  ==> Primary Basis <==

  Basis Set: AUG-CC-PVTZ
    Blend: AUG-CC-PVTZ
    Number of shells: 263
    Number of basis function: 805
    Number of Cartesian functions: 940
    Spherical Harmonics?: true
    Max angular momentum: 3

   => Loading Basis Set <=

    Name: (AUG-CC-PVTZ AUX)
    Role: JKFIT
    Keyword: DF_BASIS_SCF
    atoms 1-11  entry C          line   161 file /cbio/jclab/home/chayas/anaconda/envs/py35/share/psi4/basis/aug-cc-pvtz-jkfit.gbs 
    atoms 12    entry N          line   223 file /cbio/jclab/home/chayas/anaconda/envs/py35/share/psi4/basis/aug-cc-pvtz-jkfit.gbs 
    atoms 13    entry O          line   285 file /cbio/jclab/home/chayas/anaconda/envs/py35/share/psi4/basis/aug-cc-pvtz-jkfit.gbs 
    atoms 14-22 entry H          line    69 file /cbio/jclab/home/chayas/anaconda/envs/py35/share/psi4/basis/aug-cc-pvtz-jkfit.gbs 

  Reading orbitals from file 180, no projection.

  ==> Pre-Iterations <==

   -------------------------------------------------------
    Irrep   Nso     Nmo     Nalpha   Nbeta   Ndocc  Nsocc
   -------------------------------------------------------
     A        805     805       0       0       0       0
   -------------------------------------------------------
    Total     805     805      45      45      45       0
   -------------------------------------------------------

  ==> Integral Setup <==

  ==> DFJK: Density-Fitted J/K Matrices <==

    J tasked:                  Yes
    K tasked:                  Yes
    wK tasked:                  No
    OpenMP threads:              8
    Integrals threads:           8
    Memory (MB):              3576
    Algorithm:                Disk
    Integral Cache:           NONE
    Schwarz Cutoff:          1E-12
    Fitting Condition:       1E-12

   => Auxiliary Basis Set <=

  Basis Set: (AUG-CC-PVTZ AUX)
    Blend: AUG-CC-PVTZ-JKFIT
    Number of shells: 516
    Number of basis function: 1766
    Number of Cartesian functions: 2198
    Spherical Harmonics?: true
    Max angular momentum: 4

  Minimum eigenvalue in the overlap matrix is 6.8468802668E-07.
  Using Symmetric Orthogonalization.

  SCF Guess: Orbitals guess was supplied from a previous computation.

  ==> Iterations <==

                           Total Energy        Delta E     RMS |[F,P]|

   @DF-RHF iter   0:  -551.26812234073714   -5.51268e+02   5.19780e-04 
   @DF-RHF iter   1:  -551.21764612355469    5.04762e-02   9.51223e-05 
   @DF-RHF iter   2:  -551.21799548418915   -3.49361e-04   6.63930e-05 DIIS
   @DF-RHF iter   3:  -551.21822807243802   -2.32588e-04   1.24768e-05 DIIS
   @DF-RHF iter   4:  -551.21825950702669   -3.14346e-05   7.42507e-06 DIIS
   @DF-RHF iter   5:  -551.21827658669349   -1.70797e-05   4.87797e-06 DIIS
   @DF-RHF iter   6:  -551.21828320508166   -6.61839e-06   2.24575e-06 DIIS
   @DF-RHF iter   7:  -551.21828446103314   -1.25595e-06   4.89899e-07 DIIS
   @DF-RHF iter   8:  -551.21828453502633   -7.39932e-08   2.00806e-07 DIIS
   @DF-RHF iter   9:  -551.21828454006413   -5.03780e-09   8.10065e-08 DIIS
   @DF-RHF iter  10:  -551.21828454105162   -9.87484e-10   2.84063e-08 DIIS
   @DF-RHF iter  11:  -551.21828454118213   -1.30512e-10   1.16281e-08 DIIS
   @DF-RHF iter  12:  -551.21828454122237   -4.02451e-11   4.93689e-09 DIIS
   @DF-RHF iter  13:  -551.21828454123420   -1.18234e-11   2.52826e-09 DIIS
   @DF-RHF iter  14:  -551.21828454122419    1.00044e-11   7.63417e-10 DIIS
   @DF-RHF iter  15:  -551.21828454122635   -2.16005e-12   2.86048e-10 DIIS
   @DF-RHF iter  16:  -551.21828454120737    1.89857e-11   9.59252e-11 DIIS

  ==> Post-Iterations <==

    Orbital Energies (a.u.)
    -----------------------

    Doubly Occupied:                                                      

       1A    -20.433638     2A    -15.697431     3A    -11.355873  
       4A    -11.355799     5A    -11.308047     6A    -11.284236  
       7A    -11.284141     8A    -11.247450     9A    -11.226188  
      10A    -11.226134    11A    -11.211076    12A    -11.185319  
      13A    -11.185248    14A     -1.379130    15A     -1.261292  
      16A     -1.177581    17A     -1.111541    18A     -1.105546  
      19A     -0.994684    20A     -0.991151    21A     -0.934569  
      22A     -0.899913    23A     -0.836099    24A     -0.807854  
      25A     -0.782660    26A     -0.733776    27A     -0.720323  
      28A     -0.690274    29A     -0.674067    30A     -0.651763  
      31A     -0.616042    32A     -0.614789    33A     -0.606489  
      34A     -0.581513    35A     -0.563155    36A     -0.535679  
      37A     -0.508001    38A     -0.482759    39A     -0.482399  
      40A     -0.458381    41A     -0.421326    42A     -0.394524  
      43A     -0.342531    44A     -0.324596    45A     -0.229051  

    Virtual:                                                              

      46A     -0.008002    47A      0.011191    48A      0.018457  
      49A      0.023544    50A      0.036364    51A      0.040329  
      52A      0.041218    53A      0.052369    54A      0.055602  
      55A      0.058235    56A      0.062346    57A      0.068992  
      58A      0.070577    59A      0.071237    60A      0.082173  
      61A      0.092675    62A      0.093748    63A      0.104776  
      64A      0.104910    65A      0.105368    66A      0.117808  
      67A      0.120111    68A      0.120850    69A      0.126826  
      70A      0.128634    71A      0.129299    72A      0.131648  
      73A      0.135804    74A      0.145528    75A      0.150610  
      76A      0.151678    77A      0.151850    78A      0.161345  
      79A      0.164344    80A      0.166163    81A      0.167718  
      82A      0.172300    83A      0.181207    84A      0.182033  
      85A      0.185214    86A      0.190558    87A      0.196393  
      88A      0.196480    89A      0.206999    90A      0.208801  
      91A      0.211944    92A      0.214975    93A      0.221960  
      94A      0.227176    95A      0.227644    96A      0.232515  
      97A      0.234965    98A      0.248698    99A      0.252441  
     100A      0.253493   101A      0.254936   102A      0.259751  
     103A      0.265369   104A      0.269362   105A      0.270899  
     106A      0.282184   107A      0.284240   108A      0.289584  
     109A      0.292591   110A      0.293914   111A      0.297611  
     112A      0.303383   113A      0.305167   114A      0.312329  
     115A      0.321566   116A      0.322058   117A      0.327719  
     118A      0.328492   119A      0.330806   120A      0.332774  
     121A      0.340718   122A      0.346451   123A      0.347975  
     124A      0.348034   125A      0.360713   126A      0.361913  
     127A      0.363815   128A      0.363957   129A      0.370151  
     130A      0.373694   131A      0.380383   132A      0.386885  
     133A      0.388610   134A      0.396584   135A      0.402636  
     136A      0.406119   137A      0.415406   138A      0.415794  
     139A      0.422242   140A      0.423719   141A      0.427289  
     142A      0.435164   143A      0.440420   144A      0.441178  
     145A      0.446921   146A      0.455247   147A      0.457522  
     148A      0.460587   149A      0.463844   150A      0.464667  
     151A      0.470556   152A      0.472741   153A      0.475386  
     154A      0.480421   155A      0.484692   156A      0.488659  
     157A      0.491991   158A      0.493942   159A      0.494349  
     160A      0.498377   161A      0.499294   162A      0.503764  
     163A      0.507902   164A      0.509891   165A      0.516955  
     166A      0.523099   167A      0.527384   168A      0.529072  
     169A      0.532870   170A      0.534002   171A      0.543745  
     172A      0.544220   173A      0.550607   174A      0.555183  
     175A      0.564463   176A      0.567088   177A      0.569656  
     178A      0.577073   179A      0.579098   180A      0.585283  
     181A      0.591892   182A      0.597357   183A      0.605155  
     184A      0.606365   185A      0.608212   186A      0.624291  
     187A      0.625748   188A      0.643775   189A      0.648825  
     190A      0.651035   191A      0.657091   192A      0.661994  
     193A      0.670388   194A      0.670810   195A      0.674256  
     196A      0.686433   197A      0.690882   198A      0.692636  
     199A      0.696123   200A      0.701773   201A      0.705059  
     202A      0.716919   203A      0.718692   204A      0.721228  
     205A      0.725599   206A      0.732978   207A      0.737616  
     208A      0.742973   209A      0.748515   210A      0.753148  
     211A      0.761890   212A      0.762327   213A      0.771899  
     214A      0.776565   215A      0.776866   216A      0.788640  
     217A      0.793529   218A      0.795244   219A      0.810314  
     220A      0.814342   221A      0.815364   222A      0.827615  
     223A      0.836791   224A      0.841409   225A      0.851631  
     226A      0.852319   227A      0.856177   228A      0.863972  
     229A      0.873452   230A      0.877684   231A      0.878262  
     232A      0.884693   233A      0.889770   234A      0.892775  
     235A      0.903412   236A      0.908009   237A      0.908279  
     238A      0.914516   239A      0.915039   240A      0.921761  
     241A      0.922234   242A      0.927002   243A      0.932020  
     244A      0.932213   245A      0.937761   246A      0.938894  
     247A      0.953566   248A      0.958348   249A      0.960749  
     250A      0.963874   251A      0.970295   252A      0.974313  
     253A      0.987404   254A      0.987707   255A      0.995967  
     256A      1.000103   257A      1.005772   258A      1.009089  
     259A      1.013790   260A      1.020065   261A      1.024210  
     262A      1.027388   263A      1.028123   264A      1.032306  
     265A      1.038402   266A      1.039673   267A      1.045040  
     268A      1.046102   269A      1.053807   270A      1.055065  
     271A      1.058137   272A      1.062603   273A      1.075390  
     274A      1.077827   275A      1.085116   276A      1.085910  
     277A      1.093110   278A      1.098066   279A      1.099706  
     280A      1.102737   281A      1.110263   282A      1.115353  
     283A      1.118309   284A      1.123248   285A      1.126134  
     286A      1.135029   287A      1.137225   288A      1.143303  
     289A      1.153571   290A      1.154653   291A      1.156007  
     292A      1.166460   293A      1.167023   294A      1.180962  
     295A      1.183364   296A      1.188496   297A      1.190666  
     298A      1.191930   299A      1.193292   300A      1.201206  
     301A      1.209722   302A      1.216107   303A      1.218706  
     304A      1.221532   305A      1.225562   306A      1.237266  
     307A      1.243595   308A      1.244003   309A      1.248883  
     310A      1.253266   311A      1.264200   312A      1.265085  
     313A      1.270724   314A      1.278016   315A      1.278174  
     316A      1.287631   317A      1.295818   318A      1.305933  
     319A      1.312668   320A      1.320042   321A      1.327729  
[...]
     304A      1.218828   305A      1.222295   306A      1.231061  
     307A      1.233848   308A      1.242853   309A      1.247196  
     310A      1.254055   311A      1.259739   312A      1.266926  
     313A      1.271305   314A      1.279315   315A      1.282885  
     316A      1.295112   317A      1.295632   318A      1.306519  
     319A      1.311253   320A      1.316200   321A      1.323012  
     322A      1.327294   323A      1.341195   324A      1.350646  
     325A      1.354680   326A      1.360971   327A      1.364699  
     328A      1.367315   329A      1.372973   330A      1.383114  
     331A      1.387030   332A      1.399791   333A      1.408665  
     334A      1.415664   335A      1.418177   336A      1.435014  
     337A      1.438879   338A      1.446068   339A      1.450444  
     340A      1.454111   341A      1.457099   342A      1.469350  
     343A      1.484853   344A      1.488245   345A      1.494083  
     346A      1.497762   347A      1.508548   348A      1.512557  
     349A      1.516494   350A      1.529055   351A      1.537389  
     352A      1.540378   353A      1.543771   354A      1.558004  
     355A      1.562020   356A      1.571953   357A      1.572963  
     358A      1.579684   359A      1.600293   360A      1.608599  
     361A      1.613141   362A      1.627827   363A      1.637642  
     364A      1.638573   365A      1.648448   366A      1.658831  
     367A      1.666005   368A      1.680705   369A      1.683746  
     370A      1.688832   371A      1.694896   372A      1.711555  
     373A      1.712583   374A      1.714459   375A      1.723820  
     376A      1.729276   377A      1.737006   378A      1.750058  
     379A      1.763952   380A      1.772869   381A      1.777547  
     382A      1.781660   383A      1.800512   384A      1.805405  
     385A      1.809324   386A      1.815997   387A      1.828260  
     388A      1.836542   389A      1.838758   390A      1.841286  
     391A      1.843576   392A      1.853483   393A      1.859983  
     394A      1.872802   395A      1.881151   396A      1.895263  
     397A      1.910676   398A      1.915016   399A      1.919229  
     400A      1.930009   401A      1.939159   402A      1.946204  
     403A      1.954363   404A      1.959883   405A      1.964330  
     406A      1.977747   407A      1.988435   408A      1.992078  
     409A      1.999951   410A      2.010919   411A      2.015528  
     412A      2.019230   413A      2.022817   414A      2.025354  
     415A      2.036854   416A      2.045057   417A      2.055768  
     418A      2.059537   419A      2.066597   420A      2.073340  
     421A      2.080239   422A      2.081664   423A      2.088892  
     424A      2.096707   425A      2.115146   426A      2.116077  
     427A      2.131084   428A      2.138140   429A      2.146663  
     430A      2.155024   431A      2.157414   432A      2.163947  
     433A      2.172709   434A      2.185657   435A      2.194576  
     436A      2.207789   437A      2.212616   438A      2.223501  
     439A      2.227673   440A      2.238201   441A      2.253842  
     442A      2.266854   443A      2.278885   444A      2.287151  
     445A      2.303608   446A      2.314264   447A      2.322566  
     448A      2.331456   449A      2.337724   450A      2.350646  
     451A      2.357129   452A      2.369128   453A      2.372909  
     454A      2.386824   455A      2.394259   456A      2.396678  
     457A      2.400940   458A      2.415969   459A      2.427191  
     460A      2.430534   461A      2.443778   462A      2.457153  
     463A      2.468401   464A      2.475821   465A      2.486908  
     466A      2.498128   467A      2.510114   468A      2.511759  
     469A      2.531634   470A      2.540840   471A      2.550046  
     472A      2.556946   473A      2.567855   474A      2.571515  
     475A      2.581598   476A      2.592104   477A      2.624775  
     478A      2.635674   479A      2.640563   480A      2.655382  
     481A      2.658221   482A      2.678981   483A      2.689813  
     484A      2.714738   485A      2.726825   486A      2.734195  
     487A      2.747415   488A      2.749495   489A      2.758989  
     490A      2.764014   491A      2.789283   492A      2.798680  
     493A      2.830715   494A      2.839868   495A      2.860360  
     496A      2.875664   497A      2.888008   498A      2.901155  
     499A      2.936960   500A      2.952629   501A      2.958452  
     502A      2.985533   503A      3.010034   504A      3.025850  
     505A      3.070030   506A      3.082351   507A      3.106339  
     508A      3.116676   509A      3.124268   510A      3.134327  
     511A      3.170144   512A      3.177364   513A      3.196169  
     514A      3.201755   515A      3.220426   516A      3.231600  
     517A      3.250335   518A      3.266855   519A      3.286142  
     520A      3.304557   521A      3.318745   522A      3.336934  
     523A      3.344548   524A      3.364808   525A      3.367025  
     526A      3.371264   527A      3.391151   528A      3.400756  
     529A      3.414224   530A      3.415807   531A      3.422410  
     532A      3.433957   533A      3.442279   534A      3.451648  
     535A      3.474324   536A      3.494451   537A      3.500058  
     538A      3.502363   539A      3.511784   540A      3.521145  
     541A      3.529483   542A      3.537436   543A      3.538611  
     544A      3.548070   545A      3.559621   546A      3.565622  
     547A      3.567331   548A      3.581305   549A      3.588150  
     550A      3.593193   551A      3.604349   552A      3.614959  
     553A      3.620322   554A      3.634404   555A      3.647239  
     556A      3.652471   557A      3.660411   558A      3.667428  
     559A      3.681839   560A      3.686150   561A      3.690190  
     562A      3.706604   563A      3.720542   564A      3.737167  
     565A      3.738982   566A      3.743446   567A      3.761836  
     568A      3.766770   569A      3.777355   570A      3.784346  
     571A      3.787856   572A      3.799101   573A      3.808319  
     574A      3.822295   575A      3.829601   576A      3.830147  
     577A      3.853909   578A      3.860133   579A      3.863895  
     580A      3.882179   581A      3.887003   582A      3.898914  
     583A      3.908258   584A      3.920875   585A      3.922817  
     586A      3.942617   587A      3.947088   588A      3.948938  
     589A      3.958674   590A      3.968471   591A      3.984897  
     592A      3.990560   593A      3.993086   594A      4.007843  
     595A      4.015577   596A      4.020151   597A      4.026977  
     598A      4.030132   599A      4.038126   600A      4.055337  
     601A      4.064856   602A      4.071158   603A      4.081510  
     604A      4.088721   605A      4.093581   606A      4.099786  
     607A      4.116714   608A      4.133942   609A      4.152591  
     610A      4.157185   611A      4.163991   612A      4.180205  
     613A      4.183653   614A      4.193987   615A      4.202789  
     616A      4.209636   617A      4.217818   618A      4.232282  
     619A      4.233279   620A      4.245923   621A      4.257843  
     622A      4.259055   623A      4.268002   624A      4.276288  
     625A      4.281540   626A      4.299859   627A      4.300830  
     628A      4.318644   629A      4.319970   630A      4.327291  
     631A      4.334707   632A      4.350227   633A      4.360795  
     634A      4.369930   635A      4.380108   636A      4.386159  
     637A      4.391886   638A      4.397973   639A      4.410195  
     640A      4.413364   641A      4.423021   642A      4.425621  
     643A      4.428488   644A      4.440126   645A      4.456686  
     646A      4.471214   647A      4.476521   648A      4.490594  
     649A      4.494570   650A      4.496871   651A      4.514106  
     652A      4.523093   653A      4.531373   654A      4.538025  
     655A      4.543058   656A      4.554565   657A      4.580595  
     658A      4.589122   659A      4.603669   660A      4.611666  
     661A      4.648850   662A      4.652815   663A      4.679950  
     664A      4.695572   665A      4.710898   666A      4.715022  
     667A      4.738469   668A      4.745594   669A      4.756273  
     670A      4.774176   671A      4.787359   672A      4.796511  
     673A      4.808421   674A      4.809457   675A      4.831742  
     676A      4.839677   677A      4.861354   678A      4.878600  
     679A      4.892467   680A      4.897532   681A      4.920718  
     682A      4.927998   683A      4.952685   684A      4.965679  
     685A      4.974204   686A      4.982065   687A      5.003352  
     688A      5.007262   689A      5.044266   690A      5.052507  
     691A      5.063094   692A      5.075082   693A      5.093495  
     694A      5.101341   695A      5.108620   696A      5.117772  
     697A      5.120939   698A      5.131265   699A      5.140154  
     700A      5.154609   701A      5.156771   702A      5.164134  
     703A      5.167148   704A      5.179972   705A      5.193063  
     706A      5.200715   707A      5.214942   708A      5.222730  
     709A      5.237762   710A      5.246772   711A      5.268334  
     712A      5.278674   713A      5.296642   714A      5.328279  
     715A      5.347732   716A      5.357026   717A      5.360646  
     718A      5.395824   719A      5.408844   720A      5.428276  
     721A      5.442678   722A      5.443260   723A      5.470534  
     724A      5.485045   725A      5.493914   726A      5.511051  
     727A      5.543614   728A      5.552177   729A      5.568655  
     730A      5.596698   731A      5.622135   732A      5.642289  
     733A      5.661498   734A      5.693750   735A      5.712926  
     736A      5.741106   737A      5.749078   738A      5.750129  
     739A      5.782745   740A      5.792623   741A      5.824929  
     742A      5.829543   743A      5.851184   744A      5.876885  
     745A      5.897611   746A      5.942655   747A      5.981169  
     748A      5.998051   749A      6.074652   750A      6.090750  
     751A      6.109899   752A      6.138739   753A      6.155886  
     754A      6.173326   755A      6.179866   756A      6.231222  
     757A      6.303026   758A      6.356922   759A      6.362341  
     760A      6.376394   761A      6.485047   762A      6.511203  
     763A      6.560744   764A      6.589148   765A      6.599150  
     766A      6.648620   767A      6.671385   768A      6.704620  
     769A      6.735239   770A      6.741733   771A      6.790045  
     772A      6.812969   773A      6.863639   774A      6.931524  
     775A      6.955198   776A      6.986750   777A      7.001406  
     778A      7.060994   779A      7.079883   780A      7.097688  
     781A      7.143168   782A      7.171693   783A      7.239311  
     784A      7.456022   785A      7.495843   786A      7.568074  
     787A      7.696650   788A      7.783805   789A      7.830883  
     790A      7.881108   791A      7.988557   792A      8.066233  
     793A     16.001428   794A     16.608401   795A     16.721507  
     796A     16.813482   797A     17.012266   798A     18.855566  
     799A     18.978484   800A     19.637755   801A     19.830831  
     802A     20.032906   803A     20.336487   804A     20.706037  
     805A     21.816709  

    Final Occupation by Irrep:
              A 
    DOCC [    45 ]

  Energy converged.

  @DF-RHF Final Energy:  -551.23788833807760

   => Energetics <=

    Nuclear Repulsion Energy =            698.5088078273549854
    One-Electron Energy =               -2133.5868216495196066
    Two-Electron Energy =                 883.8401254840870251
    DFT Exchange-Correlation Energy =       0.0000000000000000
    Empirical Dispersion Energy =           0.0000000000000000
    PCM Polarization Energy =               0.0000000000000000
    EFP Energy =                            0.0000000000000000
    Total Energy =                       -551.2378883380775960



Properties will be evaluated at   0.000000,   0.000000,   0.000000 Bohr

Properties computed using the SCF density matrix

  Nuclear Dipole Moment: (a.u.)
     X:     5.9527      Y:    -3.1570      Z:    -3.6446

  Electronic Dipole Moment: (a.u.)
     X:    -1.2858      Y:     0.6680      Z:     0.7332

  Dipole Moment: (a.u.)
     X:     4.6669      Y:    -2.4890      Z:    -2.9114     Total:     6.0375

  Dipole Moment: (Debye)
     X:    11.8622      Y:    -6.3264      Z:    -7.4000     Total:    15.3459


*** tstop() called on gpu-2-9.local at Mon Nov 13 16:16:32 2017
Module time:
	user time   =     857.93 seconds =      14.30 minutes
	system time =      37.78 seconds =       0.63 minutes
	total time  =        386 seconds =       6.43 minutes
Total time:
	user time   =  185208.35 seconds =    3086.81 minutes
	system time =    3874.07 seconds =      64.57 minutes
	total time  =      84710 seconds =    1411.83 minutes

  //>>>>>>>>>>>>>>>>>>>>>>>>>>>>>>>>>>>//
  //               DFMP2               //
  //<<<<<<<<<<<<<<<<<<<<<<<<<<<<<<<<<<<//

   => Loading Basis Set <=

    Name: (AUG-CC-PVTZ AUX)
    Role: RIFIT
    Keyword: DF_BASIS_MP2
    atoms 1-11  entry C          line   147 file /cbio/jclab/home/chayas/anaconda/envs/py35/share/psi4/basis/aug-cc-pvtz-ri.gbs 
    atoms 12    entry N          line   205 file /cbio/jclab/home/chayas/anaconda/envs/py35/share/psi4/basis/aug-cc-pvtz-ri.gbs 
    atoms 13    entry O          line   263 file /cbio/jclab/home/chayas/anaconda/envs/py35/share/psi4/basis/aug-cc-pvtz-ri.gbs 
    atoms 14-22 entry H          line    29 file /cbio/jclab/home/chayas/anaconda/envs/py35/share/psi4/basis/aug-cc-pvtz-ri.gbs 

	 --------------------------------------------------------
	                          DF-MP2                         
	      2nd-Order Density-Fitted Moller-Plesset Theory     
	              RMP2 Wavefunction,   8 Threads             
	                                                         
	        Rob Parrish, Justin Turney, Andy Simmonett,      
	           Ed Hohenstein, and C. David Sherrill          
	 --------------------------------------------------------

   => Auxiliary Basis Set <=

  Basis Set: (AUG-CC-PVTZ AUX)
    Blend: AUG-CC-PVTZ-RI
    Number of shells: 490
    Number of basis function: 1792
    Number of Cartesian functions: 2263
    Spherical Harmonics?: true
    Max angular momentum: 4

	 --------------------------------------------------------
	                 NBF =   805, NAUX =  1792
	 --------------------------------------------------------
	   CLASS    FOCC     OCC    AOCC    AVIR     VIR    FVIR
	   PAIRS       0      45      45     760     760       0
	 --------------------------------------------------------


         ------------------------------------------------------------
                                     CPHF                           
                                  Rob Parrish                       
         ------------------------------------------------------------

  ==> Geometry <==

    Molecular point group: c1
    Full point group: C1

    Geometry (in Angstrom), charge = 0, multiplicity = 1:

       Center              X                  Y                   Z               Mass       
    ------------   -----------------  -----------------  -----------------  -----------------
           C         -1.421707443651     0.585787843293    -0.544582947180    12.000000000000
           C         -0.260846951698     0.210428551183     1.554436994479    12.000000000000
           C         -2.425674109429     1.222856794406     0.112315389453    12.000000000000
           C         -1.283654846013     0.793853153289     2.232549550891    12.000000000000
           C          0.685892325485    -1.198301985953    -1.758965066766    12.000000000000
           C          2.132892080237    -0.340501442776    -0.047174694898    12.000000000000
           C          1.766813418280    -1.736362773386    -2.380027621009    12.000000000000
           C          3.192541364049    -0.886598736637    -0.698546229913    12.000000000000
           C         -0.310949087369     0.020089335487     0.145771370054    12.000000000000
           C          0.807599152183    -0.424370980689    -0.567203243389    12.000000000000
           C         -2.441343136696     1.347539318705     1.556052329378    12.000000000000
           N          3.013783395620    -1.571366154109    -1.859164026845    14.003074004780
           O         -3.371525730439     1.893074597837     2.170290036482    15.994914619560
           H         -1.437892067753     0.546803606347    -1.625876013227     1.007825032070
           H          0.573526720884    -0.201900815805     2.107002516825     1.007825032070
           H         -3.239782455875     1.681778596072    -0.428544953733     1.007825032070
           H         -1.265372990118     0.870490382361     3.309881236666     1.007825032070
           H         -0.289414552202    -1.383960696273    -2.179394071716     1.007825032070
           H          2.327661969611     0.216945278458     0.853998910831     1.007825032070
           H          1.693708039561    -2.338793050204    -3.270310294169     1.007825032070
           H          4.207599265698    -0.795908194466    -0.346658595381     1.007825032070
           H          3.806351736109    -1.977628431100    -2.324647865420     1.007825032070

  Nuclear repulsion =  698.508807827354985
  Reference energy  = -551.237888338077596

  ==> Basis Set <==

  Basis Set: AUG-CC-PVTZ
    Blend: AUG-CC-PVTZ
    Number of shells: 263
    Number of basis function: 805
    Number of Cartesian functions: 940
    Spherical Harmonics?: true
    Max angular momentum: 3

  ==> CGRSolver (by Rob Parrish) <==

   Number of roots    =         1
   Preconditioning    =    JACOBI
   Convergence cutoff =     1E-06
   Maximum iterations =       100

  ==> CPHFRHamiltonian (by Rob Parrish) <== 

  ==> DFJK: Density-Fitted J/K Matrices <==

    J tasked:                  Yes
    K tasked:                  Yes
    wK tasked:                  No
    OpenMP threads:              8
    Integrals threads:           8
    Memory (MB):              3576
    Algorithm:                Disk
    Integral Cache:           NONE
    Schwarz Cutoff:          1E-12
    Fitting Condition:       1E-12

   => Auxiliary Basis Set <=

  Basis Set: (AUG-CC-PVTZ AUX)
    Blend: AUG-CC-PVTZ-JKFIT
    Number of shells: 516
    Number of basis function: 1766
    Number of Cartesian functions: 2198
    Spherical Harmonics?: true
    Max angular momentum: 4

  ==> CPHF Iterations <==

  => Iterations <=

             Iter  Converged  Remaining    Residual
  CGR           1          0          1   1.547E-01
  CGR           2          0          1   5.849E-02
  CGR           3          0          1   2.856E-02
  CGR           4          0          1   8.078E-03
  CGR           5          0          1   2.764E-03
  CGR           6          0          1   1.294E-03
  CGR           7          0          1   5.440E-04
  CGR           8          0          1   2.750E-04
  CGR           9          0          1   1.243E-04
  CGR          10          0          1   3.714E-05
  CGR          11          0          1   1.295E-05
  CGR          12          0          1   3.241E-06
  CGR          13          0          1   1.074E-06
  CGR          14          1          0   4.143E-07

    CGRSolver converged.

  ==> DFCorrGrad: Density-Fitted Correlated Gradients <==

    OpenMP threads:              8
    Integrals threads:           8
    Memory (MB):              3576
    Schwarz Cutoff:          0E+00
    Fitting Condition:       1E-12

   => Auxiliary Basis Set <=

  Basis Set: (AUG-CC-PVTZ AUX)
    Blend: AUG-CC-PVTZ-JKFIT
    Number of shells: 516
    Number of basis function: 1766
    Number of Cartesian functions: 2198
    Spherical Harmonics?: true
    Max angular momentum: 4

