
    -----------------------------------------------------------------------
          Psi4: An Open-Source Ab Initio Electronic Structure Package
                               Psi4 1.1 release

                         Git: Rev {HEAD} add49b9 


    R. M. Parrish, L. A. Burns, D. G. A. Smith, A. C. Simmonett,
    A. E. DePrince III, E. G. Hohenstein, U. Bozkaya, A. Yu. Sokolov,
    R. Di Remigio, R. M. Richard, J. F. Gonthier, A. M. James,
    H. R. McAlexander, A. Kumar, M. Saitow, X. Wang, B. P. Pritchard,
    P. Verma, H. F. Schaefer III, K. Patkowski, R. A. King, E. F. Valeev,
    F. A. Evangelista, J. M. Turney, T. D. Crawford, and C. D. Sherrill,
    J. Chem. Theory Comput. in press (2017).
    (doi: 10.1021/acs.jctc.7b00174)

    -----------------------------------------------------------------------


    Psi4 started on: Sunday, 12 November 2017 12:48PM

    Process ID:  21520
    PSIDATADIR: /cbio/jclab/home/chayas/anaconda/envs/py35/share/psi4
    Memory:     500.0 MiB
    Threads:    8
    
  ==> Input File <==

--------------------------------------------------------------------------

memory 5 Gb

molecule phepyrOH_neutral {
  symmetry C1
  0 1 
  C      1.885   -1.036   -0.112
  C      2.878   -1.652   2.002
  C      0.807   -0.463   0.561
  C      1.800   -1.079   2.676
  C      3.820   -3.040   -1.195
  C      5.339   -1.983   0.341
  C      4.925   -3.584   -1.830
  C      6.376   -2.575   -0.363
  C      2.921   -1.631   0.608
  C      4.040   -2.225   -0.090
  C      0.764   -0.484   1.955
  N      6.202   -3.372   -1.441
  O      -0.288   0.076   2.612
  H      1.904   -1.012   -1.199
  H      3.678   -2.112   2.578
  H      0.003   -0.001   -0.006
  H      1.772   -1.098   3.762
  H      2.820   -3.251   -1.562
  H      5.549   -1.354   1.199
  H      4.807   -4.224   -2.698
  H      7.408   -2.418   -0.066
  H      -0.175   -0.018   3.571
  units Angstrom
}

dih_string = "1 9 10 5 315"
set optking fixed_dihedral = $dih_string

optimize('MP2/aug-cc-PVTZ')
--------------------------------------------------------------------------

  Memory set to   4.657 GiB by Python driver.
gradient() will perform analytic gradient computation.

*** tstart() called on gpu-1-7.local
*** at Sun Nov 12 12:48:36 2017

    SCF Algorithm Type (re)set to DF.

*** tstart() called on gpu-1-7.local
*** at Sun Nov 12 12:48:36 2017

   => Loading Basis Set <=

    Name: AUG-CC-PVTZ
    Role: ORBITAL
    Keyword: BASIS
    atoms 1-11  entry C          line   221 file /cbio/jclab/home/chayas/anaconda/envs/py35/share/psi4/basis/aug-cc-pvtz.gbs 
    atoms 12    entry N          line   267 file /cbio/jclab/home/chayas/anaconda/envs/py35/share/psi4/basis/aug-cc-pvtz.gbs 
    atoms 13    entry O          line   313 file /cbio/jclab/home/chayas/anaconda/envs/py35/share/psi4/basis/aug-cc-pvtz.gbs 
    atoms 14-22 entry H          line    34 file /cbio/jclab/home/chayas/anaconda/envs/py35/share/psi4/basis/aug-cc-pvtz.gbs 


         ---------------------------------------------------------
                                   SCF
            by Justin Turney, Rob Parrish, and Andy Simmonett
                              RHF Reference
                        8 Threads,   4768 MiB Core
         ---------------------------------------------------------

  ==> Geometry <==

    Molecular point group: c1
    Full point group: C1

    Geometry (in Angstrom), charge = 0, multiplicity = 1:

       Center              X                  Y                   Z               Mass       
    ------------   -----------------  -----------------  -----------------  -----------------
           C         -1.253415719928     0.709710615413    -0.590515824908    12.000000000000
           C         -0.260415719928     0.093710615413     1.523484175092    12.000000000000
           C         -2.331415719928     1.282710615413     0.082484175092    12.000000000000
           C         -1.338415719928     0.666710615413     2.197484175092    12.000000000000
           C          0.681584280072    -1.294289384587    -1.673515824908    12.000000000000
           C          2.200584280072    -0.237289384587    -0.137515824908    12.000000000000
           C          1.786584280072    -1.838289384587    -2.308515824908    12.000000000000
           C          3.237584280072    -0.829289384587    -0.841515824908    12.000000000000
           C         -0.217415719928     0.114710615413     0.129484175092    12.000000000000
           C          0.901584280072    -0.479289384587    -0.568515824908    12.000000000000
           C         -2.374415719928     1.261710615413     1.476484175092    12.000000000000
           N          3.063584280072    -1.626289384587    -1.919515824908    14.003074004780
           O         -3.426415719928     1.821710615413     2.133484175092    15.994914619560
           H         -1.234415719928     0.733710615413    -1.677515824908     1.007825032070
           H          0.539584280072    -0.366289384587     2.099484175092     1.007825032070
           H         -3.135415719928     1.744710615413    -0.484515824908     1.007825032070
           H         -1.366415719928     0.647710615413     3.283484175092     1.007825032070
           H         -0.318415719928    -1.505289384587    -2.040515824908     1.007825032070
           H          2.410584280072     0.391710615413     0.720484175092     1.007825032070
           H          1.668584280072    -2.478289384587    -3.176515824908     1.007825032070
           H          4.269584280072    -0.672289384587    -0.544515824908     1.007825032070
           H         -3.313415719928     1.727710615413     3.092484175092     1.007825032070

  Running in c1 symmetry.

  Rotational constants: A =      0.09695  B =      0.01340  C =      0.01221 [cm^-1]
  Rotational constants: A =   2906.47855  B =    401.68193  C =    365.92561 [MHz]
  Nuclear repulsion =  698.066350168278291

  Charge       = 0
  Multiplicity = 1
  Electrons    = 90
  Nalpha       = 45
  Nbeta        = 45

  ==> Algorithm <==

  SCF Algorithm Type is DF.
  DIIS enabled.
  MOM disabled.
  Fractional occupation disabled.
  Guess Type is SAD.
  Energy threshold   = 1.00e-10
  Density threshold  = 1.00e-10
  Integral threshold = 0.00e+00

  ==> Primary Basis <==

  Basis Set: AUG-CC-PVTZ
    Blend: AUG-CC-PVTZ
    Number of shells: 263
    Number of basis function: 805
    Number of Cartesian functions: 940
    Spherical Harmonics?: true
    Max angular momentum: 3

   => Loading Basis Set <=

    Name: (AUG-CC-PVTZ AUX)
    Role: JKFIT
    Keyword: DF_BASIS_SCF
    atoms 1-11  entry C          line   161 file /cbio/jclab/home/chayas/anaconda/envs/py35/share/psi4/basis/aug-cc-pvtz-jkfit.gbs 
    atoms 12    entry N          line   223 file /cbio/jclab/home/chayas/anaconda/envs/py35/share/psi4/basis/aug-cc-pvtz-jkfit.gbs 
    atoms 13    entry O          line   285 file /cbio/jclab/home/chayas/anaconda/envs/py35/share/psi4/basis/aug-cc-pvtz-jkfit.gbs 
    atoms 14-22 entry H          line    69 file /cbio/jclab/home/chayas/anaconda/envs/py35/share/psi4/basis/aug-cc-pvtz-jkfit.gbs 

  ==> Pre-Iterations <==

   -------------------------------------------------------
    Irrep   Nso     Nmo     Nalpha   Nbeta   Ndocc  Nsocc
   -------------------------------------------------------
     A        805     805       0       0       0       0
   -------------------------------------------------------
    Total     805     805      45      45      45       0
   -------------------------------------------------------

  ==> Integral Setup <==

  ==> DFJK: Density-Fitted J/K Matrices <==

    J tasked:                  Yes
    K tasked:                  Yes
    wK tasked:                  No
    OpenMP threads:              8
    Integrals threads:           8
    Memory (MB):              3576
    Algorithm:                Disk
    Integral Cache:           NONE
    Schwarz Cutoff:          1E-12
    Fitting Condition:       1E-12

   => Auxiliary Basis Set <=

  Basis Set: (AUG-CC-PVTZ AUX)
    Blend: AUG-CC-PVTZ-JKFIT
    Number of shells: 516
    Number of basis function: 1766
    Number of Cartesian functions: 2198
    Spherical Harmonics?: true
    Max angular momentum: 4

  Minimum eigenvalue in the overlap matrix is 5.7666004190E-07.
  Using Symmetric Orthogonalization.

  SCF Guess: Superposition of Atomic Densities via on-the-fly atomic UHF.

  ==> Iterations <==

                           Total Energy        Delta E     RMS |[F,P]|

   @DF-RHF iter   0:  -560.43344009695579   -5.60433e+02   2.52571e-02 
   @DF-RHF iter   1:  -551.00169032596523    9.43175e+00   1.40406e-03 
   @DF-RHF iter   2:  -551.23722544090504   -2.35535e-01   8.71852e-04 DIIS
   @DF-RHF iter   3:  -551.27268019050393   -3.54547e-02   3.73582e-04 DIIS
   @DF-RHF iter   4:  -551.28488810846386   -1.22079e-02   1.24204e-04 DIIS
   @DF-RHF iter   5:  -551.28660881210180   -1.72070e-03   4.48677e-05 DIIS
   @DF-RHF iter   6:  -551.28689127399105   -2.82462e-04   2.04266e-05 DIIS
   @DF-RHF iter   7:  -551.28694134543753   -5.00714e-05   6.12349e-06 DIIS
   @DF-RHF iter   8:  -551.28694901909773   -7.67366e-06   2.30692e-06 DIIS
   @DF-RHF iter   9:  -551.28695136753345   -2.34844e-06   1.70111e-06 DIIS
   @DF-RHF iter  10:  -551.28695222758847   -8.60055e-07   6.50382e-07 DIIS
   @DF-RHF iter  11:  -551.28695229792334   -7.03349e-08   1.80138e-07 DIIS
   @DF-RHF iter  12:  -551.28695230680034   -8.87701e-09   5.80430e-08 DIIS
   @DF-RHF iter  13:  -551.28695230759388   -7.93534e-10   2.54242e-08 DIIS
   @DF-RHF iter  14:  -551.28695230775816   -1.64277e-10   1.43940e-08 DIIS
   @DF-RHF iter  15:  -551.28695230782478   -6.66205e-11   7.21393e-09 DIIS
   @DF-RHF iter  16:  -551.28695230781659    8.18545e-12   2.49091e-09 DIIS
   @DF-RHF iter  17:  -551.28695230779510    2.14868e-11   1.06085e-09 DIIS
   @DF-RHF iter  18:  -551.28695230780920   -1.40972e-11   4.38420e-10 DIIS
   @DF-RHF iter  19:  -551.28695230781227   -3.06954e-12   1.57230e-10 DIIS
   @DF-RHF iter  20:  -551.28695230782489   -1.26192e-11   5.01994e-11 DIIS

  ==> Post-Iterations <==

    Orbital Energies (a.u.)
    -----------------------

    Doubly Occupied:                                                      

       1A    -20.600395     2A    -15.562521     3A    -11.315138  
       4A    -11.274089     5A    -11.273852     6A    -11.262272  
       7A    -11.254342     8A    -11.253073     9A    -11.245281  
      10A    -11.243636    11A    -11.241820    12A    -11.236307  
      13A    -11.236265    14A     -1.415623    15A     -1.248786  
      16A     -1.173241    17A     -1.103780    18A     -1.037604  
      19A     -1.029135    20A     -1.009452    21A     -0.880955  
      22A     -0.869404    23A     -0.842426    24A     -0.810375  
      25A     -0.746883    26A     -0.724569    27A     -0.682461  
      28A     -0.660838    29A     -0.654701    30A     -0.633868  
      31A     -0.614597    32A     -0.605079    33A     -0.601567  
      34A     -0.595175    35A     -0.576458    36A     -0.539807  
      37A     -0.528536    38A     -0.521790    39A     -0.504490  
      40A     -0.492450    41A     -0.417721    42A     -0.389873  
      43A     -0.354737    44A     -0.349010    45A     -0.310399  

    Virtual:                                                              

      46A      0.021706    47A      0.030180    48A      0.032145  
      49A      0.038539    50A      0.042496    51A      0.046282  
      52A      0.052508    53A      0.055750    54A      0.062761  
      55A      0.080423    56A      0.082191    57A      0.084973  
      58A      0.090172    59A      0.095065    60A      0.098186  
      61A      0.101761    62A      0.104633    63A      0.106874  
      64A      0.109411    65A      0.111579    66A      0.113935  
      67A      0.117270    68A      0.120074    69A      0.125279  
      70A      0.128317    71A      0.130539    72A      0.133379  
      73A      0.134378    74A      0.142905    75A      0.146171  
      76A      0.149013    77A      0.150648    78A      0.152330  
      79A      0.156584    80A      0.160139    81A      0.168471  
      82A      0.170614    83A      0.175403    84A      0.178342  
      85A      0.179878    86A      0.188209    87A      0.203115  
      88A      0.205482    89A      0.214484    90A      0.218054  
      91A      0.218963    92A      0.223610    93A      0.231727  
      94A      0.235782    95A      0.239686    96A      0.241200  
      97A      0.246024    98A      0.248196    99A      0.253193  
     100A      0.256412   101A      0.257295   102A      0.264101  
     103A      0.267107   104A      0.270364   105A      0.274949  
     106A      0.279706   107A      0.279718   108A      0.286991  
     109A      0.290949   110A      0.295436   111A      0.300306  
     112A      0.304625   113A      0.307151   114A      0.309402  
     115A      0.314375   116A      0.318989   117A      0.323795  
     118A      0.324304   119A      0.327607   120A      0.332928  
     121A      0.338745   122A      0.342249   123A      0.353555  
     124A      0.358778   125A      0.361513   126A      0.365367  
     127A      0.369413   128A      0.373422   129A      0.381527  
     130A      0.390460   131A      0.394610   132A      0.401195  
     133A      0.403984   134A      0.407713   135A      0.410497  
     136A      0.418684   137A      0.419565   138A      0.421238  
     139A      0.426393   140A      0.435522   141A      0.438446  
     142A      0.441318   143A      0.445031   144A      0.447068  
     145A      0.451527   146A      0.452453   147A      0.458126  
     148A      0.461726   149A      0.464867   150A      0.470617  
     151A      0.475270   152A      0.477013   153A      0.478538  
     154A      0.483010   155A      0.484707   156A      0.488253  
     157A      0.497105   158A      0.502025   159A      0.502797  
     160A      0.504338   161A      0.509207   162A      0.511667  
     163A      0.514001   164A      0.515592   165A      0.519787  
     166A      0.524682   167A      0.527340   168A      0.529770  
     169A      0.535044   170A      0.539092   171A      0.544660  
     172A      0.546121   173A      0.549041   174A      0.554003  
     175A      0.558060   176A      0.561682   177A      0.573257  
     178A      0.577574   179A      0.579693   180A      0.582816  
     181A      0.590851   182A      0.596169   183A      0.605318  
     184A      0.606017   185A      0.612332   186A      0.613457  
     187A      0.628670   188A      0.632992   189A      0.637400  
     190A      0.643588   191A      0.655731   192A      0.661610  
     193A      0.664657   194A      0.676481   195A      0.685967  
     196A      0.690269   197A      0.697158   198A      0.703449  
     199A      0.705424   200A      0.709494   201A      0.714305  
     202A      0.717409   203A      0.724080   204A      0.731756  
     205A      0.732989   206A      0.739218   207A      0.745536  
     208A      0.750029   209A      0.755631   210A      0.756104  
     211A      0.759932   212A      0.772469   213A      0.773098  
     214A      0.788301   215A      0.796502   216A      0.802705  
     217A      0.807365   218A      0.811414   219A      0.814212  
     220A      0.821372   221A      0.826709   222A      0.830495  
     223A      0.832964   224A      0.838144   225A      0.839605  
     226A      0.850268   227A      0.856552   228A      0.865229  
     229A      0.871162   230A      0.876050   231A      0.878787  
     232A      0.879748   233A      0.882996   234A      0.886213  
     235A      0.892009   236A      0.898149   237A      0.903098  
     238A      0.910442   239A      0.913888   240A      0.919762  
     241A      0.925946   242A      0.928859   243A      0.931491  
     244A      0.940913   245A      0.946139   246A      0.946829  
     247A      0.953719   248A      0.962307   249A      0.963910  
     250A      0.968880   251A      0.970020   252A      0.973765  
     253A      0.981175   254A      0.981479   255A      0.987030  
     256A      0.991445   257A      0.999565   258A      1.002577  
     259A      1.009602   260A      1.012026   261A      1.018499  
     262A      1.025742   263A      1.026666   264A      1.031286  
     265A      1.040465   266A      1.043956   267A      1.046309  
     268A      1.052383   269A      1.053363   270A      1.055677  
     271A      1.059877   272A      1.067972   273A      1.070853  
     274A      1.071795   275A      1.077978   276A      1.080607  
     277A      1.082440   278A      1.085584   279A      1.086360  
     280A      1.098346   281A      1.107575   282A      1.110855  
     283A      1.113027   284A      1.114045   285A      1.121935  
     286A      1.131845   287A      1.140560   288A      1.147185  
     289A      1.148156   290A      1.152231   291A      1.153097  
     292A      1.163448   293A      1.164067   294A      1.166474  
     295A      1.172585   296A      1.177220   297A      1.178622  
     298A      1.182764   299A      1.196330   300A      1.201863  
     301A      1.204756   302A      1.211712   303A      1.215815  
     304A      1.220165   305A      1.224577   306A      1.226877  
     307A      1.236482   308A      1.241385   309A      1.251758  
     310A      1.260626   311A      1.261292   312A      1.262205  
     313A      1.267580   314A      1.279520   315A      1.282295  
     316A      1.288390   317A      1.294822   318A      1.297043  
     319A      1.301510   320A      1.315722   321A      1.320950  
     322A      1.330146   323A      1.333303   324A      1.341513  
     325A      1.353930   326A      1.357195   327A      1.361294  
     328A      1.370821   329A      1.379567   330A      1.382149  
     331A      1.394686   332A      1.396941   333A      1.406218  
     334A      1.408028   335A      1.424276   336A      1.429491  
     337A      1.441895   338A      1.444303   339A      1.454693  
     340A      1.463307   341A      1.465973   342A      1.483095  
     343A      1.489853   344A      1.496275   345A      1.500344  
     346A      1.503918   347A      1.512928   348A      1.515201  
     349A      1.527899   350A      1.529211   351A      1.536400  
     352A      1.551126   353A      1.562583   354A      1.573264  
     355A      1.577484   356A      1.585019   357A      1.594904  
     358A      1.597859   359A      1.604009   360A      1.612601  
     361A      1.632412   362A      1.634093   363A      1.648434  
     364A      1.652845   365A      1.656295   366A      1.668345  
     367A      1.671864   368A      1.672499   369A      1.686013  
     370A      1.696435   371A      1.701666   372A      1.707829  
     373A      1.715012   374A      1.727361   375A      1.731885  
     376A      1.734207   377A      1.738226   378A      1.743220  
     379A      1.746069   380A      1.758061   381A      1.763453  
     382A      1.774004   383A      1.789055   384A      1.794310  
     385A      1.805862   386A      1.813355   387A      1.819686  
     388A      1.823098   389A      1.833365   390A      1.841216  
     391A      1.850479   392A      1.854877   393A      1.860821  
     394A      1.863383   395A      1.875927   396A      1.890792  
     397A      1.896072   398A      1.910878   399A      1.915943  
     400A      1.925920   401A      1.933694   402A      1.938121  
     403A      1.942817   404A      1.943388   405A      1.949624  
     406A      1.955482   407A      1.967773   408A      1.977928  
     409A      1.984649   410A      1.997377   411A      1.999601  
     412A      2.006548   413A      2.014870   414A      2.023163  
     415A      2.033526   416A      2.038982   417A      2.044385  
     418A      2.053967   419A      2.054525   420A      2.058432  
     421A      2.078050   422A      2.079534   423A      2.097283  
     424A      2.100010   425A      2.105408   426A      2.116860  
     427A      2.121188   428A      2.130126   429A      2.132833  
     430A      2.143486   431A      2.152384   432A      2.160863  
     433A      2.163684   434A      2.171298   435A      2.182126  
     436A      2.203461   437A      2.207722   438A      2.216217  
     439A      2.220492   440A      2.224358   441A      2.240547  
     442A      2.248402   443A      2.262074   444A      2.271152  
     445A      2.284655   446A      2.288003   447A      2.294417  
     448A      2.303566   449A      2.312752   450A      2.323622  
     451A      2.335077   452A      2.340040   453A      2.358219  
     454A      2.364222   455A      2.366390   456A      2.385161  
     457A      2.390007   458A      2.399248   459A      2.407083  
     460A      2.415910   461A      2.429200   462A      2.433065  
     463A      2.445468   464A      2.460421   465A      2.476321  
     466A      2.481925   467A      2.497030   468A      2.512243  
     469A      2.524036   470A      2.532304   471A      2.535905  
     472A      2.552092   473A      2.569089   474A      2.573586  
     475A      2.583889   476A      2.592430   477A      2.595439  
     478A      2.616625   479A      2.624900   480A      2.627916  
     481A      2.639380   482A      2.654594   483A      2.700104  
     484A      2.707364   485A      2.716474   486A      2.743204  
     487A      2.760932   488A      2.766293   489A      2.777694  
     490A      2.800695   491A      2.808620   492A      2.822763  
     493A      2.837639   494A      2.847795   495A      2.854754  
     496A      2.870749   497A      2.878968   498A      2.898564  
     499A      2.935541   500A      2.939610   501A      2.964874  
     502A      2.995788   503A      3.006524   504A      3.051832  
     505A      3.061330   506A      3.090338   507A      3.099253  
     508A      3.118222   509A      3.141834   510A      3.182601  
     511A      3.204607   512A      3.209621   513A      3.218475  
     514A      3.231020   515A      3.240921   516A      3.249088  
     517A      3.271865   518A      3.282976   519A      3.296723  
     520A      3.305919   521A      3.313847   522A      3.333334  
     523A      3.344126   524A      3.365184   525A      3.375188  
     526A      3.380025   527A      3.396551   528A      3.402400  
     529A      3.405943   530A      3.412458   531A      3.429305  
     532A      3.433356   533A      3.444660   534A      3.455127  
     535A      3.464261   536A      3.474389   537A      3.482103  
     538A      3.487537   539A      3.492405   540A      3.503416  
     541A      3.508769   542A      3.526664   543A      3.538620  
     544A      3.539437   545A      3.550710   546A      3.559791  
     547A      3.563701   548A      3.570590   549A      3.574670  
     550A      3.586131   551A      3.592276   552A      3.598146  
     553A      3.599964   554A      3.624094   555A      3.628343  
     556A      3.640725   557A      3.654183   558A      3.672044  
     559A      3.677687   560A      3.683248   561A      3.698582  
     562A      3.714267   563A      3.714877   564A      3.729116  
     565A      3.734865   566A      3.749948   567A      3.759621  
     568A      3.761559   569A      3.777168   570A      3.784869  
     571A      3.790500   572A      3.798770   573A      3.817160  
     574A      3.819553   575A      3.837354   576A      3.840090  
     577A      3.851757   578A      3.855591   579A      3.858684  
     580A      3.872801   581A      3.884922   582A      3.893843  
     583A      3.900881   584A      3.913470   585A      3.923342  
     586A      3.934452   587A      3.938930   588A      3.944754  
     589A      3.952460   590A      3.960481   591A      3.966726  
     592A      3.977107   593A      3.981800   594A      3.995975  
     595A      4.002456   596A      4.015210   597A      4.024809  
     598A      4.031974   599A      4.035406   600A      4.041230  
     601A      4.047804   602A      4.057723   603A      4.068572  
     604A      4.093521   605A      4.098530   606A      4.107516  
     607A      4.117986   608A      4.126525   609A      4.135416  
     610A      4.142644   611A      4.144975   612A      4.149783  
     613A      4.156314   614A      4.164208   615A      4.171705  
     616A      4.182558   617A      4.202686   618A      4.212248  
     619A      4.215901   620A      4.225882   621A      4.231321  
     622A      4.243516   623A      4.252734   624A      4.271813  
     625A      4.287485   626A      4.304988   627A      4.312676  
     628A      4.315934   629A      4.319235   630A      4.328455  
     631A      4.341904   632A      4.348498   633A      4.352154  
     634A      4.353512   635A      4.370770   636A      4.374138  
     637A      4.380265   638A      4.391472   639A      4.401365  
     640A      4.405980   641A      4.424899   642A      4.429393  
     643A      4.432599   644A      4.443186   645A      4.450727  
     646A      4.461496   647A      4.471920   648A      4.476662  
     649A      4.495205   650A      4.502944   651A      4.511144  
     652A      4.515938   653A      4.524400   654A      4.532914  
     655A      4.536240   656A      4.556037   657A      4.573006  
     658A      4.589422   659A      4.594842   660A      4.617583  
     661A      4.626806   662A      4.628281   663A      4.675987  
     664A      4.677143   665A      4.688944   666A      4.692778  
     667A      4.701523   668A      4.717732   669A      4.741813  
     670A      4.755732   671A      4.765252   672A      4.770308  
     673A      4.796626   674A      4.805216   675A      4.825120  
     676A      4.855234   677A      4.868319   678A      4.878068  
     679A      4.889551   680A      4.908661   681A      4.924054  
     682A      4.943750   683A      4.953165   684A      4.958023  
     685A      4.968211   686A      4.978749   687A      4.980554  
     688A      4.994034   689A      5.006962   690A      5.032984  
     691A      5.035859   692A      5.049785   693A      5.056115  
     694A      5.060381   695A      5.072175   696A      5.091807  
     697A      5.099122   698A      5.105277   699A      5.110212  
     700A      5.136426   701A      5.142748   702A      5.156150  
     703A      5.164012   704A      5.175167   705A      5.177273  
     706A      5.184138   707A      5.195412   708A      5.213918  
     709A      5.231854   710A      5.244969   711A      5.261696  
     712A      5.282348   713A      5.289015   714A      5.306236  
     715A      5.322719   716A      5.324100   717A      5.338855  
     718A      5.346162   719A      5.359735   720A      5.375011  
     721A      5.412398   722A      5.426016   723A      5.438120  
     724A      5.450062   725A      5.458323   726A      5.466008  
     727A      5.479271   728A      5.483019   729A      5.511482  
     730A      5.532114   731A      5.554180   732A      5.567546  
     733A      5.572683   734A      5.644867   735A      5.661518  
     736A      5.677451   737A      5.703263   738A      5.706762  
     739A      5.748378   740A      5.759625   741A      5.799585  
     742A      5.807477   743A      5.825637   744A      5.853790  
     745A      5.867799   746A      5.878588   747A      5.912343  
     748A      5.932993   749A      5.999344   750A      6.054572  
     751A      6.084353   752A      6.117643   753A      6.140883  
     754A      6.199570   755A      6.218461   756A      6.245063  
     757A      6.293476   758A      6.325732   759A      6.346742  
     760A      6.380905   761A      6.409463   762A      6.445868  
     763A      6.481410   764A      6.518027   765A      6.520405  
     766A      6.587398   767A      6.600515   768A      6.705673  
     769A      6.710113   770A      6.727086   771A      6.755368  
     772A      6.872653   773A      6.885307   774A      6.894192  
     775A      6.911456   776A      6.936424   777A      6.993903  
     778A      7.002839   779A      7.048947   780A      7.091983  
     781A      7.103213   782A      7.222204   783A      7.260620  
     784A      7.421531   785A      7.423219   786A      7.439130  
     787A      7.689695   788A      7.709553   789A      7.757412  
     790A      8.011215   791A      8.389647   792A      8.640049  
     793A     15.605581   794A     16.328177   795A     16.587160  
     796A     16.670437   797A     16.764282   798A     18.412606  
     799A     18.733518   800A     19.230474   801A     19.550863  
     802A     19.972756   803A     20.235595   804A     20.309350  
     805A     21.916382  

    Final Occupation by Irrep:
              A 
    DOCC [    45 ]

  Energy converged.

  @DF-RHF Final Energy:  -551.28695230782489

   => Energetics <=

    Nuclear Repulsion Energy =            698.0663501682782908
    One-Electron Energy =               -2132.8570435479396110
    Two-Electron Energy =                 883.5037410718363162
    DFT Exchange-Correlation Energy =       0.0000000000000000
    Empirical Dispersion Energy =           0.0000000000000000
    PCM Polarization Energy =               0.0000000000000000
    EFP Energy =                            0.0000000000000000
    Total Energy =                       -551.2869523078248903



Properties will be evaluated at   0.000000,   0.000000,   0.000000 Bohr

Properties computed using the SCF density matrix

  Nuclear Dipole Moment: (a.u.)
     X:    -0.4751      Y:     0.2229      Z:     1.2086

  Electronic Dipole Moment: (a.u.)
     X:    -0.1492      Y:     0.0875      Z:    -0.2280

  Dipole Moment: (a.u.)
     X:    -0.6243      Y:     0.3104      Z:     0.9807     Total:     1.2033

  Dipole Moment: (Debye)
     X:    -1.5869      Y:     0.7889      Z:     2.4926     Total:     3.0584


*** tstop() called on gpu-1-7.local at Sun Nov 12 12:56:22 2017
Module time:
	user time   =    1123.75 seconds =      18.73 minutes
	system time =      48.51 seconds =       0.81 minutes
	total time  =        466 seconds =       7.77 minutes
Total time:
	user time   =    1123.76 seconds =      18.73 minutes
	system time =      48.51 seconds =       0.81 minutes
	total time  =        466 seconds =       7.77 minutes

  //>>>>>>>>>>>>>>>>>>>>>>>>>>>>>>>>>>>//
  //               DFMP2               //
  //<<<<<<<<<<<<<<<<<<<<<<<<<<<<<<<<<<<//

   => Loading Basis Set <=

    Name: (AUG-CC-PVTZ AUX)
    Role: RIFIT
    Keyword: DF_BASIS_MP2
    atoms 1-11  entry C          line   147 file /cbio/jclab/home/chayas/anaconda/envs/py35/share/psi4/basis/aug-cc-pvtz-ri.gbs 
    atoms 12    entry N          line   205 file /cbio/jclab/home/chayas/anaconda/envs/py35/share/psi4/basis/aug-cc-pvtz-ri.gbs 
    atoms 13    entry O          line   263 file /cbio/jclab/home/chayas/anaconda/envs/py35/share/psi4/basis/aug-cc-pvtz-ri.gbs 
    atoms 14-22 entry H          line    29 file /cbio/jclab/home/chayas/anaconda/envs/py35/share/psi4/basis/aug-cc-pvtz-ri.gbs 

	 --------------------------------------------------------
	                          DF-MP2                         
	      2nd-Order Density-Fitted Moller-Plesset Theory     
	              RMP2 Wavefunction,   8 Threads             
	                                                         
	        Rob Parrish, Justin Turney, Andy Simmonett,      
	           Ed Hohenstein, and C. David Sherrill          
	 --------------------------------------------------------

   => Auxiliary Basis Set <=

  Basis Set: (AUG-CC-PVTZ AUX)
    Blend: AUG-CC-PVTZ-RI
    Number of shells: 490
    Number of basis function: 1792
    Number of Cartesian functions: 2263
    Spherical Harmonics?: true
    Max angular momentum: 4

	 --------------------------------------------------------
	                 NBF =   805, NAUX =  1792
	 --------------------------------------------------------
	   CLASS    FOCC     OCC    AOCC    AVIR     VIR    FVIR
	   PAIRS       0      45      45     760     760       0
	 --------------------------------------------------------


         ------------------------------------------------------------
                                     CPHF                           
                                  Rob Parrish                       
         ------------------------------------------------------------

  ==> Geometry <==

    Molecular point group: c1
    Full point group: C1

    Geometry (in Angstrom), charge = 0, multiplicity = 1:

       Center              X                  Y                   Z               Mass       
    ------------   -----------------  -----------------  -----------------  -----------------
           C         -1.253415719928     0.709710615413    -0.590515824908    12.000000000000
           C         -0.260415719928     0.093710615413     1.523484175092    12.000000000000
           C         -2.331415719928     1.282710615413     0.082484175092    12.000000000000
           C         -1.338415719928     0.666710615413     2.197484175092    12.000000000000
           C          0.681584280072    -1.294289384587    -1.673515824908    12.000000000000
           C          2.200584280072    -0.237289384587    -0.137515824908    12.000000000000
           C          1.786584280072    -1.838289384587    -2.308515824908    12.000000000000
           C          3.237584280072    -0.829289384587    -0.841515824908    12.000000000000
           C         -0.217415719928     0.114710615413     0.129484175092    12.000000000000
           C          0.901584280072    -0.479289384587    -0.568515824908    12.000000000000
           C         -2.374415719928     1.261710615413     1.476484175092    12.000000000000
           N          3.063584280072    -1.626289384587    -1.919515824908    14.003074004780
           O         -3.426415719928     1.821710615413     2.133484175092    15.994914619560
           H         -1.234415719928     0.733710615413    -1.677515824908     1.007825032070
           H          0.539584280072    -0.366289384587     2.099484175092     1.007825032070
           H         -3.135415719928     1.744710615413    -0.484515824908     1.007825032070
           H         -1.366415719928     0.647710615413     3.283484175092     1.007825032070
           H         -0.318415719928    -1.505289384587    -2.040515824908     1.007825032070
           H          2.410584280072     0.391710615413     0.720484175092     1.007825032070
           H          1.668584280072    -2.478289384587    -3.176515824908     1.007825032070
           H          4.269584280072    -0.672289384587    -0.544515824908     1.007825032070
           H         -3.313415719928     1.727710615413     3.092484175092     1.007825032070

  Nuclear repulsion =  698.066350168278291
  Reference energy  = -551.286952307824890

  ==> Basis Set <==

  Basis Set: AUG-CC-PVTZ
    Blend: AUG-CC-PVTZ
    Number of shells: 263
    Number of basis function: 805
    Number of Cartesian functions: 940
    Spherical Harmonics?: true
    Max angular momentum: 3

  ==> CGRSolver (by Rob Parrish) <==

   Number of roots    =         1
   Preconditioning    =    JACOBI
   Convergence cutoff =     1E-06
   Maximum iterations =       100

  ==> CPHFRHamiltonian (by Rob Parrish) <== 

  ==> DFJK: Density-Fitted J/K Matrices <==

    J tasked:                  Yes
    K tasked:                  Yes
    wK tasked:                  No
    OpenMP threads:              8
    Integrals threads:           8
    Memory (MB):              3576
    Algorithm:                Disk
    Integral Cache:           NONE
    Schwarz Cutoff:          1E-12
    Fitting Condition:       1E-12

   => Auxiliary Basis Set <=

  Basis Set: (AUG-CC-PVTZ AUX)
    Blend: AUG-CC-PVTZ-JKFIT
    Number of shells: 516
    Number of basis function: 1766
    Number of Cartesian functions: 2198
    Spherical Harmonics?: true
    Max angular momentum: 4

  ==> CPHF Iterations <==

  => Iterations <=

             Iter  Converged  Remaining    Residual
  CGR           1          0          1   9.008E-02
  CGR           2          0          1   3.612E-02
  CGR           3          0          1   2.483E-02
  CGR           4          0          1   1.008E-02
  CGR           5          0          1   3.987E-03
  CGR           6          0          1   1.659E-03
  CGR           7          0          1   4.602E-04
  CGR           8          0          1   1.353E-04
  CGR           9          0          1   6.201E-05
  CGR          10          0          1   2.895E-05
  CGR          11          0          1   1.266E-05
  CGR          12          0          1   4.761E-06
  CGR          13          0          1   1.442E-06
  CGR          14          1          0   4.753E-07

    CGRSolver converged.

  ==> DFCorrGrad: Density-Fitted Correlated Gradients <==

    OpenMP threads:              8
    Integrals threads:           8
    Memory (MB):              3576
    Schwarz Cutoff:          0E+00
    Fitting Condition:       1E-12

   => Auxiliary Basis Set <=

  Basis Set: (AUG-CC-PVTZ AUX)
    Blend: AUG-CC-PVTZ-JKFIT
    Number of shells: 516
    Number of basis function: 1766
    Number of Cartesian functions: 2198
    Spherical Harmonics?: true
    Max angular momentum: 4

	-----------------------------------------------------------
	 ==================> DF-MP2 Energies <==================== 
	-----------------------------------------------------------
	 Reference Energy          =    -551.2869523078248903 [Eh]
	 Singles Energy            =      -0.0000000000000001 [Eh]
	 Same-Spin Energy          =      -0.6048181993979644 [Eh]
	 Opposite-Spin Energy      =      -1.8304646880828606 [Eh]
	 Correlation Energy        =      -2.4352828874808248 [Eh]
	 Total Energy              =    -553.7222351953057569 [Eh]
	-----------------------------------------------------------
	 ================> DF-SCS-MP2 Energies <================== 
	-----------------------------------------------------------
	 SCS Same-Spin Scale       =       0.3333333333333333 [-]
	 SCS Opposite-Spin Scale   =       1.2000000000000000 [-]
	 SCS Same-Spin Energy      =      -0.2016060664659881 [Eh]
	 SCS Opposite-Spin Energy  =      -2.1965576256994326 [Eh]
	 SCS Correlation Energy    =      -2.3981636921654208 [Eh]
	 SCS Total Energy          =    -553.6851159999903302 [Eh]
	-----------------------------------------------------------


  -Total Gradient:
     Atom            X                  Y                   Z
    ------   -----------------  -----------------  -----------------
       1        0.008786454483    -0.001317184964    -0.008654560973
       2        0.006726524892    -0.006896107572    -0.004741580630
       3        0.002136078380    -0.000858887140     0.002089493818
       4       -0.006336726260     0.003028020583     0.006912579542
       5       -0.008868770886    -0.000012583125     0.003616187866
       6       -0.004718537876     0.007767519250     0.005804581523
       7       -0.013009303366     0.000267007682     0.000801354780
       8       -0.003571004100     0.008267105464     0.009189691135
       9        0.003729385592    -0.001914613393    -0.002735379220
      10        0.003338399666    -0.001315738706    -0.001807136445
      11       -0.007314258916     0.004167507196    -0.007926987964
      12        0.012896801295    -0.007100291931    -0.008346226884
      13        0.005740658197    -0.003132815670     0.000540846072
      14       -0.001664149130    -0.000085529412    -0.005792955379
      15        0.003789311025    -0.001078309451     0.004762787683
      16       -0.002902733132     0.001357530287    -0.005177686182
      17        0.001005615004    -0.000268612267     0.003693204371
      18       -0.003877539572    -0.001218895934    -0.003826699875
      19        0.002498122977     0.001199522971     0.003704863905
      20        0.000392846635    -0.001233381491    -0.002371714988
      21        0.002876388026    -0.000221195875     0.000596358366
      22       -0.001653562932     0.000599933507     0.009668979490


*** tstop() called on gpu-1-7.local at Sun Nov 12 13:27:55 2017
Module time:
	user time   =    5141.05 seconds =      85.68 minutes
	system time =     103.95 seconds =       1.73 minutes
	total time  =       2359 seconds =      39.32 minutes
Total time:
	user time   =    5141.06 seconds =      85.68 minutes
	system time =     103.95 seconds =       1.73 minutes
	total time  =       2359 seconds =      39.32 minutes

			-----------------------------------------
			 OPTKING 2.0: for geometry optimizations 
			  - R.A. King,  Bethel University        
			-----------------------------------------

	Internal coordinates to be generated automatically.
	Detected frag 1 with atoms:  1 2 3 4 5 6 7 8 9 10 11 12 13 14 15 16 17 18 19 20
	 21 22
	---Fragment 1 Bond Connectivity---
	 1 : 3 9 14
	 2 : 4 9 15
	 3 : 1 11 16
	 4 : 2 11 17
	 5 : 7 10 18
	 6 : 8 10 19
	 7 : 5 12 20
	 8 : 6 12 21
	 9 : 1 2 10
	 10 : 5 6 9
	 11 : 3 4 13
	 12 : 7 8
	 13 : 11 22
	 14 : 1
	 15 : 2
	 16 : 3
	 17 : 4
	 18 : 5
	 19 : 6
	 20 : 7
	 21 : 8
	 22 : 13

	Assuming in current code that numbering for constraints corresponds to unified fragment.
	Fixed dihedral atom list: 
	     1     9    10     5
	---Fragment 1 Geometry and Gradient---
	 C          -2.3686124413        1.3411586967       -1.1159131862
	 C          -0.4921143914        0.1770873989        2.8789678587
	 C          -4.4057372126        2.4239717709        0.1558725012
	 C          -2.5292391626        1.2599004730        4.1526432723
	 C           1.2880076258       -2.4458524736       -3.1624865881
	 C           4.1585016217       -0.4484119511       -0.2598672480
	 C           3.3761550027       -3.4738634899       -4.3624626825
	 C           6.1181476215       -1.5671298218       -1.5902344456
	 C          -0.4108561676        0.2167716477        0.2446896295
	 C           1.7037473751       -0.9057256753       -1.0743392113
	 C          -4.4869954363        2.3842875221        2.7901507305
	 N           5.7893352743       -3.0732415497       -3.6273592168
	 O          -6.4749873281        3.4425341565        4.0317007998
	 H          -2.3327076448        1.3865121239       -3.1700454927
	 H           1.0196665149       -0.6921866223        3.9674501113
	 H          -5.9250770234        3.2970252443       -0.9156022161
	 H          -2.5821514943        1.2239956765        6.2048858526
	 H          -0.6017185071       -2.8445846876       -3.8560160789
	 H           4.5553441096        0.7402257865        1.3615177740
	 H           3.1531673190       -4.6832882149       -6.0027449659
	 H           8.0683449906       -1.2704428189       -1.0289857841
	 H          -6.2614482751        3.2648999000        5.8439481612
	             0.0087864545       -0.0013171850       -0.0086545610
	             0.0067265249       -0.0068961076       -0.0047415806
	             0.0021360784       -0.0008588871        0.0020894938
	            -0.0063367263        0.0030280206        0.0069125795
	            -0.0088687709       -0.0000125831        0.0036161879
	            -0.0047185379        0.0077675193        0.0058045815
	            -0.0130093034        0.0002670077        0.0008013548
	            -0.0035710041        0.0082671055        0.0091896911
	             0.0037293856       -0.0019146134       -0.0027353792
	             0.0033383997       -0.0013157387       -0.0018071364
	            -0.0073142589        0.0041675072       -0.0079269880
	             0.0128968013       -0.0071002919       -0.0083462269
	             0.0057406582       -0.0031328157        0.0005408461
	            -0.0016641491       -0.0000855294       -0.0057929554
	             0.0037893110       -0.0010783095        0.0047627877
	            -0.0029027331        0.0013575303       -0.0051776862
	             0.0010056150       -0.0002686123        0.0036932044
	            -0.0038775396       -0.0012188959       -0.0038266999
	             0.0024981230        0.0011995230        0.0037048639
	             0.0003928466       -0.0012333815       -0.0023717150
	             0.0028763880       -0.0002211959        0.0005963584
	            -0.0016535629        0.0005999335        0.0096689795

	Previous optimization step data not found.  Starting new optimization.

	---Fragment 1 Intrafragment Coordinates---
	 - Coordinate -           - BOHR/RAD -       - ANG/DEG -
	 R(1,3)           =         2.634350	       1.394038
	 R(1,9)           =         2.635962	       1.394891
	 R(1,14)          =         2.054947	       1.087431
	 R(2,4)           =         2.635263	       1.394521
	 R(2,9)           =         2.635830	       1.394821
	 R(2,15)          =         2.055702	       1.087831
	 R(3,11)          =         2.635830	       1.394821
	 R(3,16)          =         2.053941	       1.086899
	 R(4,11)          =         2.636938	       1.395407
	 R(4,17)          =         2.053239	       1.086527
	 R(5,7)           =         2.618608	       1.385708
	 R(5,10)          =         2.627773	       1.390557
	 R(5,18)          =         2.052081	       1.085914
	 R(6,8)           =         2.619469	       1.386163
	 R(6,10)          =         2.626465	       1.389865
	 R(6,19)          =         2.049203	       1.084392
	 R(7,12)          =         2.554274	       1.351663
	 R(7,20)          =         2.050112	       1.084872
	 R(8,12)          =         2.554676	       1.351876
	 R(8,21)          =         2.050925	       1.085303
	 R(9,10)          =         2.733384	       1.446444
	 R(11,13)         =         2.571662	       1.360865
	 R(13,22)         =         1.833410	       0.970199
	 B(1,3,11)        =         2.094553	     120.009056
	 B(1,3,16)        =         2.088505	     119.662516
	 B(1,9,2)         =         2.093692	     119.959722
	 B(1,9,10)        =         2.095161	     120.043881
	 B(2,4,11)        =         2.093699	     119.960108
	 B(2,4,17)        =         2.089577	     119.723926
	 B(2,9,10)        =         2.094332	     119.996376
	 B(3,1,9)         =         2.094940	     120.031219
	 B(3,1,14)        =         2.079469	     119.144799
	 B(3,11,4)        =         2.094306	     119.994870
	 B(3,11,13)       =         2.094549	     120.008801
	 B(4,2,9)         =         2.095181	     120.045019
	 B(4,2,15)        =         2.078675	     119.099297
	 B(4,11,13)       =         2.094331	     119.996326
	 B(5,7,12)        =         2.165089	     124.050486
	 B(5,7,20)        =         2.107729	     120.763967
	 B(5,10,6)        =         2.090171	     119.757971
	 B(5,10,9)        =         2.096427	     120.116446
	 B(6,8,12)        =         2.165763	     124.089097
	 B(6,8,21)        =         2.106680	     120.703885
	 B(6,10,9)        =         2.096587	     120.125580
	 B(7,5,10)        =         2.057907	     117.909358
	 B(7,5,18)        =         2.098075	     120.210870
	 B(7,12,8)        =         2.030360	     116.331071
	 B(8,6,10)        =         2.057080	     117.861997
	 B(8,6,19)        =         2.099826	     120.311143
	 B(9,1,14)        =         2.108776	     120.823969
	 B(9,2,15)        =         2.109330	     120.855683
	 B(10,5,18)       =         2.127201	     121.879632
	 B(10,6,19)       =         2.126280	     121.826850
	 B(11,3,16)       =         2.100127	     120.328425
	 B(11,4,17)       =         2.099910	     120.315955
	 B(11,13,22)      =         1.925489	     110.322421
	 B(12,7,20)       =         2.010365	     115.185440
	 B(12,8,21)       =         2.010741	     115.206985
	 D(1,3,11,4)      =        -0.000325	      -0.018609
	 D(1,3,11,13)     =         3.140978	     179.964785
	 D(1,9,2,4)       =         0.000325	       0.018608
	 D(1,9,2,15)      =        -3.141497	    -179.994534
	 D(1,9,10,5)      =        -0.786507	     -45.063532
	 D(1,9,10,6)      =         2.354767	     134.918190
	 D(2,4,11,3)      =         0.000301	       0.017261
	 D(2,4,11,13)     =        -3.141002	    -179.966135
	 D(2,9,1,3)       =        -0.000348	      -0.019945
	 D(2,9,1,14)      =        -3.141221	    -179.978731
	 D(2,9,10,5)      =         2.356002	     134.988971
	 D(2,9,10,6)      =        -0.785910	     -45.029307
	 D(3,1,9,10)      =        -3.141025	    -179.967461
	 D(3,11,4,17)     =         3.141223	     179.978848
	 D(3,11,13,22)    =         3.140828	     179.956172
	 D(4,2,9,10)      =         3.141002	     179.966149
	 D(4,11,3,16)     =         3.141593	     180.000000
	 D(4,11,13,22)    =        -0.001055	      -0.060434
	 D(5,7,12,8)      =        -0.000458	      -0.026241
	 D(5,10,6,8)      =         0.000569	       0.032617
	 D(5,10,6,19)     =        -3.140402	    -179.931781
	 D(6,8,12,7)      =         0.000091	       0.005241
	 D(6,10,5,7)      =        -0.000898	      -0.051439
	 D(6,10,5,18)     =        -3.140118	    -179.915491
	 D(7,5,10,9)      =         3.140377	     179.930351
	 D(7,12,8,21)     =         3.140525	     179.938850
	 D(8,6,10,9)      =        -3.140706	    -179.949171
	 D(8,12,7,20)     =         3.139055	     179.854630
	 D(9,1,3,11)      =         0.000348	       0.019955
	 D(9,1,3,16)      =        -3.141571	    -179.998735
	 D(9,2,4,11)      =        -0.000301	      -0.017270
	 D(9,2,4,17)      =        -3.141228	    -179.979086
	 D(9,10,5,18)     =         0.001157	       0.066300
	 D(9,10,6,19)     =         0.001509	       0.086431
	 D(10,5,7,12)     =         0.000868	       0.049716
	 D(10,5,7,20)     =        -3.138535	    -179.824826
	 D(10,6,8,12)     =        -0.000159	      -0.009118
	 D(10,6,8,21)     =        -3.140532	    -179.939255
	 D(10,9,1,14)     =         0.001287	       0.073752
	 D(10,9,2,15)     =        -0.000820	      -0.046992
	 D(11,3,1,14)     =         3.141234	     179.979432
	 D(11,4,2,15)     =         3.141517	     179.995641
	 D(12,7,5,18)     =         3.140129	     179.916130
	 D(12,8,6,19)     =         3.140822	     179.955843
	 D(13,11,3,16)    =        -0.000286	      -0.016400
	 D(13,11,4,17)    =        -0.000079	      -0.004548
	 D(14,1,3,16)     =        -0.000685	      -0.039257
	 D(15,2,4,17)     =         0.000590	       0.033826
	 D(18,5,7,20)     =         0.000726	       0.041589
	 D(19,6,8,21)     =         0.000449	       0.025706

	Current energy   :      -553.7222351953

	Generating empirical Hessian (Schlegel '84) for each fragment.
	Adding user-defined constraint: Fragment 1; Coordinate 63:
		Value =    -0.786507; Fixed value    =    -0.785398
		Force =     0.000554; Force constant =     0.500000
	Removing off-diagonal coupling between coordinate 63 and others.
	Taking RFO optimization step.
	Going to follow RFO solution 1.
	Using RFO vector 1.

	Determining step-restricting scale parameter for RS-RFO.
	Maximum step size allowed    0.10000

	 Iter      |step|        alpha        rfo_root  
	------------------------------------------------
	    0     0.17764       1.00000           1
	    1     0.14206       5.37767           1
	    2     0.11755      15.45378           1
	    3     0.10396      26.57115           1
	    4     0.10026      30.67901           1
	    5     0.10000      30.99189           1
	------------------------------------------------
	Norm of target step-size    0.10000
	Projected energy change by RFO approximation:        -0.0044228265

	Back-transformation to cartesian coordinates...
	Could not converge backtransformation.
	Using first guess instead.

	--- Internal Coordinate Step in ANG or DEG, aJ/ANG or AJ/DEG ---
	 ---------------------------------------------------------------------------
	   Coordinate                Previous        Force       Change         New 
	   ----------                --------       ------       ------       ------
	    1 R(1,3)          =      1.394038    -0.056347    -0.006073     1.387965
	    2 R(1,9)          =      1.394891    -0.013422    -0.001235     1.393656
	    3 R(1,14)         =      1.087431    -0.047453    -0.006284     1.081147
	    4 R(2,4)          =      1.394521    -0.058609    -0.006239     1.388282
	    5 R(2,9)          =      1.394821    -0.025057    -0.002535     1.392286
	    6 R(2,15)         =      1.087831    -0.047492    -0.006287     1.081544
	    7 R(3,11)         =      1.394821    -0.081188    -0.008832     1.385990
	    8 R(3,16)         =      1.086899    -0.044697    -0.005867     1.081031
	    9 R(4,11)         =      1.395407    -0.034897    -0.003814     1.391594
	   10 R(4,17)         =      1.086527    -0.030238    -0.003996     1.082531
	   11 R(5,7)          =      1.385708     0.001520     0.000157     1.385865
	   12 R(5,10)         =      1.390557    -0.006920    -0.000220     1.390338
	   13 R(5,18)         =      1.085914    -0.042024    -0.005541     1.080374
	   14 R(6,8)          =      1.386163    -0.001019    -0.000126     1.386037
	   15 R(6,10)         =      1.389865    -0.001731     0.000410     1.390276
	   16 R(6,19)         =      1.084392    -0.033869    -0.004449     1.079943
	   17 R(7,12)         =      1.351663    -0.117611    -0.011420     1.340243
	   18 R(7,20)         =      1.084872    -0.021276    -0.002790     1.082082
	   19 R(8,12)         =      1.351876    -0.120824    -0.011730     1.340146
	   20 R(8,21)         =      1.085303    -0.023615    -0.003110     1.082193
	   21 R(9,10)         =      1.446444     0.127672     0.015751     1.462195
	   22 R(11,13)        =      1.360865    -0.005992    -0.000067     1.360798
	   23 R(13,22)        =      0.970199    -0.076675    -0.007353     0.962846
	   24 B(1,3,11)       =    120.009056    -0.000041    -0.137367   119.871689
	   25 B(1,3,16)       =    119.662516     0.000235     0.620720   120.283236
	   26 B(1,9,2)        =    119.959722    -0.000595    -1.151976   118.807746
	   27 B(1,9,10)       =    120.043881     0.000306     0.595807   120.639688
	   28 B(2,4,11)       =    119.960108     0.000104     0.196336   120.156444
	   29 B(2,4,17)       =    119.723926     0.000031     0.115256   119.839182
	   30 B(2,9,10)       =    119.996376     0.000288     0.556081   120.552457
	   31 B(3,1,9)        =    120.031219     0.000411     0.862494   120.893713
	   32 B(3,1,14)       =    119.144799    -0.000093    -0.142380   119.002419
	   33 B(3,11,4)       =    119.994870    -0.000084    -0.216745   119.778125
	   34 B(3,11,13)      =    120.008801    -0.000840    -1.622391   118.386411
	   35 B(4,2,9)        =    120.045019     0.000204     0.447155   120.492175
	   36 B(4,2,15)       =    119.099297     0.000053     0.175482   119.274779
	   37 B(4,11,13)      =    119.996326     0.000923     1.839136   121.835462
	   38 B(5,7,12)       =    124.050486    -0.000001    -0.081692   123.968794
	   39 B(5,7,20)       =    120.763967    -0.000051    -0.090685   120.673282
	   40 B(5,10,6)       =    119.757971    -0.001002    -1.849167   117.908804
	   41 B(5,10,9)       =    120.116446     0.000494     0.909694   121.026140
	   42 B(6,8,12)       =    124.089097    -0.000013    -0.112762   123.976335
	   43 B(6,8,21)       =    120.703885    -0.000037    -0.055690   120.648194
	   44 B(6,10,9)       =    120.125580     0.000508     0.939455   121.065035
	   45 B(7,5,10)       =    117.909358     0.000433     0.980532   118.889889
	   46 B(7,5,18)       =    120.210870    -0.000063    -0.094362   120.116509
	   47 B(7,12,8)       =    116.331071     0.000131     0.046644   116.377715
	   48 B(8,6,10)       =    117.861997     0.000452     1.016416   118.878413
	   49 B(8,6,19)       =    120.311143    -0.000086    -0.150558   120.160586
	   50 B(9,1,14)       =    120.823969    -0.000318    -0.720394   120.103575
	   51 B(9,2,15)       =    120.855683    -0.000257    -0.623203   120.232480
	   52 B(10,5,18)      =    121.879632    -0.000371    -0.886089   120.993542
	   53 B(10,6,19)      =    121.826850    -0.000366    -0.866113   120.960737
	   54 B(11,3,16)      =    120.328425    -0.000194    -0.483402   119.845023
	   55 B(11,4,17)      =    120.315955    -0.000135    -0.311582   120.004372
	   56 B(11,13,22)     =    110.322421    -0.000440    -1.126065   109.196356
	   57 B(12,7,20)      =    115.185440     0.000052     0.172455   115.357895
	   58 B(12,8,21)      =    115.206985     0.000050     0.168415   115.375400
	   59 D(1,3,11,4)     =     -0.018609     0.000002     0.044858     0.026250
	   60 D(1,3,11,13)    =    179.964785     0.000002     0.047047   180.011832
	   61 D(1,9,2,4)      =      0.018608     0.000003     0.083852     0.102460
	   62 D(1,9,2,15)     =   -179.994534    -0.000009    -0.178724  -180.173258
	   63 D(1,9,10,5)     =    -45.063532     0.000012     0.116787   -44.946746
	   64 D(1,9,10,6)     =    134.918190     0.000013     0.188565   135.106755
	   65 D(2,4,11,3)     =      0.017261     0.000002     0.038844     0.056106
	   66 D(2,4,11,13)    =   -179.966135     0.000002     0.037171  -179.928964
	   67 D(2,9,1,3)      =     -0.019945     0.000001     0.000280    -0.019665
	   68 D(2,9,1,14)     =   -179.978731    -0.000010    -0.239711  -180.218443
	   69 D(2,9,10,5)     =    134.988971     0.000013     0.185407   135.174378
	   70 D(2,9,10,6)     =    -45.029307     0.000013     0.257186   -44.772121
	   71 D(3,1,9,10)     =   -179.967461     0.000002     0.066835  -179.900626
	   72 D(3,11,4,17)    =    179.978848     0.000005     0.092299   180.071147
	   73 D(3,11,13,22)   =    179.956172    -0.000000    -0.002114   179.954058
	   74 D(4,2,9,10)     =    179.966149     0.000002     0.017378   179.983527
	   75 D(4,11,3,16)    =    180.000000     0.000005     0.108637   180.108637
	   76 D(4,11,13,22)   =     -0.060434     0.000000    -0.000237    -0.060672
	   77 D(5,7,12,8)     =     -0.026241    -0.000000     0.004428    -0.021813
	   78 D(5,10,6,8)     =      0.032617    -0.000000     0.022962     0.055579
	   79 D(5,10,6,19)    =   -179.931781    -0.000011    -0.199430  -180.131211
	   80 D(6,8,12,7)     =      0.005241    -0.000000    -0.014976    -0.009735
	   81 D(6,10,5,7)     =     -0.051439    -0.000000    -0.032717    -0.084156
	   82 D(6,10,5,18)    =   -179.915491    -0.000011    -0.257255  -180.172745
	   83 D(7,5,10,9)     =    179.930351     0.000000     0.037352   179.967703
	   84 D(7,12,8,21)    =    179.938850     0.000007     0.148173   180.087023
	   85 D(8,6,10,9)     =   -179.949171    -0.000001    -0.047130  -179.996301
	   86 D(8,12,7,20)    =    179.854630     0.000008     0.185607   180.040236
	   87 D(9,1,3,11)     =      0.019955    -0.000003    -0.064408    -0.044454
	   88 D(9,1,3,16)     =   -179.998735    -0.000006    -0.128472  -180.127207
	   89 D(9,2,4,11)     =     -0.017270    -0.000004    -0.104248    -0.121518
	   90 D(9,2,4,17)     =   -179.979086    -0.000007    -0.157449  -180.136535
	   91 D(9,10,5,18)    =      0.066300    -0.000010    -0.187185    -0.120886
	   92 D(9,10,6,19)    =      0.086431    -0.000011    -0.269522    -0.183091
	   93 D(10,5,7,12)    =      0.049716     0.000000     0.020454     0.070169
	   94 D(10,5,7,20)    =   -179.824826    -0.000008    -0.170197  -179.995023
	   95 D(10,6,8,12)    =     -0.009118     0.000001     0.000799    -0.008319
	   96 D(10,6,8,21)    =   -179.939255    -0.000008    -0.170680  -180.109935
	   97 D(10,9,1,14)    =      0.073752    -0.000010    -0.173156    -0.099403
	   98 D(10,9,2,15)    =     -0.046992    -0.000010    -0.245198    -0.292190
	   99 D(11,3,1,14)    =    179.979432     0.000008     0.172737   180.152169
	  100 D(11,4,2,15)    =    179.995641     0.000008     0.155936   180.151578
	  101 D(12,7,5,18)    =    179.916130     0.000011     0.241831   180.157961
	  102 D(12,8,6,19)    =    179.955843     0.000011     0.221094   180.176937
	  103 D(13,11,3,16)   =     -0.016400     0.000005     0.110619     0.094220
	  104 D(13,11,4,17)   =     -0.004548     0.000004     0.090625     0.086077
	  105 D(14,1,3,16)    =     -0.039257     0.000005     0.108673     0.069416
	  106 D(15,2,4,17)    =      0.033826     0.000005     0.102735     0.136561
	  107 D(18,5,7,20)    =      0.041589     0.000002     0.051181     0.092769
	  108 D(19,6,8,21)    =      0.025706     0.000002     0.049615     0.075321
	 ---------------------------------------------------------------------------
	Successfully symmetrized geometry.
	 Forces used to impose fixed constraints are not included.
	  Forces zeroed: 63 

  ==> Convergence Check <==

  Measures of convergence in internal coordinates in au.
  Criteria marked as inactive (o), active & met (*), and active & unmet ( ).
  --------------------------------------------------------------------------------------------- ~
   Step     Total Energy     Delta E     MAX Force     RMS Force      MAX Disp      RMS Disp    ~
  --------------------------------------------------------------------------------------------- ~
    Convergence Criteria    1.00e-06 *    3.00e-04 *             o    1.20e-03 *             o  ~
  --------------------------------------------------------------------------------------------- ~
      1    -553.72223520   -5.54e+02      1.55e-02      4.31e-03 o    3.23e-02      9.62e-03 o  ~
  ---------------------------------------------------------------------------------------------

	Writing optimization data to binary file.
	Structure for next step:
	Cartesian Geometry (in Angstrom)
	    C    -1.2678472164   0.7142168610  -0.5630019987
	    C    -0.2732202890   0.1025728761   1.5316025694
	    C    -2.3418098150   1.2857340089   0.1051440688
	    C    -1.3463297150   0.6715156308   2.2039624029
	    C     0.7060792909  -1.2965142151  -1.6776221165
	    C     2.2144741213  -0.2545473901  -0.1562891521
	    C     1.8088677167  -1.8402332161  -2.3170348816
	    C     3.2511642480  -0.8445410131  -0.8621789587
	    C    -0.2233085277   0.1170546754   0.1402864340
	    C     0.9064708207  -0.4814713540  -0.5692054555
	    C    -2.3831093963   1.2651482927   1.4903652920
	    N     3.0757236245  -1.6315402741  -1.9326197054
	    O    -3.4502804314   1.8340205024   2.1143055897
	    H    -1.2487762956   0.7403987737  -1.6436637893
	    H     0.5235894269  -0.3571643807   2.1003496250
	    H    -3.1457701082   1.7481545108  -0.4502334398
	    H    -1.3754057485   0.6523533222   3.2859328416
	    H    -0.2895339126  -1.5083759514  -2.0396671844
	    H     2.4268385065   0.3721008912   0.6972269704
	    H     1.6862691210  -2.4783955733  -3.1822636096
	    H     4.2801230293  -0.6858132058  -0.5668981593
	    H    -3.3443542888   1.7449597676   3.0671545090
			--------------------------
			 OPTKING Finished Execution 
			--------------------------

    Structure for next step:
    Molecular point group: c1
    Full point group: C1

    Geometry (in Angstrom), charge = 0, multiplicity = 1:

    C           -1.267899758327     0.714300757273    -0.562684689906
    C           -0.273272830863     0.102656772402     1.531919878182
    C           -2.341862356855     1.285817905243     0.105461377501
    C           -1.346382256883     0.671599527109     2.204279711602
    C            0.706026748975    -1.296430318806    -1.677304807762
    C            2.214421579436    -0.254463493775    -0.155971843320
    C            1.808815174825    -1.840149319805    -2.316717572861
    C            3.251111706128    -0.844457116832    -0.861861649921
    C           -0.223361069600     0.117138571731     0.140603742793
    C            0.906418278815    -0.481387457742    -0.568888146751
    C           -2.383161938175     1.265232188960     1.490682600781
    N            3.075671082602    -1.631456377747    -1.932302396666
    O           -3.450332973323     1.834104398678     2.114622898463
    H           -1.248828837457     0.740482669982    -1.643346480523
    H            0.523536884961    -0.357080484371     2.100666933724
    H           -3.145822650110     1.748238407117    -0.449916131073
    H           -1.375458290362     0.652437218540     3.286250150344
    H           -0.289586454472    -1.508292055144    -2.039349875627
    H            2.426785964601     0.372184787543     0.697544279177
    H            1.686216579149    -2.478311677025    -3.181946300892
    H            4.280070487450    -0.685729309507    -0.566580850516
    H           -3.344406830649     1.745043663928     3.067471817776

gradient() will perform analytic gradient computation.

*** tstart() called on gpu-1-7.local
*** at Sun Nov 12 13:27:57 2017

    SCF Algorithm Type (re)set to DF.

*** tstart() called on gpu-1-7.local
*** at Sun Nov 12 13:27:57 2017

   => Loading Basis Set <=

    Name: AUG-CC-PVTZ
    Role: ORBITAL
    Keyword: BASIS
    atoms 1-11  entry C          line   221 file /cbio/jclab/home/chayas/anaconda/envs/py35/share/psi4/basis/aug-cc-pvtz.gbs 
    atoms 12    entry N          line   267 file /cbio/jclab/home/chayas/anaconda/envs/py35/share/psi4/basis/aug-cc-pvtz.gbs 
    atoms 13    entry O          line   313 file /cbio/jclab/home/chayas/anaconda/envs/py35/share/psi4/basis/aug-cc-pvtz.gbs 
    atoms 14-22 entry H          line    34 file /cbio/jclab/home/chayas/anaconda/envs/py35/share/psi4/basis/aug-cc-pvtz.gbs 


         ---------------------------------------------------------
                                   SCF
            by Justin Turney, Rob Parrish, and Andy Simmonett
                              RHF Reference
                        8 Threads,   4768 MiB Core
         ---------------------------------------------------------

  ==> Geometry <==

    Molecular point group: c1
    Full point group: C1

    Geometry (in Angstrom), charge = 0, multiplicity = 1:

       Center              X                  Y                   Z               Mass       
    ------------   -----------------  -----------------  -----------------  -----------------
           C         -1.267899758327     0.714300757273    -0.562684689906    12.000000000000
           C         -0.273272830863     0.102656772402     1.531919878182    12.000000000000
           C         -2.341862356855     1.285817905243     0.105461377501    12.000000000000
           C         -1.346382256883     0.671599527109     2.204279711602    12.000000000000
           C          0.706026748975    -1.296430318806    -1.677304807762    12.000000000000
           C          2.214421579436    -0.254463493775    -0.155971843320    12.000000000000
           C          1.808815174825    -1.840149319805    -2.316717572861    12.000000000000
           C          3.251111706128    -0.844457116832    -0.861861649921    12.000000000000
           C         -0.223361069600     0.117138571731     0.140603742793    12.000000000000
           C          0.906418278815    -0.481387457742    -0.568888146751    12.000000000000
           C         -2.383161938175     1.265232188960     1.490682600781    12.000000000000
           N          3.075671082602    -1.631456377747    -1.932302396666    14.003074004780
           O         -3.450332973323     1.834104398678     2.114622898463    15.994914619560
           H         -1.248828837457     0.740482669982    -1.643346480523     1.007825032070
           H          0.523536884961    -0.357080484371     2.100666933724     1.007825032070
           H         -3.145822650110     1.748238407117    -0.449916131073     1.007825032070
           H         -1.375458290362     0.652437218540     3.286250150344     1.007825032070
           H         -0.289586454472    -1.508292055144    -2.039349875627     1.007825032070
           H          2.426785964601     0.372184787543     0.697544279177     1.007825032070
           H          1.686216579149    -2.478311677025    -3.181946300892     1.007825032070
           H          4.280070487450    -0.685729309507    -0.566580850516     1.007825032070
           H         -3.344406830649     1.745043663928     3.067471817776     1.007825032070

  Running in c1 symmetry.

  Rotational constants: A =      0.09841  B =      0.01325  C =      0.01209 [cm^-1]
  Rotational constants: A =   2950.30176  B =    397.08907  C =    362.50901 [MHz]
  Nuclear repulsion =  697.819413223961874

  Charge       = 0
  Multiplicity = 1
  Electrons    = 90
  Nalpha       = 45
  Nbeta        = 45

  ==> Algorithm <==

  SCF Algorithm Type is DF.
  DIIS enabled.
  MOM disabled.
  Fractional occupation disabled.
  Guess Type is READ.
  Energy threshold   = 1.00e-10
  Density threshold  = 1.00e-10
  Integral threshold = 0.00e+00

  ==> Primary Basis <==

  Basis Set: AUG-CC-PVTZ
    Blend: AUG-CC-PVTZ
    Number of shells: 263
    Number of basis function: 805
    Number of Cartesian functions: 940
    Spherical Harmonics?: true
    Max angular momentum: 3

   => Loading Basis Set <=

    Name: (AUG-CC-PVTZ AUX)
    Role: JKFIT
    Keyword: DF_BASIS_SCF
    atoms 1-11  entry C          line   161 file /cbio/jclab/home/chayas/anaconda/envs/py35/share/psi4/basis/aug-cc-pvtz-jkfit.gbs 
    atoms 12    entry N          line   223 file /cbio/jclab/home/chayas/anaconda/envs/py35/share/psi4/basis/aug-cc-pvtz-jkfit.gbs 
    atoms 13    entry O          line   285 file /cbio/jclab/home/chayas/anaconda/envs/py35/share/psi4/basis/aug-cc-pvtz-jkfit.gbs 
    atoms 14-22 entry H          line    69 file /cbio/jclab/home/chayas/anaconda/envs/py35/share/psi4/basis/aug-cc-pvtz-jkfit.gbs 

  Reading orbitals from file 180, no projection.

  ==> Pre-Iterations <==

   -------------------------------------------------------
    Irrep   Nso     Nmo     Nalpha   Nbeta   Ndocc  Nsocc
   -------------------------------------------------------
     A        805     805       0       0       0       0
   -------------------------------------------------------
    Total     805     805      45      45      45       0
   -------------------------------------------------------

  ==> Integral Setup <==

  ==> DFJK: Density-Fitted J/K Matrices <==

    J tasked:                  Yes
    K tasked:                  Yes
    wK tasked:                  No
    OpenMP threads:              8
    Integrals threads:           8
    Memory (MB):              3576
    Algorithm:                Disk
    Integral Cache:           NONE
    Schwarz Cutoff:          1E-12
    Fitting Condition:       1E-12

   => Auxiliary Basis Set <=

  Basis Set: (AUG-CC-PVTZ AUX)
    Blend: AUG-CC-PVTZ-JKFIT
    Number of shells: 516
    Number of basis function: 1766
    Number of Cartesian functions: 2198
    Spherical Harmonics?: true
    Max angular momentum: 4

  Minimum eigenvalue in the overlap matrix is 5.6018352657E-07.
  Using Symmetric Orthogonalization.

  SCF Guess: Orbitals guess was supplied from a previous computation.

  ==> Iterations <==

                           Total Energy        Delta E     RMS |[F,P]|

   @DF-RHF iter   0:  -551.41455124354979   -5.51415e+02   4.47372e-04 
   @DF-RHF iter   1:  -551.29111649652793    1.23435e-01   1.34857e-04 
   @DF-RHF iter   2:  -551.29178933776745   -6.72841e-04   1.08151e-04 DIIS
   @DF-RHF iter   3:  -551.29235394197337   -5.64604e-04   1.35487e-05 DIIS
   @DF-RHF iter   4:  -551.29236480987333   -1.08679e-05   4.13067e-06 DIIS
   @DF-RHF iter   5:  -551.29236674732215   -1.93745e-06   1.42491e-06 DIIS
   @DF-RHF iter   6:  -551.29236703987124   -2.92549e-07   8.69083e-07 DIIS
   @DF-RHF iter   7:  -551.29236715470688   -1.14836e-07   3.28325e-07 DIIS
   @DF-RHF iter   8:  -551.29236719249820   -3.77913e-08   1.08550e-07 DIIS
   @DF-RHF iter   9:  -551.29236719706853   -4.57032e-09   5.05141e-08 DIIS
   @DF-RHF iter  10:  -551.29236719741857   -3.50042e-10   1.56304e-08 DIIS
   @DF-RHF iter  11:  -551.29236719746450   -4.59295e-11   5.32947e-09 DIIS
   @DF-RHF iter  12:  -551.29236719746063    3.86535e-12   1.60499e-09 DIIS
   @DF-RHF iter  13:  -551.29236719746484   -4.20641e-12   1.21398e-09 DIIS
   @DF-RHF iter  14:  -551.29236719744654    1.83036e-11   5.06917e-10 DIIS
   @DF-RHF iter  15:  -551.29236719746143   -1.48930e-11   2.06894e-10 DIIS
   @DF-RHF iter  16:  -551.29236719743881    2.26237e-11   5.73499e-11 DIIS

  ==> Post-Iterations <==

    Orbital Energies (a.u.)
    -----------------------

    Doubly Occupied:                                                      

       1A    -20.600912     2A    -15.560971     3A    -11.312993  
       4A    -11.272072     5A    -11.271938     6A    -11.263873  
       7A    -11.252922     8A    -11.250998     9A    -11.245151  
      10A    -11.244003    11A    -11.238103    12A    -11.235675  
      13A    -11.235522    14A     -1.418469    15A     -1.255082  
      16A     -1.174488    17A     -1.104937    18A     -1.037992  
      19A     -1.030271    20A     -1.012230    21A     -0.880950  
      22A     -0.870198    23A     -0.845477    24A     -0.811891  
      25A     -0.748381    26A     -0.725448    27A     -0.683760  
      28A     -0.660703    29A     -0.657166    30A     -0.635884  
      31A     -0.615645    32A     -0.604618    33A     -0.602986  
      34A     -0.594579    35A     -0.580070    36A     -0.542376  
      37A     -0.530395    38A     -0.522567    39A     -0.504680  
      40A     -0.493988    41A     -0.417614    42A     -0.391872  
      43A     -0.355531    44A     -0.348085    45A     -0.312601  

    Virtual:                                                              

      46A      0.021782    47A      0.030372    48A      0.032170  
      49A      0.038630    50A      0.042428    51A      0.046388  
      52A      0.052776    53A      0.055801    54A      0.062597  
      55A      0.080641    56A      0.082531    57A      0.085430  
      58A      0.090505    59A      0.094917    60A      0.098540  
      61A      0.101685    62A      0.104873    63A      0.107154  
      64A      0.109436    65A      0.111719    66A      0.114100  
      67A      0.117568    68A      0.120117    69A      0.125200  
      70A      0.128515    71A      0.130469    72A      0.133481  
      73A      0.134436    74A      0.143165    75A      0.146320  
      76A      0.148909    77A      0.151076    78A      0.152157  
      79A      0.156441    80A      0.159592    81A      0.168272  
      82A      0.170635    83A      0.175298    84A      0.178635  
      85A      0.179667    86A      0.188288    87A      0.203270  
      88A      0.205524    89A      0.214638    90A      0.217927  
      91A      0.218964    92A      0.223543    93A      0.231660  
      94A      0.236310    95A      0.239654    96A      0.240655  
      97A      0.245698    98A      0.248403    99A      0.253403  
     100A      0.256458   101A      0.257406   102A      0.263800  
     103A      0.267169   104A      0.270875   105A      0.274787  
     106A      0.279594   107A      0.279877   108A      0.286988  
     109A      0.292345   110A      0.296382   111A      0.300392  
     112A      0.305843   113A      0.307830   114A      0.309941  
     115A      0.314596   116A      0.319470   117A      0.323730  
     118A      0.324557   119A      0.327731   120A      0.332959  
     121A      0.338890   122A      0.342416   123A      0.354066  
     124A      0.358203   125A      0.362324   126A      0.364728  
     127A      0.369789   128A      0.374319   129A      0.381967  
     130A      0.389927   131A      0.394766   132A      0.401444  
     133A      0.403604   134A      0.407726   135A      0.410085  
     136A      0.419303   137A      0.420544   138A      0.421324  
     139A      0.426861   140A      0.435472   141A      0.438867  
     142A      0.443157   143A      0.444579   144A      0.447529  
     145A      0.452133   146A      0.452676   147A      0.457614  
     148A      0.461041   149A      0.464409   150A      0.471989  
     151A      0.475835   152A      0.477152   153A      0.478895  
     154A      0.483736   155A      0.485682   156A      0.490684  
     157A      0.497106   158A      0.502247   159A      0.503003  
     160A      0.505055   161A      0.509919   162A      0.512180  
     163A      0.514283   164A      0.515851   165A      0.519832  
     166A      0.525525   167A      0.528675   168A      0.529377  
     169A      0.535445   170A      0.539619   171A      0.544084  
     172A      0.545871   173A      0.549647   174A      0.553724  
     175A      0.557329   176A      0.560638   177A      0.572744  
     178A      0.576507   179A      0.579293   180A      0.583878  
     181A      0.589621   182A      0.593955   183A      0.605516  
     184A      0.607888   185A      0.610810   186A      0.613589  
     187A      0.628898   188A      0.633263   189A      0.636083  
     190A      0.642887   191A      0.655898   192A      0.663791  
     193A      0.665942   194A      0.678152   195A      0.685827  
     196A      0.690790   197A      0.697546   198A      0.704101  
     199A      0.706675   200A      0.709507   201A      0.715354  
     202A      0.717643   203A      0.724858   204A      0.732067  
     205A      0.733557   206A      0.740654   207A      0.745684  
     208A      0.749286   209A      0.755253   210A      0.757127  
     211A      0.761457   212A      0.773133   213A      0.773680  
     214A      0.788459   215A      0.797766   216A      0.803977  
     217A      0.806745   218A      0.809962   219A      0.815061  
     220A      0.822236   221A      0.827794   222A      0.830329  
     223A      0.833030   224A      0.838069   225A      0.840647  
     226A      0.849482   227A      0.856475   228A      0.864849  
     229A      0.871629   230A      0.876616   231A      0.878858  
     232A      0.880025   233A      0.884146   234A      0.886570  
     235A      0.891922   236A      0.901194   237A      0.904567  
     238A      0.910351   239A      0.915120   240A      0.920401  
     241A      0.927813   242A      0.928837   243A      0.932756  
     244A      0.941099   245A      0.946014   246A      0.947493  
     247A      0.953200   248A      0.962348   249A      0.963108  
     250A      0.968944   251A      0.969186   252A      0.974105  
     253A      0.979923   254A      0.981735   255A      0.986612  
     256A      0.991566   257A      0.998243   258A      1.001359  
     259A      1.008378   260A      1.012534   261A      1.018400  
     262A      1.024371   263A      1.026850   264A      1.030139  
     265A      1.039412   266A      1.043776   267A      1.046272  
     268A      1.051030   269A      1.052237   270A      1.053947  
     271A      1.059630   272A      1.065889   273A      1.069793  
     274A      1.071705   275A      1.076582   276A      1.080128  
     277A      1.084339   278A      1.086505   279A      1.087801  
     280A      1.099163   281A      1.105732   282A      1.110640  
     283A      1.113145   284A      1.113582   285A      1.121248  
     286A      1.131508   287A      1.138176   288A      1.146867  
     289A      1.147901   290A      1.151101   291A      1.153021  
     292A      1.163802   293A      1.164448   294A      1.167824  
     295A      1.175572   296A      1.178477   297A      1.180346  
     298A      1.186410   299A      1.195717   300A      1.201979  
     301A      1.204751   302A      1.212040   303A      1.214604  
     304A      1.222115   305A      1.225732   306A      1.226213  
     307A      1.238510   308A      1.243540   309A      1.250978  
     310A      1.259342   311A      1.261555   312A      1.263547  
     313A      1.270613   314A      1.280008   315A      1.281287  
     316A      1.290256   317A      1.291931   318A      1.297213  
     319A      1.304067   320A      1.315332   321A      1.323274  
     322A      1.330309   323A      1.333744   324A      1.341436  
     325A      1.352750   326A      1.354272   327A      1.362145  
     328A      1.371843   329A      1.378368   330A      1.382777  
     331A      1.393770   332A      1.396571   333A      1.407898  
     334A      1.411953   335A      1.421085   336A      1.429753  
     337A      1.440591   338A      1.444501   339A      1.454007  
     340A      1.461748   341A      1.464508   342A      1.483620  
     343A      1.489330   344A      1.497134   345A      1.501532  
     346A      1.505356   347A      1.510476   348A      1.514861  
[...]
	 R(8,12)          =         2.522962	       1.335094
	 R(8,21)          =         2.043067	       1.081144
	 R(9,10)          =         2.761630	       1.461392
	 R(11,13)         =         2.573845	       1.362020
	 R(13,22)         =         1.817794	       0.961935
	 B(1,3,11)        =         2.091430	     119.830117
	 B(1,3,16)        =         2.115111	     121.186929
	 B(1,9,2)         =         2.064987	     118.315048
	 B(1,9,10)        =         2.108698	     120.819512
	 B(2,4,11)        =         2.094414	     120.001071
	 B(2,4,17)        =         2.094836	     120.025285
	 B(2,9,10)        =         2.109145	     120.845130
	 B(3,1,9)         =         2.114505	     121.152226
	 B(3,1,14)        =         2.083912	     119.399339
	 B(3,11,4)        =         2.090679	     119.787057
	 B(3,11,13)       =         2.046664	     117.265205
	 B(4,2,9)         =         2.110263	     120.909145
	 B(4,2,15)        =         2.085160	     119.470887
	 B(4,11,13)       =         2.145843	     122.947720
	 B(5,7,12)        =         2.158458	     123.670532
	 B(5,7,20)        =         2.096139	     120.099890
	 B(5,10,6)        =         2.039211	     116.838203
	 B(5,10,9)        =         2.120775	     121.511462
	 B(6,8,12)        =         2.158663	     123.682260
	 B(6,8,21)        =         2.096045	     120.094540
	 B(6,10,9)        =         2.122906	     121.633557
	 B(7,5,10)        =         2.086704	     119.559333
	 B(7,5,18)        =         2.096390	     120.114273
	 B(7,12,8)        =         2.036719	     116.695416
	 B(8,6,10)        =         2.086565	     119.551350
	 B(8,6,19)        =         2.096039	     120.094204
	 B(9,1,14)        =         2.084578	     119.437542
	 B(9,2,15)        =         2.087396	     119.598961
	 B(10,5,18)       =         2.099953	     120.318436
	 B(10,6,19)       =         2.100335	     120.340353
	 B(11,3,16)       =         2.076593	     118.980042
	 B(11,4,17)       =         2.093922	     119.972876
	 B(11,13,22)      =         1.902198	     108.987915
	 B(12,7,20)       =         2.028551	     116.227416
	 B(12,8,21)       =         2.028464	     116.222443
	 D(1,3,11,4)      =         0.003456	       0.197993
	 D(1,3,11,13)     =        -3.138938	    -179.847914
	 D(1,9,2,4)       =         0.015695	       0.899237
	 D(1,9,2,15)      =         3.128034	     179.223155
	 D(1,9,10,5)      =        -0.782406	     -44.828568
	 D(1,9,10,6)      =         2.386018	     136.708774
	 D(2,4,11,3)      =         0.001143	       0.065463
	 D(2,4,11,13)     =        -3.139601	    -179.885909
	 D(2,9,1,3)       =        -0.011057	      -0.633540
	 D(2,9,1,14)      =         3.109452	     178.158502
	 D(2,9,10,5)      =         2.388280	     136.838366
	 D(2,9,10,6)      =        -0.726481	     -41.624293
	 D(3,1,9,10)      =        -3.124277	    -179.007889
	 D(3,11,4,17)     =        -3.134890	    -179.615983
	 D(3,11,13,22)    =        -3.136650	    -179.716829
	 D(4,2,9,10)      =         3.128907	     179.273152
	 D(4,11,3,16)     =        -3.127434	    -179.188796
	 D(4,11,13,22)    =         0.004114	       0.235692
	 D(5,7,12,8)      =        -0.000290	      -0.016631
	 D(5,10,6,8)      =         0.009318	       0.533905
	 D(5,10,6,19)     =         3.127102	     179.169746
	 D(6,8,12,7)      =        -0.001756	      -0.100631
	 D(6,10,5,7)      =        -0.011196	      -0.641500
	 D(6,10,5,18)     =         3.112507	     178.333489
	 D(7,5,10,9)      =        -3.127186	    -179.174582
	 D(7,12,8,21)     =        -3.137816	    -179.783620
	 D(8,6,10,9)      =         3.125275	     179.065064
	 D(8,12,7,20)     =        -3.132532	    -179.480879
	 D(9,1,3,11)      =         0.001622	       0.092919
	 D(9,1,3,16)      =         3.132270	     179.465868
	 D(9,2,4,11)      =        -0.010930	      -0.626269
	 D(9,2,4,17)      =         3.125099	     179.055008
	 D(9,10,5,18)     =        -0.003484	      -0.199593
	 D(9,10,6,19)     =        -0.040127	      -2.299095
	 D(10,5,7,12)     =         0.007015	       0.401950
	 D(10,5,7,20)     =         3.138913	     179.846447
	 D(10,6,8,12)     =        -0.002965	      -0.169877
	 D(10,6,8,21)     =         3.132891	     179.501429
	 D(10,9,1,14)     =        -0.003767	      -0.215847
	 D(10,9,2,15)     =        -0.041939	      -2.402930
	 D(11,3,1,14)     =        -3.118896	    -178.699578
	 D(11,4,2,15)     =        -3.123307	    -178.952309
	 D(12,7,5,18)     =        -3.116725	    -178.575165
	 D(12,8,6,19)     =        -3.120808	    -178.809128
	 D(13,11,3,16)    =         0.013357	       0.765296
	 D(13,11,4,17)    =         0.007551	       0.432645
	 D(14,1,3,16)     =         0.011753	       0.673372
	 D(15,2,4,17)     =         0.012723	       0.728969
	 D(18,5,7,20)     =         0.015173	       0.869332
	 D(19,6,8,21)     =         0.015048	       0.862178

	Current energy   :      -553.7254672854

	Energy change for the previous step:
		Projected    :        -0.0000013460
		Actual       :         0.0000019725

	Performing BFGS update.
	Previous computed or guess Hessian on step 1.
	Steps to be used in Hessian update: 5 4
	Adding user-defined constraint: Fragment 1; Coordinate 63:
		Value =    -0.782406; Fixed value    =    -0.785400
		Force =    -0.001871; Force constant =     0.625000
	Removing off-diagonal coupling between coordinate 63 and others.
	Taking RFO optimization step.
	Going to follow RFO solution 1.
	Using RFO vector 1.
	Norm of target step-size    0.00201
	Projected energy change by RFO approximation:        -0.0000003859

	Back-transformation to cartesian coordinates...
	Successfully converged to displaced geometry.

	--- Internal Coordinate Step in ANG or DEG, aJ/ANG or AJ/DEG ---
	 ---------------------------------------------------------------------------
	   Coordinate                Previous        Force       Change         New 
	   ----------                --------       ------       ------       ------
	    1 R(1,3)          =      1.383525    -0.000248    -0.000059     1.383466
	    2 R(1,9)          =      1.394451     0.000344     0.000075     1.394526
	    3 R(1,14)         =      1.080077     0.000192     0.000026     1.080103
	    4 R(2,4)          =      1.385780     0.000250     0.000044     1.385824
	    5 R(2,9)          =      1.392410    -0.000256    -0.000045     1.392365
	    6 R(2,15)         =      1.079973     0.000238     0.000036     1.080009
	    7 R(3,11)         =      1.388007     0.000294     0.000050     1.388057
	    8 R(3,16)         =      1.078821     0.000150     0.000025     1.078846
	    9 R(4,11)         =      1.388514    -0.000123    -0.000032     1.388482
	   10 R(4,17)         =      1.081302     0.000052     0.000003     1.081305
	   11 R(5,7)          =      1.385762    -0.000009    -0.000010     1.385752
	   12 R(5,10)         =      1.391579    -0.000076     0.000005     1.391585
	   13 R(5,18)         =      1.079736     0.000191     0.000025     1.079761
	   14 R(6,8)          =      1.385760     0.000059     0.000000     1.385761
	   15 R(6,10)         =      1.391499    -0.000158    -0.000013     1.391485
	   16 R(6,19)         =      1.079693     0.000195     0.000026     1.079719
	   17 R(7,12)         =      1.335121     0.000216     0.000035     1.335156
	   18 R(7,20)         =      1.081139     0.000012     0.000003     1.081143
	   19 R(8,12)         =      1.335094     0.000151     0.000027     1.335121
	   20 R(8,21)         =      1.081144     0.000020     0.000004     1.081149
	   21 R(9,10)         =      1.461392    -0.000523    -0.000104     1.461288
	   22 R(11,13)        =      1.362020    -0.000033    -0.000008     1.362012
	   23 R(13,22)        =      0.961935     0.000085     0.000005     0.961940
	   24 B(1,3,11)       =    119.830117     0.000001     0.002405   119.832522
	   25 B(1,3,16)       =    121.186929     0.000002     0.014627   121.201556
	   26 B(1,9,2)        =    118.315048     0.000002     0.004948   118.319996
	   27 B(1,9,10)       =    120.819512    -0.000002    -0.006718   120.812794
	   28 B(2,4,11)       =    120.001071    -0.000001    -0.003774   119.997298
	   29 B(2,4,17)       =    120.025285    -0.000001    -0.003588   120.021697
	   30 B(2,9,10)       =    120.845130    -0.000000     0.002136   120.847266
	   31 B(3,1,9)        =    121.152226    -0.000002    -0.006291   121.145935
	   32 B(3,1,14)       =    119.399339     0.000002     0.009055   119.408394
	   33 B(3,11,4)       =    119.787057     0.000001     0.002909   119.789967
	   34 B(3,11,13)      =    117.265205    -0.000000    -0.002797   117.262408
	   35 B(4,2,9)        =    120.909145    -0.000001    -0.000044   120.909101
	   36 B(4,2,15)       =    119.470887    -0.000000    -0.002277   119.468610
	   37 B(4,11,13)      =    122.947720    -0.000001    -0.000108   122.947612
	   38 B(5,7,12)       =    123.670532     0.000001     0.003831   123.674364
	   39 B(5,7,20)       =    120.099890     0.000000     0.000057   120.099947
	   40 B(5,10,6)       =    116.838203     0.000001     0.000637   116.838839
	   41 B(5,10,9)       =    121.511462    -0.000001    -0.002421   121.509041
	   42 B(6,8,12)       =    123.682260     0.000001     0.004373   123.686633
	   43 B(6,8,21)       =    120.094540     0.000000    -0.000396   120.094144
	   44 B(6,10,9)       =    121.633557    -0.000000     0.002033   121.635590
	   45 B(7,5,10)       =    119.559333    -0.000001    -0.000902   119.558431
	   46 B(7,5,18)       =    120.114273    -0.000000    -0.004576   120.109697
	   47 B(7,12,8)       =    116.695416    -0.000002    -0.006896   116.688521
	   48 B(8,6,10)       =    119.551350    -0.000001    -0.001094   119.550256
	   49 B(8,6,19)       =    120.094204    -0.000001    -0.005477   120.088728
	   50 B(9,1,14)       =    119.437542     0.000000    -0.002666   119.434875
	   51 B(9,2,15)       =    119.598961     0.000001     0.002603   119.601564
	   52 B(10,5,18)      =    120.318436     0.000001     0.005597   120.324033
	   53 B(10,6,19)      =    120.340353     0.000001     0.006702   120.347055
	   54 B(11,3,16)      =    118.980042    -0.000002    -0.017074   118.962968
	   55 B(11,4,17)      =    119.972876     0.000001     0.007339   119.980216
	   56 B(11,13,22)     =    108.987915     0.000001     0.003517   108.991432
	   57 B(12,7,20)      =    116.227416    -0.000001    -0.004268   116.223148
	   58 B(12,8,21)      =    116.222443    -0.000001    -0.004240   116.218203
	   59 D(1,3,11,4)     =      0.197993    -0.000000    -0.005620     0.192373
	   60 D(1,3,11,13)    =   -179.847914     0.000000     0.000703  -179.847212
	   61 D(1,9,2,4)      =      0.899237    -0.000001    -0.012980     0.886257
	   62 D(1,9,2,15)     =    179.223155    -0.000000    -0.001723   179.221431
	   63 D(1,9,10,5)     =    -44.828568     0.000002     0.007687   -44.820881
	   64 D(1,9,10,6)     =    136.708774     0.000001    -0.003766   136.705008
	   65 D(2,4,11,3)     =      0.065463     0.000000    -0.003103     0.062360
	   66 D(2,4,11,13)    =   -179.885909    -0.000000    -0.009799  -179.895708
	   67 D(2,9,1,3)      =     -0.633540     0.000000     0.004177    -0.629364
	   68 D(2,9,1,14)     =    178.158502     0.000000     0.009673   178.168175
	   69 D(2,9,10,5)     =    136.838366     0.000001    -0.007483   136.830883
	   70 D(2,9,10,6)     =    -41.624293     0.000000    -0.018936   -41.643228
	   71 D(3,1,9,10)     =   -179.007889    -0.000001    -0.010578  -179.018467
	   72 D(3,11,4,17)    =   -179.615983     0.000000     0.001494  -179.614489
	   73 D(3,11,13,22)   =   -179.716829    -0.000000     0.016112  -179.700718
	   74 D(4,2,9,10)     =    179.273152     0.000000     0.001630   179.274782
	   75 D(4,11,3,16)    =   -179.188796    -0.000000    -0.001224  -179.190020
	   76 D(4,11,13,22)   =      0.235692     0.000000     0.022652     0.258344
	   77 D(5,7,12,8)     =     -0.016631    -0.000000    -0.020533    -0.037164
	   78 D(5,10,6,8)     =      0.533905    -0.000001    -0.020664     0.513240
	   79 D(5,10,6,19)    =    179.169746    -0.000000    -0.014396   179.155350
	   80 D(6,8,12,7)     =     -0.100631    -0.000000    -0.014062    -0.114694
	   81 D(6,10,5,7)     =     -0.641500     0.000000    -0.011057    -0.652557
	   82 D(6,10,5,18)    =    178.333489     0.000000    -0.003429   178.330061
	   83 D(7,5,10,9)     =   -179.174582    -0.000001    -0.022009  -179.196591
	   84 D(7,12,8,21)    =   -179.783620     0.000001     0.036834  -179.746786
	   85 D(8,6,10,9)     =    179.065064     0.000000    -0.009768   179.055296
	   86 D(8,12,7,20)    =   -179.480879     0.000000     0.024674  -179.456205
	   87 D(9,1,3,11)     =      0.092919    -0.000000     0.005031     0.097950
	   88 D(9,1,3,16)     =    179.465868    -0.000000     0.000334   179.466203
	   89 D(9,2,4,11)     =     -0.626269     0.000000     0.012613    -0.613657
	   90 D(9,2,4,17)     =    179.055008     0.000000     0.008049   179.063058
	   91 D(9,10,5,18)    =     -0.199593    -0.000001    -0.014380    -0.213973
	   92 D(9,10,6,19)    =     -2.299095     0.000000    -0.003499    -2.302594
	   93 D(10,5,7,12)    =      0.401950     0.000000     0.033406     0.435356
	   94 D(10,5,7,20)    =    179.846447    -0.000000    -0.013490   179.832956
	   95 D(10,6,8,12)    =     -0.169877     0.000001     0.035053    -0.134824
	   96 D(10,6,8,21)    =    179.501429    -0.000000    -0.017732   179.483697
	   97 D(10,9,1,14)    =     -0.215847    -0.000001    -0.005081    -0.220929
	   98 D(10,9,2,15)    =     -2.402930     0.000001     0.012887    -2.390044
	   99 D(11,3,1,14)    =   -178.699578    -0.000000    -0.000324  -178.699902
	  100 D(11,4,2,15)    =   -178.952309     0.000000     0.001290  -178.951019
	  101 D(12,7,5,18)    =   -178.575165     0.000000     0.025689  -178.549476
	  102 D(12,8,6,19)    =   -178.809128     0.000000     0.028632  -178.780495
	  103 D(13,11,3,16)   =      0.765296    -0.000000     0.005099     0.770395
	  104 D(13,11,4,17)   =      0.432645     0.000000    -0.005202     0.427443
	  105 D(14,1,3,16)    =      0.673372    -0.000000    -0.005021     0.668351
	  106 D(15,2,4,17)    =      0.728969     0.000000    -0.003273     0.725695
	  107 D(18,5,7,20)    =      0.869332    -0.000000    -0.021208     0.848124
	  108 D(19,6,8,21)    =      0.862178    -0.000000    -0.024152     0.838026
	 ---------------------------------------------------------------------------
	Successfully symmetrized geometry.
	 Forces used to impose fixed constraints are not included.
	  Forces zeroed: 63 

  ==> Convergence Check <==

  Measures of convergence in internal coordinates in au.
  Criteria marked as inactive (o), active & met (*), and active & unmet ( ).
  ---------------------------------------------------------------------------------------------
   Step     Total Energy     Delta E     MAX Force     RMS Force      MAX Disp      RMS Disp   
  ---------------------------------------------------------------------------------------------
    Convergence Criteria    1.00e-06 *    3.00e-04 *             o    1.20e-03 *             o
  ---------------------------------------------------------------------------------------------
      6    -553.72546729    1.97e-06      8.33e-05 *    2.29e-05 o    6.43e-04 *    1.94e-04 o  ~
  ---------------------------------------------------------------------------------------------


  **** Optimization is complete! (in 6 steps) ****

  ==> Optimization Summary <==

  Measures of convergence in internal coordinates in au.
  --------------------------------------------------------------------------------------------------------------- ~
   Step         Total Energy             Delta E       MAX Force       RMS Force        MAX Disp        RMS Disp  ~
  --------------------------------------------------------------------------------------------------------------- ~
      1    -553.722235195306   -553.722235195306      0.01549653      0.00431542      0.03227406      0.00962242  ~
      2    -553.724985835243     -0.002750639937      0.00420189      0.00124721      0.03558387      0.00962376  ~
      3    -553.725441424804     -0.000455589561      0.00107191      0.00023506      0.01921206      0.00400267  ~
      4    -553.725466722536     -0.000025297732      0.00031580      0.00007559      0.00520701      0.00156855  ~
      5    -553.725469257828     -0.000002535292      0.00008481      0.00003386      0.00250846      0.00074162  ~
      6    -553.725467285350      0.000001972478      0.00014229      0.00002668      0.00064288      0.00019386  ~
  --------------------------------------------------------------------------------------------------------------- ~

	Writing optimization data to binary file.
	Final energy is   -553.7254672853502
	Final (previous) structure:
	Cartesian Geometry (in Angstrom)
	    C    -1.2861461371   0.7005984152  -0.5556940613
	    C    -0.2692439908   0.1186250664   1.5305554231
	    C    -2.3530410071   1.2722099741   0.1144832803
	    C    -1.3366216851   0.6840601150   2.2098003940
	    C     0.7196223415  -1.2844749822  -1.6919321144
	    C     2.2130562520  -0.2695670438  -0.1554350039
	    C     1.8229553854  -1.8298208630  -2.3287914310
	    C     3.2545848098  -0.8586363355  -0.8543964600
	    C    -0.2313282024   0.1092622830   0.1386936362
	    C     0.9024049697  -0.4733270657  -0.5760818404
	    C    -2.3815028417   1.2632432503   1.5021694531
	    N     3.0813878934  -1.6307969955  -1.9296856102
	    O    -3.4578107741   1.8374785628   2.1079036327
	    H    -1.2607754051   0.7301482927  -1.6350688211
	    H     0.5306203711  -0.3446132479   2.0890975737
	    H    -3.1652432380   1.7373809046  -0.4219841743
	    H    -1.3586956973   0.6698795739   3.2907840691
	    H    -0.2753121783  -1.5020423400  -2.0505406290
	    H     2.4207680450   0.3607509670   0.6962054585
	    H     1.6909157296  -2.4632411230  -3.1949358786
	    H     4.2767380764  -0.6996320749  -0.5400817340
	    H    -3.3535393767   1.7691365302   3.0617256080
	Saving final (previous) structure.
			--------------------------
			 OPTKING Finished Execution 
			--------------------------

    Final optimized geometry and variables:
    Molecular point group: c1
    Full point group: C1

    Geometry (in Angstrom), charge = 0, multiplicity = 1:

    C           -1.286146137137     0.700598415195    -0.555694061288
    C           -0.269243990790     0.118625066411     1.530555423068
    C           -2.353041007119     1.272209974078     0.114483280303
    C           -1.336621685086     0.684060114986     2.209800394043
    C            0.719622341479    -1.284474982229    -1.691932114393
    C            2.213056252012    -0.269567043757    -0.155435003896
    C            1.822955385414    -1.829820862987    -2.328791431037
    C            3.254584809788    -0.858636335474    -0.854396459951
    C           -0.231328202443     0.109262282969     0.138693636168
    C            0.902404969736    -0.473327065678    -0.576081840398
    C           -2.381502841722     1.263243250286     1.502169453073
    N            3.081387893423    -1.630796995498    -1.929685610171
    O           -3.457810774072     1.837478562824     2.107903632722
    H           -1.260775405077     0.730148292701    -1.635068821076
    H            0.530620371111    -0.344613247866     2.089097573688
    H           -3.165243237979     1.737380904639    -0.421984174321
    H           -1.358695697287     0.669879573906     3.290784069063
    H           -0.275312178250    -1.502042339985    -2.050540629006
    H            2.420768045009     0.360750967028     0.696205458482
    H            1.690915729583    -2.463241122992    -3.194935878615
    H            4.276738076400    -0.699632074913    -0.540081734042
    H           -3.353539376677     1.769136530159     3.061725607988

	Cleaning optimization helper files.

*** Psi4 exiting successfully. Buy a developer a beer!
