
    -----------------------------------------------------------------------
          Psi4: An Open-Source Ab Initio Electronic Structure Package
                               Psi4 1.1 release

                         Git: Rev {HEAD} add49b9 


    R. M. Parrish, L. A. Burns, D. G. A. Smith, A. C. Simmonett,
    A. E. DePrince III, E. G. Hohenstein, U. Bozkaya, A. Yu. Sokolov,
    R. Di Remigio, R. M. Richard, J. F. Gonthier, A. M. James,
    H. R. McAlexander, A. Kumar, M. Saitow, X. Wang, B. P. Pritchard,
    P. Verma, H. F. Schaefer III, K. Patkowski, R. A. King, E. F. Valeev,
    F. A. Evangelista, J. M. Turney, T. D. Crawford, and C. D. Sherrill,
    J. Chem. Theory Comput. in press (2017).
    (doi: 10.1021/acs.jctc.7b00174)

    -----------------------------------------------------------------------


    Psi4 started on: Sunday, 12 November 2017 07:21AM

    Process ID:   9330
    PSIDATADIR: /cbio/jclab/home/chayas/anaconda/envs/py35/share/psi4
    Memory:     500.0 MiB
    Threads:    8
    
  ==> Input File <==

--------------------------------------------------------------------------

memory 5 Gb

molecule phepyrOH_cation {
  symmetry C1
  1 1 
  C      1.885   -1.036   -0.112
  C      2.878   -1.652   2.002
  C      0.807   -0.463   0.561
  C      1.800   -1.079   2.676
  C      5.073   -2.819   0.628
  C      4.084   -2.204   -1.481
  C      6.134   -3.381   -0.068
  C      5.170   -2.782   -2.124
  C      2.921   -1.631   0.608
  C      4.040   -2.225   -0.090
  C      0.764   -0.484   1.955
  N      6.152   -3.347   -1.408
  O      -0.288   0.076   2.612
  H      1.904   -1.012   -1.199
  H      3.678   -2.112   2.578
  H      0.003   -0.001   -0.006
  H      1.772   -1.098   3.762
  H      5.065   -2.850   1.714
  H      3.292   -1.748   -2.067
  H      6.978   -3.862   0.406
  H      5.288   -2.812   -3.198
  H      6.941   -3.764   -1.900
  H      -0.175   -0.018   3.571
  units Angstrom
}

dih_string = "1 9 10 5 180.001"
set optking fixed_dihedral = $dih_string

optimize('MP2/aug-cc-PVTZ')
--------------------------------------------------------------------------

  Memory set to   4.657 GiB by Python driver.
gradient() will perform analytic gradient computation.

*** tstart() called on gpu-3-8.local
*** at Sun Nov 12 07:21:50 2017

    SCF Algorithm Type (re)set to DF.

*** tstart() called on gpu-3-8.local
*** at Sun Nov 12 07:21:50 2017

   => Loading Basis Set <=

    Name: AUG-CC-PVTZ
    Role: ORBITAL
    Keyword: BASIS
    atoms 1-11  entry C          line   221 file /cbio/jclab/home/chayas/anaconda/envs/py35/share/psi4/basis/aug-cc-pvtz.gbs 
    atoms 12    entry N          line   267 file /cbio/jclab/home/chayas/anaconda/envs/py35/share/psi4/basis/aug-cc-pvtz.gbs 
    atoms 13    entry O          line   313 file /cbio/jclab/home/chayas/anaconda/envs/py35/share/psi4/basis/aug-cc-pvtz.gbs 
    atoms 14-23 entry H          line    34 file /cbio/jclab/home/chayas/anaconda/envs/py35/share/psi4/basis/aug-cc-pvtz.gbs 


         ---------------------------------------------------------
                                   SCF
            by Justin Turney, Rob Parrish, and Andy Simmonett
                              RHF Reference
                        8 Threads,   4768 MiB Core
         ---------------------------------------------------------

  ==> Geometry <==

    Molecular point group: c1
    Full point group: C1

    Geometry (in Angstrom), charge = 1, multiplicity = 1:

       Center              X                  Y                   Z               Mass       
    ------------   -----------------  -----------------  -----------------  -----------------
           C         -1.271916188788     0.719922375911    -0.579304705885    12.000000000000
           C         -0.278916188788     0.103922375911     1.534695294115    12.000000000000
           C         -2.349916188788     1.292922375911     0.093695294115    12.000000000000
           C         -1.356916188788     0.676922375911     2.208695294115    12.000000000000
           C          1.916083811212    -1.063077624089     0.160695294115    12.000000000000
           C          0.927083811212    -0.448077624089    -1.948304705885    12.000000000000
           C          2.977083811212    -1.625077624089    -0.535304705885    12.000000000000
           C          2.013083811212    -1.026077624089    -2.591304705885    12.000000000000
           C         -0.235916188788     0.124922375911     0.140695294115    12.000000000000
           C          0.883083811212    -0.469077624089    -0.557304705885    12.000000000000
           C         -2.392916188788     1.271922375911     1.487695294115    12.000000000000
           N          2.995083811212    -1.591077624089    -1.875304705885    14.003074004780
           O         -3.444916188788     1.831922375911     2.144695294115    15.994914619560
           H         -1.252916188788     0.743922375911    -1.666304705885     1.007825032070
           H          0.521083811212    -0.356077624089     2.110695294115     1.007825032070
           H         -3.153916188788     1.754922375911    -0.473304705885     1.007825032070
           H         -1.384916188788     0.657922375911     3.294695294115     1.007825032070
           H          1.908083811212    -1.094077624089     1.246695294115     1.007825032070
           H          0.135083811212     0.007922375911    -2.534304705885     1.007825032070
           H          3.821083811212    -2.106077624089    -0.061304705885     1.007825032070
           H          2.131083811212    -1.056077624089    -3.665304705885     1.007825032070
           H          3.784083811212    -2.008077624089    -2.367304705885     1.007825032070
           H         -3.331916188788     1.737922375911     3.103695294115     1.007825032070

  Running in c1 symmetry.

  Rotational constants: A =      0.09609  B =      0.01348  C =      0.01182 [cm^-1]
  Rotational constants: A =   2880.80921  B =    404.15041  C =    354.42758 [MHz]
  Nuclear repulsion =  713.778420465591353

  Charge       = 1
  Multiplicity = 1
  Electrons    = 90
  Nalpha       = 45
  Nbeta        = 45

  ==> Algorithm <==

  SCF Algorithm Type is DF.
  DIIS enabled.
  MOM disabled.
  Fractional occupation disabled.
  Guess Type is SAD.
  Energy threshold   = 1.00e-10
  Density threshold  = 1.00e-10
  Integral threshold = 0.00e+00

  ==> Primary Basis <==

  Basis Set: AUG-CC-PVTZ
    Blend: AUG-CC-PVTZ
    Number of shells: 272
    Number of basis function: 828
    Number of Cartesian functions: 965
    Spherical Harmonics?: true
    Max angular momentum: 3

   => Loading Basis Set <=

    Name: (AUG-CC-PVTZ AUX)
    Role: JKFIT
    Keyword: DF_BASIS_SCF
    atoms 1-11  entry C          line   161 file /cbio/jclab/home/chayas/anaconda/envs/py35/share/psi4/basis/aug-cc-pvtz-jkfit.gbs 
    atoms 12    entry N          line   223 file /cbio/jclab/home/chayas/anaconda/envs/py35/share/psi4/basis/aug-cc-pvtz-jkfit.gbs 
    atoms 13    entry O          line   285 file /cbio/jclab/home/chayas/anaconda/envs/py35/share/psi4/basis/aug-cc-pvtz-jkfit.gbs 
    atoms 14-23 entry H          line    69 file /cbio/jclab/home/chayas/anaconda/envs/py35/share/psi4/basis/aug-cc-pvtz-jkfit.gbs 

  ==> Pre-Iterations <==

   -------------------------------------------------------
    Irrep   Nso     Nmo     Nalpha   Nbeta   Ndocc  Nsocc
   -------------------------------------------------------
     A        828     828       0       0       0       0
   -------------------------------------------------------
    Total     828     828      45      45      45       0
   -------------------------------------------------------

  ==> Integral Setup <==

  ==> DFJK: Density-Fitted J/K Matrices <==

    J tasked:                  Yes
    K tasked:                  Yes
    wK tasked:                  No
    OpenMP threads:              8
    Integrals threads:           8
    Memory (MB):              3576
    Algorithm:                Disk
    Integral Cache:           NONE
    Schwarz Cutoff:          1E-12
    Fitting Condition:       1E-12

   => Auxiliary Basis Set <=

  Basis Set: (AUG-CC-PVTZ AUX)
    Blend: AUG-CC-PVTZ-JKFIT
    Number of shells: 530
    Number of basis function: 1812
    Number of Cartesian functions: 2253
    Spherical Harmonics?: true
    Max angular momentum: 4

  Minimum eigenvalue in the overlap matrix is 2.6674337642E-07.
  Using Symmetric Orthogonalization.

  SCF Guess: Superposition of Atomic Densities via on-the-fly atomic UHF.

  ==> Iterations <==

                           Total Energy        Delta E     RMS |[F,P]|

   @DF-RHF iter   0:  -556.62291718482732   -5.56623e+02   2.44491e-02 
   @DF-RHF iter   1:  -551.38029153895889    5.24263e+00   1.93124e-03 
   @DF-RHF iter   2:  -551.62492587615668   -2.44634e-01   7.81203e-04 DIIS
   @DF-RHF iter   3:  -551.65989711948612   -3.49712e-02   3.00909e-04 DIIS
   @DF-RHF iter   4:  -551.67006643217860   -1.01693e-02   9.96834e-05 DIIS
   @DF-RHF iter   5:  -551.67133782133749   -1.27139e-03   4.36884e-05 DIIS
   @DF-RHF iter   6:  -551.67160665387735   -2.68833e-04   1.27402e-05 DIIS
   @DF-RHF iter   7:  -551.67163505653639   -2.84027e-05   5.02615e-06 DIIS
   @DF-RHF iter   8:  -551.67163964102849   -4.58449e-06   2.55523e-06 DIIS
   @DF-RHF iter   9:  -551.67164126340288   -1.62237e-06   1.16690e-06 DIIS
   @DF-RHF iter  10:  -551.67164186057914   -5.97176e-07   5.55280e-07 DIIS
   @DF-RHF iter  11:  -551.67164194489578   -8.43166e-08   1.60117e-07 DIIS
   @DF-RHF iter  12:  -551.67164195147416   -6.57838e-09   5.06648e-08 DIIS
   @DF-RHF iter  13:  -551.67164195198791   -5.13751e-10   2.40633e-08 DIIS
   @DF-RHF iter  14:  -551.67164195207931   -9.14042e-11   9.18040e-09 DIIS
   @DF-RHF iter  15:  -551.67164195210910   -2.97860e-11   4.15656e-09 DIIS
   @DF-RHF iter  16:  -551.67164195209466    1.44382e-11   1.79935e-09 DIIS
   @DF-RHF iter  17:  -551.67164195211035   -1.56888e-11   5.56381e-10 DIIS
   @DF-RHF iter  18:  -551.67164195210069    9.66338e-12   3.01949e-10 DIIS
   @DF-RHF iter  19:  -551.67164195211183   -1.11413e-11   1.25167e-10 DIIS
   @DF-RHF iter  20:  -551.67164195209864    1.31877e-11   5.32279e-11 DIIS

  ==> Post-Iterations <==

    Orbital Energies (a.u.)
    -----------------------

    Doubly Occupied:                                                      

       1A    -20.707413     2A    -15.828057     3A    -11.481368  
       4A    -11.481269     5A    -11.445158     6A    -11.439326  
       7A    -11.411452     8A    -11.411222     9A    -11.383975  
      10A    -11.382118    11A    -11.373012    12A    -11.360654  
      13A    -11.356963    14A     -1.522035    15A     -1.507021  
      16A     -1.321555    17A     -1.264988    18A     -1.234249  
      19A     -1.156135    20A     -1.155250    21A     -1.067556  
      22A     -1.053805    23A     -0.978700    24A     -0.959528  
      25A     -0.952552    26A     -0.872570    27A     -0.860575  
      28A     -0.854805    29A     -0.823480    30A     -0.798080  
      31A     -0.775703    32A     -0.773271    33A     -0.761098  
      34A     -0.738708    35A     -0.716849    36A     -0.708204  
      37A     -0.702870    38A     -0.683574    39A     -0.656576  
      40A     -0.648096    41A     -0.621743    42A     -0.569358  
      43A     -0.535994    44A     -0.472759    45A     -0.437945  

    Virtual:                                                              

      46A     -0.106611    47A     -0.083176    48A     -0.065526  
      49A     -0.062707    50A     -0.059548    51A     -0.044885  
      52A     -0.039971    53A     -0.039808    54A     -0.031176  
      55A     -0.025493    56A     -0.019598    57A     -0.016117  
      58A     -0.013789    59A     -0.008824    60A     -0.001226  
      61A      0.000859    62A      0.003739    63A      0.005952  
      64A      0.008561    65A      0.017187    66A      0.023146  
      67A      0.023509    68A      0.025267    69A      0.026132  
      70A      0.026806    71A      0.028802    72A      0.033678  
      73A      0.038931    74A      0.045661    75A      0.048317  
      76A      0.051125    77A      0.053616    78A      0.063225  
      79A      0.063378    80A      0.064865    81A      0.068430  
      82A      0.076313    83A      0.078240    84A      0.084534  
      85A      0.086276    86A      0.086586    87A      0.092135  
      88A      0.097612    89A      0.101530    90A      0.102727  
      91A      0.110177    92A      0.112415    93A      0.122820  
      94A      0.130868    95A      0.135484    96A      0.138184  
      97A      0.143525    98A      0.146014    99A      0.149099  
     100A      0.150392   101A      0.150484   102A      0.157960  
     103A      0.159538   104A      0.163684   105A      0.167312  
     106A      0.173348   107A      0.174128   108A      0.176898  
     109A      0.179660   110A      0.184112   111A      0.184165  
     112A      0.189143   113A      0.196200   114A      0.203004  
     115A      0.206710   116A      0.211829   117A      0.212503  
     118A      0.218186   119A      0.221155   120A      0.224981  
     121A      0.229868   122A      0.234669   123A      0.240532  
     124A      0.240736   125A      0.242694   126A      0.244681  
     127A      0.247666   128A      0.250654   129A      0.254589  
     130A      0.257381   131A      0.265241   132A      0.272522  
     133A      0.279505   134A      0.281431   135A      0.292479  
     136A      0.292746   137A      0.301577   138A      0.302464  
     139A      0.305261   140A      0.307113   141A      0.311451  
     142A      0.314464   143A      0.317195   144A      0.317746  
     145A      0.320821   146A      0.328372   147A      0.330598  
     148A      0.336069   149A      0.336375   150A      0.337993  
     151A      0.344549   152A      0.346501   153A      0.352265  
     154A      0.354843   155A      0.357975   156A      0.358154  
     157A      0.360830   158A      0.364279   159A      0.367307  
     160A      0.368310   161A      0.377626   162A      0.378034  
     163A      0.394236   164A      0.396761   165A      0.397245  
     166A      0.397585   167A      0.405334   168A      0.409169  
     169A      0.410543   170A      0.411659   171A      0.414874  
     172A      0.420400   173A      0.424388   174A      0.424873  
     175A      0.429194   176A      0.436192   177A      0.437852  
     178A      0.442840   179A      0.444633   180A      0.450998  
     181A      0.451534   182A      0.463466   183A      0.468660  
     184A      0.474257   185A      0.479250   186A      0.486657  
     187A      0.487404   188A      0.495794   189A      0.508025  
     190A      0.514593   191A      0.518675   192A      0.531371  
     193A      0.536078   194A      0.536495   195A      0.543902  
     196A      0.548286   197A      0.555631   198A      0.556377  
     199A      0.560237   200A      0.565036   201A      0.569043  
     202A      0.574367   203A      0.585431   204A      0.595231  
     205A      0.597960   206A      0.603086   207A      0.605624  
     208A      0.607056   209A      0.609387   210A      0.615429  
     211A      0.617263   212A      0.635155   213A      0.637572  
     214A      0.644090   215A      0.647474   216A      0.648748  
     217A      0.662486   218A      0.672238   219A      0.673939  
     220A      0.678681   221A      0.684266   222A      0.691951  
     223A      0.702204   224A      0.704848   225A      0.708060  
     226A      0.714075   227A      0.717169   228A      0.717265  
     229A      0.724978   230A      0.732426   231A      0.736777  
     232A      0.737757   233A      0.742554   234A      0.746798  
     235A      0.755534   236A      0.756424   237A      0.757510  
     238A      0.763392   239A      0.768925   240A      0.776682  
     241A      0.776968   242A      0.789032   243A      0.794168  
     244A      0.797985   245A      0.802266   246A      0.805112  
     247A      0.806966   248A      0.808746   249A      0.810736  
     250A      0.811636   251A      0.816650   252A      0.827890  
     253A      0.831801   254A      0.832655   255A      0.833687  
     256A      0.836106   257A      0.840036   258A      0.841814  
     259A      0.845759   260A      0.862077   261A      0.864390  
     262A      0.868768   263A      0.870104   264A      0.873904  
     265A      0.878260   266A      0.880906   267A      0.891752  
     268A      0.901379   269A      0.905296   270A      0.909860  
     271A      0.912046   272A      0.914682   273A      0.921743  
     274A      0.925151   275A      0.932454   276A      0.936143  
     277A      0.937399   278A      0.942688   279A      0.947884  
     280A      0.949795   281A      0.953024   282A      0.963598  
     283A      0.965681   284A      0.969119   285A      0.972682  
     286A      0.974495   287A      0.982238   288A      0.985106  
     289A      0.993763   290A      0.994820   291A      1.000132  
     292A      1.015324   293A      1.017028   294A      1.021372  
     295A      1.021773   296A      1.032524   297A      1.037236  
     298A      1.038544   299A      1.045404   300A      1.049677  
     301A      1.054384   302A      1.055901   303A      1.066049  
     304A      1.067207   305A      1.067963   306A      1.076885  
     307A      1.082806   308A      1.087692   309A      1.088375  
     310A      1.096927   311A      1.106009   312A      1.110238  
     313A      1.113529   314A      1.114692   315A      1.118225  
     316A      1.126566   317A      1.130422   318A      1.131368  
     319A      1.135137   320A      1.151079   321A      1.156309  
     322A      1.159166   323A      1.170202   324A      1.176521  
     325A      1.181682   326A      1.192743   327A      1.194065  
     328A      1.196101   329A      1.201998   330A      1.207883  
     331A      1.212810   332A      1.217438   333A      1.225305  
     334A      1.228413   335A      1.239249   336A      1.247261  
     337A      1.252303   338A      1.255233   339A      1.257404  
     340A      1.263238   341A      1.270691   342A      1.291601  
     343A      1.300321   344A      1.312657   345A      1.312840  
     346A      1.314402   347A      1.324558   348A      1.338516  
     349A      1.346957   350A      1.349655   351A      1.353832  
     352A      1.362608   353A      1.367342   354A      1.369922  
     355A      1.377415   356A      1.386802   357A      1.391629  
     358A      1.403611   359A      1.404054   360A      1.407568  
     361A      1.412712   362A      1.423307   363A      1.442522  
     364A      1.448044   365A      1.457452   366A      1.468833  
     367A      1.470687   368A      1.481022   369A      1.482236  
     370A      1.485830   371A      1.495073   372A      1.508400  
     373A      1.513299   374A      1.514679   375A      1.529248  
     376A      1.535575   377A      1.536326   378A      1.543344  
     379A      1.553641   380A      1.555199   381A      1.559880  
     382A      1.574537   383A      1.577987   384A      1.586568  
     385A      1.592787   386A      1.606826   387A      1.618140  
     388A      1.622367   389A      1.627308   390A      1.636640  
     391A      1.646134   392A      1.650167   393A      1.662094  
     394A      1.667635   395A      1.671448   396A      1.679016  
     397A      1.702485   398A      1.710180   399A      1.710724  
     400A      1.731629   401A      1.732121   402A      1.733513  
     403A      1.738274   404A      1.738417   405A      1.746368  
     406A      1.766363   407A      1.768794   408A      1.772660  
     409A      1.783356   410A      1.790649   411A      1.806558  
     412A      1.818087   413A      1.824273   414A      1.833480  
     415A      1.834631   416A      1.853233   417A      1.859635  
     418A      1.861751   419A      1.866868   420A      1.869841  
     421A      1.870134   422A      1.875746   423A      1.878762  
     424A      1.899693   425A      1.915710   426A      1.916554  
     427A      1.919761   428A      1.926064   429A      1.933919  
     430A      1.934487   431A      1.938432   432A      1.943605  
     433A      1.958905   434A      1.963789   435A      1.992038  
     436A      2.002689   437A      2.010487   438A      2.017166  
     439A      2.024914   440A      2.033644   441A      2.040649  
     442A      2.044427   443A      2.060084   444A      2.060244  
     445A      2.066641   446A      2.068242   447A      2.073091  
     448A      2.084391   449A      2.092443   450A      2.093089  
     451A      2.114822   452A      2.116471   453A      2.123179  
     454A      2.129962   455A      2.135007   456A      2.144266  
     457A      2.151347   458A      2.183057   459A      2.196007  
     460A      2.201942   461A      2.204785   462A      2.212326  
     463A      2.215703   464A      2.221352   465A      2.245401  
     466A      2.253509   467A      2.254790   468A      2.263259  
     469A      2.271854   470A      2.295317   471A      2.303802  
     472A      2.304943   473A      2.320664   474A      2.327669  
     475A      2.336363   476A      2.340466   477A      2.360339  
     478A      2.361534   479A      2.366989   480A      2.390453  
     481A      2.394904   482A      2.415252   483A      2.430453  
     484A      2.436350   485A      2.439550   486A      2.447424  
     487A      2.459527   488A      2.474504   489A      2.481279  
     490A      2.490649   491A      2.514429   492A      2.529151  
     493A      2.529470   494A      2.537774   495A      2.563529  
     496A      2.577539   497A      2.604209   498A      2.610224  
     499A      2.624768   500A      2.644824   501A      2.648599  
     502A      2.665980   503A      2.676140   504A      2.679981  
     505A      2.693755   506A      2.718151   507A      2.757168  
     508A      2.777295   509A      2.778891   510A      2.784333  
     511A      2.795434   512A      2.816290   513A      2.839317  
     514A      2.875989   515A      2.892406   516A      2.892774  
     517A      2.925492   518A      2.960065   519A      2.962158  
     520A      3.005203   521A      3.015691   522A      3.025396  
     523A      3.039003   524A      3.040235   525A      3.047258  
     526A      3.051993   527A      3.074550   528A      3.099509  
     529A      3.117765   530A      3.118414   531A      3.147087  
     532A      3.147977   533A      3.172671   534A      3.174806  
     535A      3.185414   536A      3.194653   537A      3.196637  
     538A      3.205898   539A      3.234268   540A      3.235228  
     541A      3.246088   542A      3.267738   543A      3.275333  
     544A      3.283274   545A      3.286988   546A      3.294425  
     547A      3.303780   548A      3.309905   549A      3.336982  
     550A      3.342433   551A      3.349805   552A      3.359503  
     553A      3.361288   554A      3.372529   555A      3.378492  
     556A      3.379912   557A      3.400868   558A      3.404240  
     559A      3.416999   560A      3.423444   561A      3.431393  
     562A      3.435529   563A      3.455428   564A      3.462246  
     565A      3.475216   566A      3.475695   567A      3.505796  
     568A      3.506798   569A      3.514573   570A      3.535611  
     571A      3.538935   572A      3.544600   573A      3.552460  
     574A      3.554005   575A      3.557848   576A      3.570312  
     577A      3.589561   578A      3.596333   579A      3.604595  
     580A      3.614827   581A      3.623716   582A      3.629587  
     583A      3.648198   584A      3.653009   585A      3.664629  
     586A      3.665512   587A      3.679296   588A      3.692433  
     589A      3.714268   590A      3.729634   591A      3.735695  
     592A      3.748739   593A      3.751159   594A      3.758169  
     595A      3.779245   596A      3.781251   597A      3.782994  
     598A      3.784246   599A      3.788545   600A      3.817495  
     601A      3.821258   602A      3.822362   603A      3.824911  
     604A      3.833721   605A      3.844912   606A      3.851116  
     607A      3.855631   608A      3.857551   609A      3.869019  
     610A      3.875517   611A      3.889104   612A      3.897473  
     613A      3.910188   614A      3.916704   615A      3.920605  
     616A      3.936896   617A      3.959372   618A      3.970219  
     619A      3.974268   620A      3.994195   621A      4.001614  
     622A      4.007444   623A      4.018236   624A      4.022681  
     625A      4.031303   626A      4.039074   627A      4.048578  
     628A      4.057658   629A      4.067069   630A      4.067464  
     631A      4.073380   632A      4.077197   633A      4.085774  
     634A      4.117241   635A      4.117671   636A      4.126858  
     637A      4.144870   638A      4.148359   639A      4.155804  
     640A      4.166607   641A      4.169419   642A      4.170561  
     643A      4.174748   644A      4.182736   645A      4.186500  
     646A      4.191144   647A      4.193679   648A      4.207683  
     649A      4.220477   650A      4.226273   651A      4.246702  
     652A      4.256488   653A      4.263092   654A      4.264046  
     655A      4.278802   656A      4.286117   657A      4.286259  
     658A      4.302922   659A      4.306166   660A      4.314934  
     661A      4.328754   662A      4.343710   663A      4.347772  
     664A      4.355825   665A      4.366297   666A      4.374606  
     667A      4.382943   668A      4.396533   669A      4.411725  
     670A      4.419907   671A      4.433840   672A      4.449278  
     673A      4.459972   674A      4.461723   675A      4.464179  
     676A      4.482705   677A      4.491146   678A      4.497934  
     679A      4.513722   680A      4.523940   681A      4.528541  
     682A      4.541240   683A      4.559434   684A      4.567870  
     685A      4.584106   686A      4.592276   687A      4.603899  
     688A      4.619115   689A      4.625194   690A      4.626683  
     691A      4.643847   692A      4.651117   693A      4.664841  
     694A      4.673600   695A      4.700812   696A      4.716452  
     697A      4.735232   698A      4.756556   699A      4.759601  
     700A      4.782908   701A      4.783538   702A      4.807653  
     703A      4.809867   704A      4.812542   705A      4.817190  
     706A      4.831326   707A      4.851920   708A      4.862407  
     709A      4.872052   710A      4.877231   711A      4.896319  
     712A      4.904318   713A      4.941120   714A      4.953259  
     715A      4.956987   716A      4.960912   717A      4.980121  
     718A      4.991437   719A      4.992169   720A      4.994805  
     721A      5.005972   722A      5.006852   723A      5.009944  
     724A      5.031037   725A      5.054201   726A      5.064865  
     727A      5.085478   728A      5.088320   729A      5.114804  
     730A      5.126290   731A      5.141986   732A      5.181966  
     733A      5.183934   734A      5.198684   735A      5.217430  
     736A      5.224644   737A      5.233375   738A      5.262743  
     739A      5.270999   740A      5.296287   741A      5.309940  
     742A      5.333042   743A      5.333620   744A      5.350173  
     745A      5.374382   746A      5.382809   747A      5.404908  
     748A      5.409652   749A      5.421334   750A      5.455811  
     751A      5.496488   752A      5.524105   753A      5.537638  
     754A      5.562936   755A      5.598511   756A      5.604059  
     757A      5.614608   758A      5.625348   759A      5.648213  
     760A      5.670821   761A      5.695070   762A      5.695752  
     763A      5.699933   764A      5.735989   765A      5.782408  
     766A      5.788473   767A      5.819688   768A      5.841900  
     769A      5.876210   770A      5.893533   771A      5.961029  
     772A      5.967719   773A      5.995090   774A      6.012765  
     775A      6.070813   776A      6.114816   777A      6.134277  
     778A      6.205431   779A      6.217860   780A      6.251772  
     781A      6.301298   782A      6.331890   783A      6.341387  
     784A      6.362988   785A      6.403464   786A      6.463061  
     787A      6.485757   788A      6.531733   789A      6.535346  
     790A      6.598445   791A      6.638829   792A      6.662617  
     793A      6.726819   794A      6.757219   795A      6.787393  
     796A      6.813084   797A      6.823842   798A      6.848580  
     799A      6.852053   800A      6.892051   801A      6.963249  
     802A      6.992341   803A      7.060745   804A      7.132075  
     805A      7.155196   806A      7.312947   807A      7.337922  
     808A      7.485099   809A      7.570034   810A      7.571671  
     811A      7.622749   812A      7.658479   813A      7.917252  
     814A      8.298854   815A      8.546745   816A     15.972987  
     817A     16.271164   818A     16.726724   819A     17.255770  
     820A     17.600639   821A     18.786261   822A     19.599526  
     823A     19.994285   824A     20.087951   825A     20.687482  
     826A     20.851812   827A     21.240998   828A     21.300683  

    Final Occupation by Irrep:
              A 
    DOCC [    45 ]

  Energy converged.

  @DF-RHF Final Energy:  -551.67164195209864

   => Energetics <=

    Nuclear Repulsion Energy =            713.7784204655913527
    One-Electron Energy =               -2150.4048857656443943
    Two-Electron Energy =                 884.9548233479544024
    DFT Exchange-Correlation Energy =       0.0000000000000000
    Empirical Dispersion Energy =           0.0000000000000000
    PCM Polarization Energy =               0.0000000000000000
    EFP Energy =                            0.0000000000000000
    Total Energy =                       -551.6716419520986392



Properties will be evaluated at   0.000000,   0.000000,   0.000000 Bohr

Properties computed using the SCF density matrix

  Nuclear Dipole Moment: (a.u.)
     X:     2.9529      Y:    -1.5969      Z:    -0.9330

  Electronic Dipole Moment: (a.u.)
     X:     0.1512      Y:    -0.0709      Z:    -0.4013

  Dipole Moment: (a.u.)
     X:     3.1041      Y:    -1.6678      Z:    -1.3343     Total:     3.7680

  Dipole Moment: (Debye)
     X:     7.8898      Y:    -4.2392      Z:    -3.3915     Total:     9.5772


*** tstop() called on gpu-3-8.local at Sun Nov 12 07:29:58 2017
Module time:
	user time   =    1159.58 seconds =      19.33 minutes
	system time =      51.51 seconds =       0.86 minutes
	total time  =        488 seconds =       8.13 minutes
Total time:
	user time   =    1159.59 seconds =      19.33 minutes
	system time =      51.51 seconds =       0.86 minutes
	total time  =        488 seconds =       8.13 minutes

  //>>>>>>>>>>>>>>>>>>>>>>>>>>>>>>>>>>>//
  //               DFMP2               //
  //<<<<<<<<<<<<<<<<<<<<<<<<<<<<<<<<<<<//

   => Loading Basis Set <=

    Name: (AUG-CC-PVTZ AUX)
    Role: RIFIT
    Keyword: DF_BASIS_MP2
    atoms 1-11  entry C          line   147 file /cbio/jclab/home/chayas/anaconda/envs/py35/share/psi4/basis/aug-cc-pvtz-ri.gbs 
    atoms 12    entry N          line   205 file /cbio/jclab/home/chayas/anaconda/envs/py35/share/psi4/basis/aug-cc-pvtz-ri.gbs 
    atoms 13    entry O          line   263 file /cbio/jclab/home/chayas/anaconda/envs/py35/share/psi4/basis/aug-cc-pvtz-ri.gbs 
    atoms 14-23 entry H          line    29 file /cbio/jclab/home/chayas/anaconda/envs/py35/share/psi4/basis/aug-cc-pvtz-ri.gbs 

	 --------------------------------------------------------
	                          DF-MP2                         
	      2nd-Order Density-Fitted Moller-Plesset Theory     
	              RMP2 Wavefunction,   8 Threads             
	                                                         
	        Rob Parrish, Justin Turney, Andy Simmonett,      
	           Ed Hohenstein, and C. David Sherrill          
	 --------------------------------------------------------

   => Auxiliary Basis Set <=

  Basis Set: (AUG-CC-PVTZ AUX)
    Blend: AUG-CC-PVTZ-RI
    Number of shells: 504
    Number of basis function: 1838
    Number of Cartesian functions: 2318
    Spherical Harmonics?: true
    Max angular momentum: 4

	 --------------------------------------------------------
	                 NBF =   828, NAUX =  1838
	 --------------------------------------------------------
	   CLASS    FOCC     OCC    AOCC    AVIR     VIR    FVIR
	   PAIRS       0      45      45     783     783       0
	 --------------------------------------------------------


         ------------------------------------------------------------
                                     CPHF                           
                                  Rob Parrish                       
         ------------------------------------------------------------

  ==> Geometry <==

    Molecular point group: c1
    Full point group: C1

    Geometry (in Angstrom), charge = 1, multiplicity = 1:

       Center              X                  Y                   Z               Mass       
    ------------   -----------------  -----------------  -----------------  -----------------
           C         -1.271916188788     0.719922375911    -0.579304705885    12.000000000000
           C         -0.278916188788     0.103922375911     1.534695294115    12.000000000000
           C         -2.349916188788     1.292922375911     0.093695294115    12.000000000000
           C         -1.356916188788     0.676922375911     2.208695294115    12.000000000000
           C          1.916083811212    -1.063077624089     0.160695294115    12.000000000000
           C          0.927083811212    -0.448077624089    -1.948304705885    12.000000000000
           C          2.977083811212    -1.625077624089    -0.535304705885    12.000000000000
           C          2.013083811212    -1.026077624089    -2.591304705885    12.000000000000
           C         -0.235916188788     0.124922375911     0.140695294115    12.000000000000
           C          0.883083811212    -0.469077624089    -0.557304705885    12.000000000000
           C         -2.392916188788     1.271922375911     1.487695294115    12.000000000000
           N          2.995083811212    -1.591077624089    -1.875304705885    14.003074004780
           O         -3.444916188788     1.831922375911     2.144695294115    15.994914619560
           H         -1.252916188788     0.743922375911    -1.666304705885     1.007825032070
           H          0.521083811212    -0.356077624089     2.110695294115     1.007825032070
           H         -3.153916188788     1.754922375911    -0.473304705885     1.007825032070
           H         -1.384916188788     0.657922375911     3.294695294115     1.007825032070
           H          1.908083811212    -1.094077624089     1.246695294115     1.007825032070
           H          0.135083811212     0.007922375911    -2.534304705885     1.007825032070
           H          3.821083811212    -2.106077624089    -0.061304705885     1.007825032070
           H          2.131083811212    -1.056077624089    -3.665304705885     1.007825032070
           H          3.784083811212    -2.008077624089    -2.367304705885     1.007825032070
           H         -3.331916188788     1.737922375911     3.103695294115     1.007825032070

  Nuclear repulsion =  713.778420465591353
  Reference energy  = -551.671641952098639

  ==> Basis Set <==

  Basis Set: AUG-CC-PVTZ
    Blend: AUG-CC-PVTZ
    Number of shells: 272
    Number of basis function: 828
    Number of Cartesian functions: 965
    Spherical Harmonics?: true
    Max angular momentum: 3

  ==> CGRSolver (by Rob Parrish) <==

   Number of roots    =         1
   Preconditioning    =    JACOBI
   Convergence cutoff =     1E-06
   Maximum iterations =       100

  ==> CPHFRHamiltonian (by Rob Parrish) <== 

  ==> DFJK: Density-Fitted J/K Matrices <==

    J tasked:                  Yes
    K tasked:                  Yes
    wK tasked:                  No
    OpenMP threads:              8
    Integrals threads:           8
    Memory (MB):              3576
    Algorithm:                Disk
    Integral Cache:           NONE
    Schwarz Cutoff:          1E-12
    Fitting Condition:       1E-12

   => Auxiliary Basis Set <=

  Basis Set: (AUG-CC-PVTZ AUX)
    Blend: AUG-CC-PVTZ-JKFIT
    Number of shells: 530
    Number of basis function: 1812
    Number of Cartesian functions: 2253
    Spherical Harmonics?: true
    Max angular momentum: 4

  ==> CPHF Iterations <==

  => Iterations <=

             Iter  Converged  Remaining    Residual
  CGR           1          0          1   1.163E-01
  CGR           2          0          1   5.357E-02
  CGR           3          0          1   3.119E-02
  CGR           4          0          1   1.017E-02
  CGR           5          0          1   4.970E-03
  CGR           6          0          1   2.465E-03
  CGR           7          0          1   7.437E-04
  CGR           8          0          1   2.976E-04
  CGR           9          0          1   1.403E-04
  CGR          10          0          1   4.610E-05
  CGR          11          0          1   1.443E-05
  CGR          12          0          1   5.435E-06
  CGR          13          0          1   1.684E-06
  CGR          14          1          0   5.238E-07

    CGRSolver converged.

  ==> DFCorrGrad: Density-Fitted Correlated Gradients <==

    OpenMP threads:              8
    Integrals threads:           8
    Memory (MB):              3576
    Schwarz Cutoff:          0E+00
    Fitting Condition:       1E-12

   => Auxiliary Basis Set <=

  Basis Set: (AUG-CC-PVTZ AUX)
    Blend: AUG-CC-PVTZ-JKFIT
    Number of shells: 530
    Number of basis function: 1812
    Number of Cartesian functions: 2253
    Spherical Harmonics?: true
    Max angular momentum: 4

	-----------------------------------------------------------
	 ==================> DF-MP2 Energies <==================== 
	-----------------------------------------------------------
	 Reference Energy          =    -551.6716419520986392 [Eh]
	 Singles Energy            =      -0.0000000000000000 [Eh]
	 Same-Spin Energy          =      -0.5970980290760912 [Eh]
	 Opposite-Spin Energy      =      -1.8275827975675922 [Eh]
	 Correlation Energy        =      -2.4246808266436837 [Eh]
	 Total Energy              =    -554.0963227787423193 [Eh]
	-----------------------------------------------------------
	 ================> DF-SCS-MP2 Energies <================== 
	-----------------------------------------------------------
	 SCS Same-Spin Scale       =       0.3333333333333333 [-]
	 SCS Opposite-Spin Scale   =       1.2000000000000000 [-]
	 SCS Same-Spin Energy      =      -0.1990326763586971 [Eh]
	 SCS Opposite-Spin Energy  =      -2.1930993570811106 [Eh]
	 SCS Correlation Energy    =      -2.3921320334398075 [Eh]
	 SCS Total Energy          =    -554.0637739855384325 [Eh]
	-----------------------------------------------------------


  -Total Gradient:
     Atom            X                  Y                   Z
    ------   -----------------  -----------------  -----------------
       1        0.012959670425    -0.006782009679    -0.008101282718
       2        0.011012706569    -0.005651108642    -0.010396389300
       3       -0.001151046936     0.000306499865     0.009289907047
       4       -0.013522837496     0.007214031975     0.006133133285
       5       -0.020624974131     0.010900290355     0.010149354530
       6       -0.019096338397     0.010058371273     0.013601254545
       7        0.003989661712    -0.001669370251    -0.014657308654
       8        0.013202321585    -0.007417536160     0.004108906756
       9       -0.004461639797     0.002200226374     0.002343718308
      10        0.015985608763    -0.008268131451    -0.009584856307
      11        0.004583771518    -0.002046327888    -0.015817727133
      12       -0.002373959418     0.001145197820     0.001284272813
      13       -0.006430951015     0.003267712455     0.009992207676
      14        0.004036970605    -0.001970111219    -0.009285156617
      15        0.008671750454    -0.004861339546     0.001610612884
      16       -0.002886612135     0.001759893705    -0.004985393844
      17        0.000340738127    -0.000299373076     0.004161480906
      18       -0.003694721266     0.001747963881     0.010025022680
      19       -0.008850902248     0.004942111459    -0.001611365467
      20        0.002238344426    -0.001233617644    -0.000341632454
      21        0.001504500101    -0.000776813537    -0.001944355788
      22        0.004981727171    -0.002552057451    -0.003150258381
      23       -0.000413788616    -0.000014502611     0.007175855232


*** tstop() called on gpu-3-8.local at Sun Nov 12 08:02:27 2017
Module time:
	user time   =    5343.29 seconds =      89.05 minutes
	system time =     109.98 seconds =       1.83 minutes
	total time  =       2437 seconds =      40.62 minutes
Total time:
	user time   =    5343.30 seconds =      89.06 minutes
	system time =     109.98 seconds =       1.83 minutes
	total time  =       2437 seconds =      40.62 minutes

			-----------------------------------------
			 OPTKING 2.0: for geometry optimizations 
			  - R.A. King,  Bethel University        
			-----------------------------------------

	Internal coordinates to be generated automatically.
	Detected frag 1 with atoms:  1 2 3 4 5 6 7 8 9 10 11 12 13 14 15 16 17 18 19 20
	 21 22 23
	---Fragment 1 Bond Connectivity---
	 1 : 3 9 14
	 2 : 4 9 15
	 3 : 1 11 16
	 4 : 2 11 17
	 5 : 7 10 18
	 6 : 8 10 19
	 7 : 5 12 20
	 8 : 6 12 21
	 9 : 1 2 10
	 10 : 5 6 9
	 11 : 3 4 13
	 12 : 7 8 22
	 13 : 11 23
	 14 : 1
	 15 : 2
	 16 : 3
	 17 : 4
	 18 : 5
	 19 : 6
	 20 : 7
	 21 : 8
	 22 : 12
	 23 : 13

	Assuming in current code that numbering for constraints corresponds to unified fragment.
	Fixed dihedral atom list: 
	     1     9    10     5
	---Fragment 1 Geometry and Gradient---
	 C          -2.4035732608        1.3604561274       -1.0947272416
	 C          -0.5270752108        0.1963848295        2.9001538033
	 C          -4.4406980320        2.4432692016        0.1770584458
	 C          -2.5641999821        1.2791979037        4.1738292169
	 C           3.6208736508       -2.0089255675        0.3036700967
	 C           1.7519345054       -0.8467439958       -3.6817623175
	 C           5.6258730778       -3.0709516542       -1.0115792918
	 C           3.8041770857       -1.9390057006       -4.8968562210
	 C          -0.4458169871        0.2360690783        0.2658755741
	 C           1.6687865556       -0.8864282446       -1.0531532667
	 C          -4.5219562558        2.4035849528        2.8113366751
	 N           5.6598881482       -3.0067009657       -3.5438123098
	 O          -6.5099481476        3.4618315872        4.0528867444
	 H          -2.3676684643        1.4058095546       -3.1488595481
	 H           0.9847056955       -0.6728891916        3.9886360558
	 H          -5.9600378429        3.3163226749       -0.8944162715
	 H          -2.6171123138        1.2432931072        6.2260717972
	 H           3.6057558418       -2.0675070776        2.3559126770
	 H           0.2552714082        0.0149711208       -4.7891418314
	 H           7.2208019340       -3.9799099241       -0.1158491048
	 H           4.0271647694       -1.9956974846       -6.9264220877
	 H           7.1508820671       -3.7947167631       -4.4735575672
	 H          -6.2964090945        3.2841973307        5.8651341058
	             0.0129596704       -0.0067820097       -0.0081012827
	             0.0110127066       -0.0056511086       -0.0103963893
	            -0.0011510469        0.0003064999        0.0092899070
	            -0.0135228375        0.0072140320        0.0061331333
	            -0.0206249741        0.0109002904        0.0101493545
	            -0.0190963384        0.0100583713        0.0136012545
	             0.0039896617       -0.0016693703       -0.0146573087
	             0.0132023216       -0.0074175362        0.0041089068
	            -0.0044616398        0.0022002264        0.0023437183
	             0.0159856088       -0.0082681315       -0.0095848563
	             0.0045837715       -0.0020463279       -0.0158177271
	            -0.0023739594        0.0011451978        0.0012842728
	            -0.0064309510        0.0032677125        0.0099922077
	             0.0040369706       -0.0019701112       -0.0092851566
	             0.0086717505       -0.0048613395        0.0016106129
	            -0.0028866121        0.0017598937       -0.0049853938
	             0.0003407381       -0.0002993731        0.0041614809
	            -0.0036947213        0.0017479639        0.0100250227
	            -0.0088509022        0.0049421115       -0.0016113655
	             0.0022383444       -0.0012336176       -0.0003416325
	             0.0015045001       -0.0007768135       -0.0019443558
	             0.0049817272       -0.0025520575       -0.0031502584
	            -0.0004137886       -0.0000145026        0.0071758552

	Previous optimization step data not found.  Starting new optimization.

	---Fragment 1 Intrafragment Coordinates---
	 - Coordinate -           - BOHR/RAD -       - ANG/DEG -
	 R(1,3)           =         2.634350	       1.394038
	 R(1,9)           =         2.635962	       1.394891
	 R(1,14)          =         2.054947	       1.087431
	 R(2,4)           =         2.635263	       1.394521
	 R(2,9)           =         2.635830	       1.394821
	 R(2,15)          =         2.055702	       1.087831
	 R(3,11)          =         2.635830	       1.394821
	 R(3,16)          =         2.053941	       1.086899
	 R(4,11)          =         2.636938	       1.395407
	 R(4,17)          =         2.053239	       1.086527
	 R(5,7)           =         2.622557	       1.387797
	 R(5,10)          =         2.628995	       1.391204
	 R(5,18)          =         2.053134	       1.086472
	 R(6,8)           =         2.623202	       1.388139
	 R(6,10)          =         2.630223	       1.391854
	 R(6,19)          =         2.051546	       1.085632
	 R(7,12)          =         2.533276	       1.340552
	 R(7,20)          =         2.042630	       1.080913
	 R(8,12)          =         2.532660	       1.340226
	 R(8,21)          =         2.042566	       1.080879
	 R(9,10)          =         2.733384	       1.446444
	 R(11,13)         =         2.571662	       1.360865
	 R(12,22)         =         1.925736	       1.019055
	 R(13,23)         =         1.833410	       0.970199
	 B(1,3,11)        =         2.094553	     120.009056
	 B(1,3,16)        =         2.088505	     119.662516
	 B(1,9,2)         =         2.093692	     119.959722
	 B(1,9,10)        =         2.095161	     120.043881
	 B(2,4,11)        =         2.093699	     119.960108
	 B(2,4,17)        =         2.089577	     119.723926
	 B(2,9,10)        =         2.094332	     119.996376
	 B(3,1,9)         =         2.094940	     120.031219
	 B(3,1,14)        =         2.079469	     119.144799
	 B(3,11,4)        =         2.094306	     119.994870
	 B(3,11,13)       =         2.094549	     120.008801
	 B(4,2,9)         =         2.095181	     120.045019
	 B(4,2,15)        =         2.078675	     119.099297
	 B(4,11,13)       =         2.094331	     119.996326
	 B(5,7,12)        =         2.095899	     120.086195
	 B(5,7,20)        =         2.161849	     123.864814
	 B(5,10,6)        =         2.092955	     119.917465
	 B(5,10,9)        =         2.095227	     120.047663
	 B(6,8,12)        =         2.095901	     120.086253
	 B(6,8,21)        =         2.161840	     123.864282
	 B(6,10,9)        =         2.095003	     120.034849
	 B(7,5,10)        =         2.073443	     118.799551
	 B(7,5,18)        =         2.089058	     119.694233
	 B(7,12,8)        =         2.135153	     122.335241
	 B(7,12,22)       =         2.074439	     118.856577
	 B(8,6,10)        =         2.073020	     118.775272
	 B(8,6,19)        =         2.089329	     119.709726
	 B(8,12,22)       =         2.073592	     118.808092
	 B(9,1,14)        =         2.108776	     120.823969
	 B(9,2,15)        =         2.109330	     120.855683
	 B(10,5,18)       =         2.120683	     121.506192
	 B(10,6,19)       =         2.120837	     121.515002
	 B(11,3,16)       =         2.100127	     120.328425
	 B(11,4,17)       =         2.099910	     120.315955
	 B(11,13,23)      =         1.925489	     110.322421
	 B(12,7,20)       =         2.025437	     116.048989
	 B(12,8,21)       =         2.025445	     116.049465
	 D(1,3,11,4)      =        -0.000325	      -0.018609
	 D(1,3,11,13)     =         3.140978	     179.964785
	 D(1,9,2,4)       =         0.000325	       0.018608
	 D(1,9,2,15)      =        -3.141497	    -179.994534
	 D(1,9,10,5)      =        -3.141069	    -179.970007
	 D(1,9,10,6)      =        -0.000446	      -0.025567
	 D(2,4,11,3)      =         0.000301	       0.017261
	 D(2,4,11,13)     =        -3.141002	    -179.966135
	 D(2,9,1,3)       =        -0.000348	      -0.019945
	 D(2,9,1,14)      =        -3.141221	    -179.978731
	 D(2,9,10,5)      =         0.001440	       0.082496
	 D(2,9,10,6)      =        -3.141123	    -179.973064
	 D(3,1,9,10)      =        -3.141025	    -179.967461
	 D(3,11,4,17)     =         3.141223	     179.978848
	 D(3,11,13,23)    =         3.140828	     179.956172
	 D(4,2,9,10)      =         3.141002	     179.966149
	 D(4,11,3,16)     =         3.141593	     180.000000
	 D(4,11,13,23)    =        -0.001055	      -0.060434
	 D(5,7,12,8)      =         0.000203	       0.011634
	 D(5,7,12,22)     =         3.139864	     179.900936
	 D(5,10,6,8)      =        -0.000682	      -0.039084
	 D(5,10,6,19)     =         3.141048	     179.968814
	 D(6,8,12,7)      =         0.000144	       0.008254
	 D(6,8,12,22)     =        -3.139517	    -179.881099
	 D(6,10,5,7)      =         0.001016	       0.058236
	 D(6,10,5,18)     =        -3.141547	    -179.997403
	 D(7,5,10,9)      =        -3.141545	    -179.997258
	 D(7,12,8,21)     =        -3.141471	    -179.993038
	 D(8,6,10,9)      =        -3.141306	    -179.983597
	 D(8,12,7,20)     =         3.141562	     179.998257
	 D(9,1,3,11)      =         0.000348	       0.019955
	 D(9,1,3,16)      =        -3.141571	    -179.998735
	 D(9,2,4,11)      =        -0.000301	      -0.017270
	 D(9,2,4,17)      =        -3.141228	    -179.979086
	 D(9,10,5,18)     =        -0.000923	      -0.052897
	 D(9,10,6,19)     =         0.000424	       0.024300
	 D(10,5,7,12)     =        -0.000780	      -0.044697
	 D(10,5,7,20)     =         3.141065	     179.969777
	 D(10,6,8,12)     =         0.000099	       0.005669
	 D(10,6,8,21)     =        -3.141469	    -179.992933
	 D(10,9,1,14)     =         0.001287	       0.073752
	 D(10,9,2,15)     =        -0.000820	      -0.046992
	 D(11,3,1,14)     =         3.141234	     179.979432
	 D(11,4,2,15)     =         3.141517	     179.995641
	 D(12,7,5,18)     =        -3.141420	    -179.990089
	 D(12,8,6,19)     =         3.141556	     179.997917
	 D(13,11,3,16)    =        -0.000286	      -0.016400
	 D(13,11,4,17)    =        -0.000079	      -0.004548
	 D(14,1,3,16)     =        -0.000685	      -0.039257
	 D(15,2,4,17)     =         0.000590	       0.033826
	 D(18,5,7,20)     =         0.000426	       0.024385
	 D(19,6,8,21)     =        -0.000000	      -0.000000
	 D(20,7,12,22)    =        -0.001962	      -0.112441
	 D(21,8,12,22)    =         0.002053	       0.117608

	Current energy   :      -554.0963227787

	Generating empirical Hessian (Schlegel '84) for each fragment.
	Adding user-defined constraint: Fragment 1; Coordinate 66:
		Value =    -3.141069; Fixed value    =    -3.141575
		Force =    -0.000253; Force constant =     0.500000
	Removing off-diagonal coupling between coordinate 66 and others.
	Taking RFO optimization step.
	Going to follow RFO solution 1.
	Using RFO vector 1.

	Determining step-restricting scale parameter for RS-RFO.
	Maximum step size allowed    0.10000

	 Iter      |step|        alpha        rfo_root  
	------------------------------------------------
	    0     0.20241       1.00000           1
	    1     0.14797      12.56173           1
	    2     0.11684      30.32706           1
	    3     0.10325      44.66856           1
	    4     0.10016      48.89407           1
	    5     0.10000      49.12900           1
	------------------------------------------------
	Norm of target step-size    0.10000
	Projected energy change by RFO approximation:        -0.0061477841

	Back-transformation to cartesian coordinates...
	Successfully converged to displaced geometry.

	--- Internal Coordinate Step in ANG or DEG, aJ/ANG or AJ/DEG ---
	 ---------------------------------------------------------------------------
	   Coordinate                Previous        Force       Change         New 
	   ----------                --------       ------       ------       ------
	    1 R(1,3)          =      1.394038    -0.110387    -0.009224     1.384814
	    2 R(1,9)          =      1.394891     0.054124     0.004682     1.399573
	    3 R(1,14)         =      1.087431    -0.076690    -0.007508     1.079923
	    4 R(2,4)          =      1.394521    -0.111644    -0.009278     1.385244
	    5 R(2,9)          =      1.394821     0.044793     0.003934     1.398755
	    6 R(2,15)         =      1.087831    -0.076503    -0.007495     1.080336
	    7 R(3,11)         =      1.394821    -0.067555    -0.005833     1.388988
	    8 R(3,16)         =      1.086899    -0.045182    -0.004419     1.082480
	    9 R(4,11)         =      1.395407    -0.019331    -0.001781     1.393626
	   10 R(4,17)         =      1.086527    -0.034239    -0.003347     1.083180
	   11 R(5,7)          =      1.387797    -0.125756    -0.010328     1.377469
	   12 R(5,10)         =      1.391204     0.102502     0.008664     1.399868
	   13 R(5,18)         =      1.086472    -0.082371    -0.008050     1.078422
	   14 R(6,8)          =      1.388139    -0.127881    -0.010521     1.377618
	   15 R(6,10)         =      1.391854     0.098043     0.008302     1.400156
	   16 R(6,19)         =      1.085632    -0.077466    -0.007559     1.078072
	   17 R(7,12)         =      1.340552     0.005663     0.000254     1.340806
	   18 R(7,20)         =      1.080913    -0.017688    -0.001711     1.079202
	   19 R(8,12)         =      1.340226     0.007905     0.000414     1.340640
	   20 R(8,21)         =      1.080879    -0.017448    -0.001688     1.079191
	   21 R(9,10)         =      1.446444     0.135782     0.012601     1.459045
	   22 R(11,13)        =      1.360865    -0.122908    -0.009480     1.351384
	   23 R(12,22)        =      1.019055    -0.052912    -0.004532     1.014523
	   24 R(13,23)        =      0.970199    -0.058052    -0.004448     0.965751
	   25 B(1,3,11)       =    120.009056     0.000004    -0.044531   119.964526
	   26 B(1,3,16)       =    119.662516     0.000193     0.337585   120.000101
	   27 B(1,9,2)        =    119.959722    -0.000995    -1.308946   118.650776
	   28 B(1,9,10)       =    120.043881     0.000482     0.632726   120.676608
	   29 B(2,4,11)       =    119.960108     0.000124     0.143609   120.103718
	   30 B(2,4,17)       =    119.723926    -0.000023    -0.008340   119.715586
	   31 B(2,9,10)       =    119.996376     0.000514     0.676220   120.672596
	   32 B(3,1,9)        =    120.031219     0.000552     0.798989   120.830208
	   33 B(3,1,14)       =    119.144799    -0.000623    -0.962045   118.182755
	   34 B(3,11,4)       =    119.994870    -0.000042    -0.123838   119.871032
	   35 B(3,11,13)      =    120.008801    -0.000994    -1.315083   118.693718
	   36 B(4,2,9)        =    120.045019     0.000357     0.534716   120.579735
	   37 B(4,2,15)       =    119.099297    -0.000484    -0.761149   118.338148
	   38 B(4,11,13)      =    119.996326     0.001036     1.438922   121.435248
	   39 B(5,7,12)       =    120.086195    -0.000131    -0.232515   119.853680
	   40 B(5,7,20)       =    123.864814    -0.000045    -0.063469   123.801346
	   41 B(5,10,6)       =    119.917465    -0.001362    -1.812854   118.104611
	   42 B(5,10,9)       =    120.047663     0.000706     0.940577   120.988241
	   43 B(6,8,12)       =    120.086253    -0.000126    -0.226775   119.859479
	   44 B(6,8,21)       =    123.864282    -0.000051    -0.071665   123.792616
	   45 B(6,10,9)       =    120.034849     0.000656     0.872284   120.907133
	   46 B(7,5,10)       =    118.799551     0.000751     1.087789   119.887340
	   47 B(7,5,18)       =    119.694233    -0.000700    -1.069212   118.625021
	   48 B(7,12,8)       =    122.335241     0.000111     0.088325   122.423566
	   49 B(7,12,22)      =    118.856577    -0.000060    -0.051156   118.805421
	   50 B(8,6,10)       =    118.775272     0.000758     1.096035   119.871307
	   51 B(8,6,19)       =    119.709726    -0.000700    -1.068404   118.641322
	   52 B(8,12,22)      =    118.808092    -0.000051    -0.037161   118.770931
	   53 B(9,1,14)       =    120.823969     0.000072     0.163057   120.987026
	   54 B(9,2,15)       =    120.855683     0.000126     0.226433   121.082116
	   55 B(10,5,18)      =    121.506192    -0.000051    -0.018572   121.487620
	   56 B(10,6,19)      =    121.515002    -0.000058    -0.027631   121.487371
	   57 B(11,3,16)      =    120.328425    -0.000197    -0.293054   120.035370
	   58 B(11,4,17)      =    120.315955    -0.000101    -0.135268   120.180686
	   59 B(11,13,23)     =    110.322421    -0.000198    -0.320676   110.001744
	   60 B(12,7,20)      =    116.048989     0.000177     0.295984   116.344973
	   61 B(12,8,21)      =    116.049465     0.000177     0.298440   116.347905
	   62 D(1,3,11,4)     =     -0.018609     0.000000     0.001403    -0.017206
	   63 D(1,3,11,13)    =    179.964785     0.000000     0.002698   179.967483
	   64 D(1,9,2,4)      =      0.018608     0.000000    -0.000650     0.017958
	   65 D(1,9,2,15)     =   -179.994534     0.000000     0.000991  -179.993543
	   66 D(1,9,10,5)     =   -179.970007    -0.000002    -0.011920  -179.981927
	   67 D(1,9,10,6)     =     -0.025567    -0.000001    -0.002502    -0.028068
	   68 D(2,4,11,3)     =      0.017261    -0.000000    -0.001516     0.015745
	   69 D(2,4,11,13)    =   -179.966135    -0.000000    -0.002380  -179.968514
	   70 D(2,9,1,3)      =     -0.019945    -0.000000     0.000443    -0.019502
	   71 D(2,9,1,14)     =   -179.978731    -0.000000    -0.002115  -179.980846
	   72 D(2,9,10,5)     =      0.082496    -0.000002    -0.011770     0.070726
	   73 D(2,9,10,6)     =   -179.973064    -0.000000    -0.002351  -179.975415
	   74 D(3,1,9,10)     =   -179.967461     0.000000    -0.000435  -179.967896
	   75 D(3,11,4,17)    =    179.978848     0.000000     0.000982   179.979831
	   76 D(3,11,13,23)   =    179.956172     0.000000     0.000484   179.956655
	   77 D(4,2,9,10)     =    179.966149    -0.000000     0.000205   179.966354
	   78 D(4,11,3,16)    =    180.000000     0.000000     0.000000   180.000000
	   79 D(4,11,13,23)   =     -0.060434     0.000000     0.001530    -0.058905
	   80 D(5,7,12,8)     =      0.011634    -0.000000    -0.000779     0.010855
	   81 D(5,7,12,22)    =    179.900936     0.000000     0.004268   179.905203
	   82 D(5,10,6,8)     =     -0.039084     0.000001     0.005309    -0.033775
	   83 D(5,10,6,19)    =    179.968814     0.000001     0.004152   179.972966
	   84 D(6,8,12,7)     =      0.008254    -0.000000    -0.001308     0.006946
	   85 D(6,8,12,22)    =   -179.881099    -0.000001    -0.006337  -179.887437
	   86 D(6,10,5,7)     =      0.058236    -0.000001    -0.007029     0.051207
	   87 D(6,10,5,18)    =   -179.997403    -0.000000    -0.001758  -179.999162
	   88 D(7,5,10,9)     =   -179.997258     0.000001     0.003584  -179.993674
	   89 D(7,12,8,21)    =   -179.993038    -0.000000    -0.000356  -179.993394
	   90 D(8,6,10,9)     =   -179.983597    -0.000001    -0.005335  -179.988932
	   91 D(8,12,7,20)    =    179.998257    -0.000000    -0.000208   179.998049
	   92 D(9,1,3,11)     =      0.019955    -0.000000    -0.000634     0.019320
	   93 D(9,1,3,16)     =   -179.998735     0.000000     0.000240  -179.998495
	   94 D(9,2,4,11)     =     -0.017270     0.000000     0.000971    -0.016300
	   95 D(9,2,4,17)     =   -179.979086    -0.000000    -0.001467  -179.980553
	   96 D(9,10,5,18)    =     -0.052897     0.000001     0.008855    -0.044043
	   97 D(9,10,6,19)    =      0.024300    -0.000001    -0.006492     0.017809
	   98 D(10,5,7,12)    =     -0.044697     0.000000     0.004269    -0.040427
	   99 D(10,5,7,20)    =    179.969777     0.000000     0.003606   179.973383
	  100 D(10,6,8,12)    =      0.005669    -0.000000    -0.000502     0.005167
	  101 D(10,6,8,21)    =   -179.992933    -0.000000    -0.001533  -179.994466
	  102 D(10,9,1,14)    =      0.073752    -0.000000    -0.002992     0.070760
	  103 D(10,9,2,15)    =     -0.046992     0.000000     0.001846    -0.045147
	  104 D(11,3,1,14)    =    179.979432     0.000000     0.002291   179.981724
	  105 D(11,4,2,15)    =    179.995641    -0.000000    -0.000750   179.994892
	  106 D(12,7,5,18)    =   -179.990089    -0.000000    -0.001406  -179.991494
	  107 D(12,8,6,19)    =    179.997917     0.000000     0.000700   179.998617
	  108 D(13,11,3,16)   =     -0.016400     0.000000     0.001704    -0.014696
	  109 D(13,11,4,17)   =     -0.004548     0.000000     0.000119    -0.004429
	  110 D(14,1,3,16)    =     -0.039257     0.000000     0.003166    -0.036091
	  111 D(15,2,4,17)    =      0.033826    -0.000000    -0.003187     0.030639
	  112 D(18,5,7,20)    =      0.024385    -0.000000    -0.002069     0.022316
	  113 D(19,6,8,21)    =      0.000000    -0.000000    -0.001016    -0.001016
	  114 D(20,7,12,22)   =     -0.112441     0.000000     0.004838    -0.107603
	  115 D(21,8,12,22)   =      0.117608    -0.000001    -0.005386     0.112223
	 ---------------------------------------------------------------------------
	Successfully symmetrized geometry.
	 Forces used to impose fixed constraints are not included.
	  Forces zeroed: 66 

  ==> Convergence Check <==

  Measures of convergence in internal coordinates in au.
  Criteria marked as inactive (o), active & met (*), and active & unmet ( ).
  --------------------------------------------------------------------------------------------- ~
   Step     Total Energy     Delta E     MAX Force     RMS Force      MAX Disp      RMS Disp    ~
  --------------------------------------------------------------------------------------------- ~
    Convergence Criteria    1.00e-06 *    3.00e-04 *             o    1.20e-03 *             o  ~
  --------------------------------------------------------------------------------------------- ~
      1    -554.09632278   -5.54e+02      1.79e-02      5.88e-03 o    3.16e-02      9.32e-03 o  ~
  ---------------------------------------------------------------------------------------------

	Writing optimization data to binary file.
	Structure for next step:
	Cartesian Geometry (in Angstrom)
	    C    -1.2875398967   0.7278456802  -0.5562126025
	    C    -0.2947168554   0.1121091501   1.5480139222
	    C    -2.3588547184   1.2973798469   0.1113388842
	    C    -1.3657460756   0.6814730374   2.2170585802
	    C     1.9391462881  -1.0751666793   0.1438701517
	    C     0.9481604752  -0.4595930216  -1.9551202861
	    C     2.9925447940  -1.6331499171  -0.5463665195
	    C     2.0226944803  -1.0311218014  -2.6005372752
	    C    -0.2396737871   0.1266340177   0.1504179522
	    C     0.8877984480  -0.4718150909  -0.5563192741
	    C    -2.4017570430   1.2764474301   1.4995066815
	    N     3.0063358898  -1.5968733909  -1.8866112097
	    O    -3.4589268472   1.8403127473   2.1245568035
	    H    -1.2837327638   0.7600787280  -1.6356477959
	    H     0.4926544567  -0.3412452846   2.1325155242
	    H    -3.1621174192   1.7588174773  -0.4486672070
	    H    -1.3939206311   0.6626064609   3.2997081667
	    H     1.9483772988  -1.1153738032   1.2215024656
	    H     0.1683169321  -0.0101395312  -2.5484795779
	    H     3.8345507508  -2.1130125066  -0.0715676178
	    H     2.1337093919  -1.0573266411  -3.6736833611
	    H     3.7906823615  -2.0113722984  -2.3787989057
	    H    -3.3610578718   1.7547000363   3.0815142653
			--------------------------
			 OPTKING Finished Execution 
			--------------------------

    Structure for next step:
    Molecular point group: c1
    Full point group: C1

    Geometry (in Angstrom), charge = 1, multiplicity = 1:

    C           -1.287944517691     0.728070261397    -0.556223950591
    C           -0.295121476441     0.112333731280     1.548002574080
    C           -2.359259339474     1.297604428066     0.111327536117
    C           -1.366150696611     0.681697618559     2.217047232070
    C            1.938741667085    -1.074942098117     0.143858803657
    C            0.947755854132    -0.459368440356    -1.955131634180
    C            2.992140172982    -1.632925335943    -0.546377867568
    C            2.022289859269    -1.030897220207    -2.600548623232
    C           -0.240078408180     0.126858598921     0.150406604083
    C            0.887393826992    -0.471590509693    -0.556330622185
    C           -2.402161664034     1.276672011273     1.499495333409
    N            3.005931268790    -1.596648809682    -1.886622557813
    O           -3.459331468281     1.840537328502     2.124545455439
    H           -1.284137384831     0.760303309162    -1.635659144017
    H            0.492249835646    -0.341020703368     2.132504176087
    H           -3.162522040212     1.759042058521    -0.448678555047
    H           -1.394325252181     0.662831042109     3.299696818604
    H            1.947972677765    -1.115149221976     1.221491117490
    H            0.167912311060    -0.009914950034    -2.548490926022
    H            3.834146129716    -2.112787925423    -0.071578965834
    H            2.133304770847    -1.057102059872    -3.673694709173
    H            3.790277740507    -2.011147717227    -2.378810253817
    H           -3.361462492857     1.754924617535     3.081502917221

gradient() will perform analytic gradient computation.

*** tstart() called on gpu-3-8.local
*** at Sun Nov 12 08:02:28 2017

    SCF Algorithm Type (re)set to DF.

*** tstart() called on gpu-3-8.local
*** at Sun Nov 12 08:02:28 2017

   => Loading Basis Set <=

    Name: AUG-CC-PVTZ
    Role: ORBITAL
    Keyword: BASIS
    atoms 1-11  entry C          line   221 file /cbio/jclab/home/chayas/anaconda/envs/py35/share/psi4/basis/aug-cc-pvtz.gbs 
    atoms 12    entry N          line   267 file /cbio/jclab/home/chayas/anaconda/envs/py35/share/psi4/basis/aug-cc-pvtz.gbs 
    atoms 13    entry O          line   313 file /cbio/jclab/home/chayas/anaconda/envs/py35/share/psi4/basis/aug-cc-pvtz.gbs 
    atoms 14-23 entry H          line    34 file /cbio/jclab/home/chayas/anaconda/envs/py35/share/psi4/basis/aug-cc-pvtz.gbs 


         ---------------------------------------------------------
                                   SCF
            by Justin Turney, Rob Parrish, and Andy Simmonett
                              RHF Reference
                        8 Threads,   4768 MiB Core
         ---------------------------------------------------------

  ==> Geometry <==

    Molecular point group: c1
    Full point group: C1

    Geometry (in Angstrom), charge = 1, multiplicity = 1:

       Center              X                  Y                   Z               Mass       
    ------------   -----------------  -----------------  -----------------  -----------------
           C         -1.287944517691     0.728070261397    -0.556223950591    12.000000000000
           C         -0.295121476441     0.112333731280     1.548002574080    12.000000000000
           C         -2.359259339474     1.297604428066     0.111327536117    12.000000000000
           C         -1.366150696611     0.681697618559     2.217047232070    12.000000000000
           C          1.938741667085    -1.074942098117     0.143858803657    12.000000000000
           C          0.947755854132    -0.459368440356    -1.955131634180    12.000000000000
           C          2.992140172982    -1.632925335943    -0.546377867568    12.000000000000
           C          2.022289859269    -1.030897220207    -2.600548623232    12.000000000000
           C         -0.240078408180     0.126858598921     0.150406604083    12.000000000000
           C          0.887393826992    -0.471590509693    -0.556330622185    12.000000000000
           C         -2.402161664034     1.276672011273     1.499495333409    12.000000000000
           N          3.005931268790    -1.596648809682    -1.886622557813    14.003074004780
           O         -3.459331468281     1.840537328502     2.124545455439    15.994914619560
           H         -1.284137384831     0.760303309162    -1.635659144017     1.007825032070
           H          0.492249835646    -0.341020703368     2.132504176087     1.007825032070
           H         -3.162522040212     1.759042058521    -0.448678555047     1.007825032070
           H         -1.394325252181     0.662831042109     3.299696818604     1.007825032070
           H          1.947972677765    -1.115149221976     1.221491117490     1.007825032070
           H          0.167912311060    -0.009914950034    -2.548490926022     1.007825032070
           H          3.834146129716    -2.112787925423    -0.071578965834     1.007825032070
           H          2.133304770847    -1.057102059872    -3.673694709173     1.007825032070
           H          3.790277740507    -2.011147717227    -2.378810253817     1.007825032070
           H         -3.361462492857     1.754924617535     3.081502917221     1.007825032070

  Running in c1 symmetry.

  Rotational constants: A =      0.09655  B =      0.01334  C =      0.01172 [cm^-1]
  Rotational constants: A =   2894.35171  B =    400.06987  C =    351.48597 [MHz]
  Nuclear repulsion =  712.872171288100617

  Charge       = 1
  Multiplicity = 1
  Electrons    = 90
  Nalpha       = 45
  Nbeta        = 45

  ==> Algorithm <==

  SCF Algorithm Type is DF.
  DIIS enabled.
  MOM disabled.
  Fractional occupation disabled.
  Guess Type is READ.
  Energy threshold   = 1.00e-10
  Density threshold  = 1.00e-10
  Integral threshold = 0.00e+00

  ==> Primary Basis <==

  Basis Set: AUG-CC-PVTZ
    Blend: AUG-CC-PVTZ
    Number of shells: 272
    Number of basis function: 828
    Number of Cartesian functions: 965
    Spherical Harmonics?: true
    Max angular momentum: 3

   => Loading Basis Set <=

    Name: (AUG-CC-PVTZ AUX)
    Role: JKFIT
    Keyword: DF_BASIS_SCF
    atoms 1-11  entry C          line   161 file /cbio/jclab/home/chayas/anaconda/envs/py35/share/psi4/basis/aug-cc-pvtz-jkfit.gbs 
    atoms 12    entry N          line   223 file /cbio/jclab/home/chayas/anaconda/envs/py35/share/psi4/basis/aug-cc-pvtz-jkfit.gbs 
    atoms 13    entry O          line   285 file /cbio/jclab/home/chayas/anaconda/envs/py35/share/psi4/basis/aug-cc-pvtz-jkfit.gbs 
    atoms 14-23 entry H          line    69 file /cbio/jclab/home/chayas/anaconda/envs/py35/share/psi4/basis/aug-cc-pvtz-jkfit.gbs 

  Reading orbitals from file 180, no projection.

  ==> Pre-Iterations <==

   -------------------------------------------------------
    Irrep   Nso     Nmo     Nalpha   Nbeta   Ndocc  Nsocc
   -------------------------------------------------------
     A        828     828       0       0       0       0
   -------------------------------------------------------
    Total     828     828      45      45      45       0
   -------------------------------------------------------

  ==> Integral Setup <==

  ==> DFJK: Density-Fitted J/K Matrices <==

    J tasked:                  Yes
    K tasked:                  Yes
    wK tasked:                  No
    OpenMP threads:              8
    Integrals threads:           8
    Memory (MB):              3576
    Algorithm:                Disk
    Integral Cache:           NONE
    Schwarz Cutoff:          1E-12
    Fitting Condition:       1E-12

   => Auxiliary Basis Set <=

  Basis Set: (AUG-CC-PVTZ AUX)
    Blend: AUG-CC-PVTZ-JKFIT
    Number of shells: 530
    Number of basis function: 1812
    Number of Cartesian functions: 2253
    Spherical Harmonics?: true
    Max angular momentum: 4

  Minimum eigenvalue in the overlap matrix is 2.6709957671E-07.
  Using Symmetric Orthogonalization.

  SCF Guess: Orbitals guess was supplied from a previous computation.

  ==> Iterations <==

                           Total Energy        Delta E     RMS |[F,P]|

   @DF-RHF iter   0:  -551.87790903265250   -5.51878e+02   7.22411e-04 
   @DF-RHF iter   1:  -551.67688874239593    2.01020e-01   1.98155e-04 
   @DF-RHF iter   2:  -551.67819000314375   -1.30126e-03   1.37406e-04 DIIS
   @DF-RHF iter   3:  -551.67915184471815   -9.61842e-04   1.91471e-05 DIIS
   @DF-RHF iter   4:  -551.67917055016835   -1.87055e-05   5.72868e-06 DIIS
   @DF-RHF iter   5:  -551.67917342911005   -2.87894e-06   1.78918e-06 DIIS
   @DF-RHF iter   6:  -551.67917401899297   -5.89883e-07   1.02336e-06 DIIS
   @DF-RHF iter   7:  -551.67917426860004   -2.49607e-07   5.37777e-07 DIIS
   @DF-RHF iter   8:  -551.67917436111156   -9.25115e-08   1.54040e-07 DIIS
   @DF-RHF iter   9:  -551.67917437192830   -1.08167e-08   6.70229e-08 DIIS
   @DF-RHF iter  10:  -551.67917437270933   -7.81029e-10   2.79099e-08 DIIS
   @DF-RHF iter  11:  -551.67917437280323   -9.39053e-11   7.30383e-09 DIIS
   @DF-RHF iter  12:  -551.67917437282028   -1.70530e-11   2.56845e-09 DIIS
   @DF-RHF iter  13:  -551.67917437281562    4.66116e-12   1.20614e-09 DIIS
   @DF-RHF iter  14:  -551.67917437282733   -1.17097e-11   4.84801e-10 DIIS
   @DF-RHF iter  15:  -551.67917437280607    2.12594e-11   2.21464e-10 DIIS
   @DF-RHF iter  16:  -551.67917437282267   -1.65983e-11   7.32791e-11 DIIS

  ==> Post-Iterations <==

    Orbital Energies (a.u.)
    -----------------------

    Doubly Occupied:                                                      

       1A    -20.709375     2A    -15.825495     3A    -11.478909  
       4A    -11.478756     5A    -11.450046     6A    -11.438366  
       7A    -11.409472     8A    -11.409144     9A    -11.383094  
      10A    -11.380600    11A    -11.375608    12A    -11.358481  
      13A    -11.352887    14A     -1.529034    15A     -1.506052  
      16A     -1.317697    17A     -1.266640    18A     -1.235568  
      19A     -1.157676    20A     -1.156041    21A     -1.064404  
      22A     -1.055877    23A     -0.979872    24A     -0.960288  
      25A     -0.954455    26A     -0.873998    27A     -0.860888  
      28A     -0.854776    29A     -0.822555    30A     -0.799028  
      31A     -0.778108    32A     -0.772415    33A     -0.761427  
      34A     -0.736966    35A     -0.719040    36A     -0.712035  
      37A     -0.703121    38A     -0.685864    39A     -0.659963  
      40A     -0.645916    41A     -0.621389    42A     -0.569193  
      43A     -0.537548    44A     -0.474483    45A     -0.437645  

    Virtual:                                                              

      46A     -0.107586    47A     -0.082548    48A     -0.062369  
      49A     -0.061914    50A     -0.059153    51A     -0.044856  
      52A     -0.039811    53A     -0.039786    54A     -0.030813  
      55A     -0.025361    56A     -0.019647    57A     -0.015850  
      58A     -0.012853    59A     -0.008645    60A     -0.001326  
      61A      0.001976    62A      0.003817    63A      0.006281  
      64A      0.008823    65A      0.016863    66A      0.023360  
      67A      0.023790    68A      0.025155    69A      0.025951  
      70A      0.026830    71A      0.028987    72A      0.033730  
      73A      0.039051    74A      0.045776    75A      0.049081  
      76A      0.051404    77A      0.053465    78A      0.062899  
      79A      0.063359    80A      0.065058    81A      0.068067  
      82A      0.076630    83A      0.078074    84A      0.084624  
      85A      0.086782    86A      0.087150    87A      0.092795  
      88A      0.097714    89A      0.101226    90A      0.102787  
      91A      0.110370    92A      0.112452    93A      0.122519  
      94A      0.131179    95A      0.135493    96A      0.138997  
      97A      0.143544    98A      0.146673    99A      0.149099  
     100A      0.149673   101A      0.150234   102A      0.159065  
     103A      0.160505   104A      0.165030   105A      0.167642  
     106A      0.173692   107A      0.173802   108A      0.176769  
     109A      0.179785   110A      0.183440   111A      0.183971  
     112A      0.189465   113A      0.196861   114A      0.202994  
     115A      0.206708   116A      0.211650   117A      0.212566  
     118A      0.217962   119A      0.221188   120A      0.225507  
     121A      0.228873   122A      0.235039   123A      0.240320  
     124A      0.241084   125A      0.242997   126A      0.244790  
     127A      0.248567   128A      0.250453   129A      0.254772  
     130A      0.256918   131A      0.265692   132A      0.272533  
     133A      0.278597   134A      0.281764   135A      0.292558  
     136A      0.293702   137A      0.301580   138A      0.302888  
     139A      0.304752   140A      0.306543   141A      0.311698  
     142A      0.313654   143A      0.316847   144A      0.317292  
     145A      0.320954   146A      0.328810   147A      0.330287  
     148A      0.335393   149A      0.335924   150A      0.338006  
     151A      0.344352   152A      0.346782   153A      0.352283  
     154A      0.354458   155A      0.357750   156A      0.358397  
     157A      0.361156   158A      0.364176   159A      0.367210  
     160A      0.368376   161A      0.377402   162A      0.377734  
     163A      0.393718   164A      0.396304   165A      0.397181  
     166A      0.397770   167A      0.405966   168A      0.408930  
     169A      0.410682   170A      0.411536   171A      0.415664  
     172A      0.421403   173A      0.423180   174A      0.427698  
     175A      0.429501   176A      0.436204   177A      0.437783  
     178A      0.442346   179A      0.444545   180A      0.450833  
     181A      0.451080   182A      0.462187   183A      0.467812  
     184A      0.473314   185A      0.478067   186A      0.487262  
     187A      0.488526   188A      0.493695   189A      0.507691  
     190A      0.513265   191A      0.517260   192A      0.531236  
     193A      0.535381   194A      0.537858   195A      0.545205  
     196A      0.548277   197A      0.555195   198A      0.556931  
     199A      0.560421   200A      0.562612   201A      0.569265  
     202A      0.574530   203A      0.585621   204A      0.595589  
     205A      0.596745   206A      0.602604   207A      0.603304  
     208A      0.607364   209A      0.609448   210A      0.616469  
     211A      0.619168   212A      0.635065   213A      0.638106  
     214A      0.643822   215A      0.646617   216A      0.647641  
     217A      0.661359   218A      0.671979   219A      0.672928  
     220A      0.677084   221A      0.684271   222A      0.692047  
     223A      0.700810   224A      0.704476   225A      0.708634  
     226A      0.713123   227A      0.717102   228A      0.719624  
     229A      0.725769   230A      0.733141   231A      0.735996  
     232A      0.737620   233A      0.741390   234A      0.747891  
     235A      0.755908   236A      0.756735   237A      0.759177  
     238A      0.763957   239A      0.768938   240A      0.777534  
     241A      0.778754   242A      0.789239   243A      0.790821  
     244A      0.795262   245A      0.802471   246A      0.805246  
     247A      0.806960   248A      0.808930   249A      0.810220  
     250A      0.810616   251A      0.814535   252A      0.827705  
     253A      0.827767   254A      0.831077   255A      0.833806  
[...]
	 B(4,2,15)        =         2.051503	     117.542455
	 B(4,11,13)       =         2.157484	     123.614699
	 B(5,7,12)        =         2.089191	     119.701833
	 B(5,7,20)        =         2.152996	     123.357607
	 B(5,10,6)        =         2.021689	     115.834222
	 B(5,10,9)        =         2.131141	     122.105404
	 B(6,8,12)        =         2.089179	     119.701162
	 B(6,8,21)        =         2.152867	     123.350209
	 B(6,10,9)        =         2.130355	     122.060373
	 B(7,5,10)        =         2.119191	     121.420715
	 B(7,5,18)        =         2.043881	     117.105728
	 B(7,12,8)        =         2.127943	     121.922145
	 B(7,12,22)       =         2.077635	     119.039724
	 B(8,6,10)        =         2.119177	     121.419922
	 B(8,6,19)        =         2.044078	     117.117058
	 B(8,12,22)       =         2.077607	     119.038131
	 B(9,1,14)        =         2.114748	     121.166154
	 B(9,2,15)        =         2.114953	     121.177891
	 B(10,5,18)       =         2.120114	     121.473556
	 B(10,6,19)       =         2.119930	     121.463020
	 B(11,3,16)       =         2.074701	     118.871601
	 B(11,4,17)       =         2.095623	     120.070331
	 B(11,13,23)      =         1.931008	     110.638625
	 B(12,7,20)       =         2.040998	     116.940560
	 B(12,8,21)       =         2.041139	     116.948629
	 D(1,3,11,4)      =        -0.000085	      -0.004860
	 D(1,3,11,13)     =        -3.141386	    -179.988173
	 D(1,9,2,4)       =        -0.000217	      -0.012420
	 D(1,9,2,15)      =         3.141484	     179.993789
	 D(1,9,10,5)      =        -3.141573	    -179.998854
	 D(1,9,10,6)      =         0.000265	       0.015201
	 D(2,4,11,3)      =         0.000112	       0.006392
	 D(2,4,11,13)     =         3.141392	     179.988531
	 D(2,9,1,3)       =         0.000244	       0.013987
	 D(2,9,1,14)      =        -3.141497	    -179.994516
	 D(2,9,10,5)      =        -0.000213	      -0.012213
	 D(2,9,10,6)      =        -3.141560	    -179.998158
	 D(3,1,9,10)      =        -3.141574	    -179.998930
	 D(3,11,4,17)     =        -3.141479	    -179.993496
	 D(3,11,13,23)    =         3.141324	     179.984627
	 D(4,2,9,10)      =         3.141593	     180.000000
	 D(4,11,3,16)     =         3.141503	     179.994858
	 D(4,11,13,23)    =         0.000036	       0.002078
	 D(5,7,12,8)      =         0.000038	       0.002203
	 D(5,7,12,22)     =        -3.141575	    -179.998969
	 D(5,10,6,8)      =         0.000108	       0.006186
	 D(5,10,6,19)     =        -3.141530	    -179.996425
	 D(6,8,12,7)      =        -0.000060	      -0.003421
	 D(6,8,12,22)     =         3.141553	     179.997751
	 D(6,10,5,7)      =        -0.000129	      -0.007409
	 D(6,10,5,18)     =         3.141523	     179.995982
	 D(7,5,10,9)      =        -3.141491	    -179.994175
	 D(7,12,8,21)     =         3.141577	     179.999092
	 D(8,6,10,9)      =         3.141470	     179.992958
	 D(8,12,7,20)     =        -3.141558	    -179.997991
	 D(9,1,3,11)      =        -0.000097	      -0.005542
	 D(9,1,3,16)      =         3.141501	     179.994747
	 D(9,2,4,11)      =         0.000043	       0.002446
	 D(9,2,4,17)      =        -3.141552	    -179.997666
	 D(9,10,5,18)     =         0.000161	       0.009216
	 D(9,10,6,19)     =        -0.000168	      -0.009652
	 D(10,5,7,12)     =         0.000061	       0.003476
	 D(10,5,7,20)     =        -3.141528	    -179.996318
	 D(10,6,8,12)     =        -0.000018	      -0.001016
	 D(10,6,8,21)     =         3.141528	     179.996303
	 D(10,9,1,14)     =        -0.000130	      -0.007433
	 D(10,9,2,15)     =         0.000117	       0.006696
	 D(11,3,1,14)     =        -3.141546	    -179.997341
	 D(11,4,2,15)     =         3.141531	     179.996454
	 D(12,7,5,18)     =         3.141593	     180.000000
	 D(12,8,6,19)     =        -3.141567	    -179.998514
	 D(13,11,3,16)    =         0.000201	       0.011544
	 D(13,11,4,17)    =        -0.000198	      -0.011357
	 D(14,1,3,16)     =         0.000051	       0.002948
	 D(15,2,4,17)     =        -0.000064	      -0.003657
	 D(18,5,7,20)     =         0.000000	       0.000000
	 D(19,6,8,21)     =        -0.000021	      -0.001195
	 D(20,7,12,22)    =         0.000015	       0.000837
	 D(21,8,12,22)    =         0.000000	       0.000000

	Current energy   :      -554.1019078834

	Energy change for the previous step:
		Projected    :        -0.0000048142
		Actual       :        -0.0000029489

	Performing BFGS update.
	Previous computed or guess Hessian on step 1.
	Steps to be used in Hessian update: 4 3
	Adding user-defined constraint: Fragment 1; Coordinate 66:
		Value =    -3.141573; Fixed value    =    -3.141580
		Force =    -0.000004; Force constant =     0.600000
	Removing off-diagonal coupling between coordinate 66 and others.
	Taking RFO optimization step.
	Going to follow RFO solution 1.
	Using RFO vector 1.
	Norm of target step-size    0.00225
	Projected energy change by RFO approximation:        -0.0000007689

	Back-transformation to cartesian coordinates...
	Could not converge backtransformation.
	Using first guess instead.

	--- Internal Coordinate Step in ANG or DEG, aJ/ANG or AJ/DEG ---
	 ---------------------------------------------------------------------------
	   Coordinate                Previous        Force       Change         New 
	   ----------                --------       ------       ------       ------
	    1 R(1,3)          =      1.376193    -0.000562    -0.000145     1.376048
	    2 R(1,9)          =      1.401930    -0.000104     0.000024     1.401954
	    3 R(1,14)         =      1.077157     0.000125     0.000018     1.077175
	    4 R(2,4)          =      1.378644    -0.000006    -0.000019     1.378625
	    5 R(2,9)          =      1.399979    -0.000094    -0.000064     1.399916
	    6 R(2,15)         =      1.077338    -0.000615    -0.000074     1.077264
	    7 R(3,11)         =      1.393195     0.000037     0.000017     1.393212
	    8 R(3,16)         =      1.078912    -0.000093    -0.000010     1.078902
	    9 R(4,11)         =      1.392978     0.000032     0.000007     1.392985
	   10 R(4,17)         =      1.080664    -0.000117    -0.000027     1.080637
	   11 R(5,7)          =      1.370392    -0.000029    -0.000044     1.370349
	   12 R(5,10)         =      1.404619     0.000165     0.000012     1.404632
	   13 R(5,18)         =      1.075584    -0.000603    -0.000078     1.075505
	   14 R(6,8)          =      1.370433    -0.000018    -0.000044     1.370388
	   15 R(6,10)         =      1.404681    -0.000553    -0.000060     1.404622
	   16 R(6,19)         =      1.075465     0.000028     0.000007     1.075471
	   17 R(7,12)         =      1.343175    -0.000239    -0.000018     1.343156
	   18 R(7,20)         =      1.077520    -0.000003     0.000001     1.077521
	   19 R(8,12)         =      1.343086    -0.000392    -0.000037     1.343049
	   20 R(8,21)         =      1.077517     0.000016     0.000005     1.077522
	   21 R(9,10)         =      1.446734     0.000197    -0.000090     1.446644
	   22 R(11,13)        =      1.341041     0.000311    -0.000027     1.341014
	   23 R(12,22)        =      1.011395    -0.000164    -0.000027     1.011367
	   24 R(13,23)        =      0.964053     0.000168     0.000010     0.964063
	   25 B(1,3,11)       =    120.106546     0.000002     0.006203   120.112748
	   26 B(1,3,16)       =    121.021853     0.000001     0.011825   121.033678
	   27 B(1,9,2)        =    117.699946     0.000002     0.008517   117.708462
	   28 B(1,9,10)       =    121.184623    -0.000019    -0.044744   121.139879
	   29 B(2,4,11)       =    120.120399    -0.000001    -0.003125   120.117274
	   30 B(2,4,17)       =    119.809271    -0.000002    -0.013653   119.795618
	   31 B(2,9,10)       =    121.115430     0.000017     0.036228   121.151658
	   32 B(3,1,9)        =    121.357212    -0.000001    -0.008375   121.348837
	   33 B(3,1,14)       =    117.476633     0.000007     0.030671   117.507304
	   34 B(3,11,4)       =    119.436242    -0.000001    -0.000586   119.435656
	   35 B(3,11,13)      =    116.949056    -0.000000    -0.005186   116.943870
	   36 B(4,2,9)        =    121.279654    -0.000001    -0.002632   121.277022
	   37 B(4,2,15)       =    117.542455     0.000000     0.004552   117.547007
	   38 B(4,11,13)      =    123.614699     0.000001     0.005773   123.620473
	   39 B(5,7,12)       =    119.701833     0.000001     0.004181   119.706014
	   40 B(5,7,20)       =    123.357607    -0.000002    -0.013522   123.344085
	   41 B(5,10,6)       =    115.834222     0.000001     0.003851   115.838073
	   42 B(5,10,9)       =    122.105404     0.000017     0.040224   122.145628
	   43 B(6,8,12)       =    119.701162     0.000001     0.001803   119.702965
	   44 B(6,8,21)       =    123.350209    -0.000002    -0.013573   123.336636
	   45 B(6,10,9)       =    122.060373    -0.000018    -0.044074   122.016299
	   46 B(7,5,10)       =    121.420715    -0.000002    -0.006072   121.414644
	   47 B(7,5,18)       =    117.105728    -0.000002    -0.015046   117.090683
	   48 B(7,12,8)       =    121.922145    -0.000001    -0.002357   121.919788
	   49 B(7,12,22)      =    119.039724     0.000000     0.001057   119.040781
	   50 B(8,6,10)       =    121.419922    -0.000000    -0.001406   121.418516
	   51 B(8,6,19)       =    117.117058     0.000002    -0.000753   117.116304
	   52 B(8,12,22)      =    119.038131     0.000000     0.001300   119.039431
	   53 B(9,1,14)       =    121.166154    -0.000006    -0.022296   121.143859
	   54 B(9,2,15)       =    121.177891     0.000001    -0.001920   121.175971
	   55 B(10,5,18)      =    121.473556     0.000004     0.021117   121.494674
	   56 B(10,6,19)      =    121.463020    -0.000001     0.002159   121.465179
	   57 B(11,3,16)      =    118.871601    -0.000003    -0.018028   118.853574
	   58 B(11,4,17)      =    120.070331     0.000003     0.016778   120.087108
	   59 B(11,13,23)     =    110.638625     0.000003     0.006309   110.644933
	   60 B(12,7,20)      =    116.940560     0.000000     0.009340   116.949900
	   61 B(12,8,21)      =    116.948629     0.000001     0.011770   116.960399
	   62 D(1,3,11,4)     =     -0.004860     0.000000     0.008517     0.003657
	   63 D(1,3,11,13)    =   -179.988173    -0.000000    -0.018944  -180.007118
	   64 D(1,9,2,4)      =     -0.012420     0.000000     0.017162     0.004741
	   65 D(1,9,2,15)     =    179.993789     0.000000     0.008698   180.002487
	   66 D(1,9,10,5)     =   -179.998854    -0.000000    -0.001146  -180.000000
	   67 D(1,9,10,6)     =      0.015201    -0.000000    -0.018840    -0.003639
	   68 D(2,4,11,3)     =      0.006392    -0.000000    -0.010848    -0.004456
	   69 D(2,4,11,13)    =    179.988531     0.000000     0.018548   180.007079
	   70 D(2,9,1,3)      =      0.013987    -0.000000    -0.019544    -0.005557
	   71 D(2,9,1,14)     =   -179.994516    -0.000000    -0.007299  -180.001815
	   72 D(2,9,10,5)     =     -0.012213     0.000000     0.015951     0.003738
	   73 D(2,9,10,6)     =   -179.998158    -0.000000    -0.001842  -180.000000
	   74 D(3,1,9,10)     =   -179.998930    -0.000000    -0.003795  -180.002725
	   75 D(3,11,4,17)    =   -179.993496    -0.000000    -0.010846  -180.004342
	   76 D(3,11,13,23)   =    179.984627     0.000000     0.025993   180.010621
	   77 D(4,2,9,10)     =    180.000000     0.000000     0.001909   180.001909
	   78 D(4,11,3,16)    =    179.994858     0.000000     0.008537   180.003394
	   79 D(4,11,13,23)   =      0.002078    -0.000000    -0.002078     0.000000
	   80 D(5,7,12,8)     =      0.002203    -0.000000    -0.002203     0.000000
	   81 D(5,7,12,22)    =   -179.998969    -0.000000    -0.001031  -180.000000
	   82 D(5,10,6,8)     =      0.006186    -0.000000    -0.007740    -0.001554
	   83 D(5,10,6,19)    =   -179.996425    -0.000000    -0.004858  -180.001283
	   84 D(6,8,12,7)     =     -0.003421     0.000000     0.003421     0.000000
	   85 D(6,8,12,22)    =    179.997751     0.000000     0.002249   180.000000
	   86 D(6,10,5,7)     =     -0.007409     0.000000     0.008779     0.001370
	   87 D(6,10,5,18)    =    179.995982     0.000000     0.005663   180.001644
	   88 D(7,5,10,9)     =   -179.994175    -0.000000    -0.008645  -180.002820
	   89 D(7,12,8,21)    =    179.999092     0.000000     0.000908   180.000000
	   90 D(8,6,10,9)     =    179.992958     0.000000     0.009671   180.002629
	   91 D(8,12,7,20)    =   -179.997991    -0.000000    -0.002009  -180.000000
	   92 D(9,1,3,11)     =     -0.005542     0.000000     0.006967     0.001425
	   93 D(9,1,3,16)     =    179.994747     0.000000     0.006947   180.001694
	   94 D(9,2,4,11)     =      0.002446    -0.000000    -0.002446     0.000000
	   95 D(9,2,4,17)     =   -179.997666    -0.000000    -0.002334  -180.000000
	   96 D(9,10,5,18)    =      0.009216    -0.000000    -0.011761    -0.002546
	   97 D(9,10,6,19)    =     -0.009652     0.000000     0.012553     0.002901
	   98 D(10,5,7,12)    =      0.003476    -0.000000    -0.003476     0.000000
	   99 D(10,5,7,20)    =   -179.996318    -0.000000    -0.003682  -180.000000
	  100 D(10,6,8,12)    =     -0.001016     0.000000     0.001016     0.000000
	  101 D(10,6,8,21)    =    179.996303     0.000000     0.003697   180.000000
	  102 D(10,9,1,14)    =     -0.007433     0.000000     0.008450     0.001017
	  103 D(10,9,2,15)    =      0.006696    -0.000000    -0.006696     0.000000
	  104 D(11,3,1,14)    =   -179.997341    -0.000000    -0.004845  -180.002186
	  105 D(11,4,2,15)    =    179.996454     0.000000     0.005911   180.002365
	  106 D(12,7,5,18)    =    180.000000    -0.000000     0.000000   180.000000
	  107 D(12,8,6,19)    =   -179.998514    -0.000000    -0.001486  -180.000000
	  108 D(13,11,3,16)   =      0.011544    -0.000000    -0.018924    -0.007380
	  109 D(13,11,4,17)   =     -0.011357     0.000000     0.018550     0.007192
	  110 D(14,1,3,16)    =      0.002948    -0.000000    -0.004865    -0.001917
	  111 D(15,2,4,17)    =     -0.003657     0.000000     0.005909     0.002252
	  112 D(18,5,7,20)    =      0.000000    -0.000000     0.000000     0.000000
	  113 D(19,6,8,21)    =     -0.001195     0.000000     0.001195     0.000000
	  114 D(20,7,12,22)   =      0.000837    -0.000000    -0.000837     0.000000
	  115 D(21,8,12,22)   =      0.000000    -0.000000     0.000000     0.000000
	 ---------------------------------------------------------------------------
	Successfully symmetrized geometry.
	 Forces used to impose fixed constraints are not included.
	  Forces zeroed: 66 

  ==> Convergence Check <==

  Measures of convergence in internal coordinates in au.
  Criteria marked as inactive (o), active & met (*), and active & unmet ( ).
  ---------------------------------------------------------------------------------------------
   Step     Total Energy     Delta E     MAX Force     RMS Force      MAX Disp      RMS Disp   
  ---------------------------------------------------------------------------------------------
    Convergence Criteria    1.00e-06 *    3.00e-04 *             o    1.20e-03 *             o
  ---------------------------------------------------------------------------------------------
      5    -554.10190788   -2.95e-06      2.51e-04 *    4.96e-05 o    7.81e-04 *    2.10e-04 o  ~
  ---------------------------------------------------------------------------------------------


  **** Optimization is complete! (in 5 steps) ****

  ==> Optimization Summary <==

  Measures of convergence in internal coordinates in au.
  --------------------------------------------------------------------------------------------------------------- ~
   Step         Total Energy             Delta E       MAX Force       RMS Force        MAX Disp        RMS Disp  ~
  --------------------------------------------------------------------------------------------------------------- ~
      1    -554.096322778742   -554.096322778742      0.01790558      0.00587916      0.03164027      0.00932500  ~
      2    -554.100604947517     -0.004282168774      0.00807901      0.00241339      0.03579640      0.00887905  ~
      3    -554.101857373951     -0.001252426434      0.00204683      0.00046467      0.00678756      0.00183153  ~
      4    -554.101904934568     -0.000047560617      0.00081271      0.00012882      0.00232667      0.00054631  ~
      5    -554.101907883427     -0.000002948859      0.00025067      0.00004965      0.00078093      0.00020955  ~
  --------------------------------------------------------------------------------------------------------------- ~

	Writing optimization data to binary file.
	Final energy is   -554.1019078834266
	Final (previous) structure:
	Cartesian Geometry (in Angstrom)
	    C    -1.2952757854   0.7319528225  -0.5414494926
	    C    -0.3016762783   0.1159694541   1.5521924710
	    C    -2.3592402819   1.2974108157   0.1234903055
	    C    -1.3641996570   0.6803281927   2.2253957593
	    C     1.9462042499  -1.0777137530   0.1275966884
	    C     0.9611347557  -0.4668403368  -1.9513782000
	    C     2.9972003355  -1.6353707572  -0.5524040512
	    C     2.0252908972  -1.0326261877  -2.6037155332
	    C    -0.2388679361   0.1267864945   0.1536645123
	    C     0.8778468462  -0.4665210030  -0.5491683600
	    C    -2.4038644326   1.2769753880   1.5158208305
	    N     3.0143829324  -1.6012651984  -1.8950359918
	    O    -3.4695749427   1.8457879367   2.0981482316
	    H    -1.3040415753   0.7716699547  -1.6178379160
	    H     0.4794284339  -0.3340711900   2.1421047640
	    H    -3.1693694518   1.7618299586  -0.4169324964
	    H    -1.3883972251   0.6586022065   3.3055700869
	    H     1.9751206334  -1.1285228988   1.2015904033
	    H     0.1928988914  -0.0233283324  -2.5594367783
	    H     3.8320769499  -2.1117010221  -0.0654343706
	    H     2.1208269307  -1.0504757322  -3.6768400060
	    H     3.7949340717  -2.0158754850  -2.3867242695
	    H    -3.4076422830   1.7803101361   3.0579787658
	Saving final (previous) structure.
			--------------------------
			 OPTKING Finished Execution 
			--------------------------

    Final optimized geometry and variables:
    Molecular point group: c1
    Full point group: C1

    Geometry (in Angstrom), charge = 1, multiplicity = 1:

    C           -1.295275785421     0.731952822515    -0.541449492554
    C           -0.301676278327     0.115969454071     1.552192470976
    C           -2.359240281936     1.297410815680     0.123490305550
    C           -1.364199656966     0.680328192667     2.225395759281
    C            1.946204249915    -1.077713753047     0.127596688425
    C            0.961134755652    -0.466840336762    -1.951378200031
    C            2.997200335466    -1.635370757205    -0.552404051160
    C            2.025290897234    -1.032626187748    -2.603715533179
    C           -0.238867936080     0.126786494497     0.153664512348
    C            0.877846846173    -0.466521003046    -0.549168359974
    C           -2.403864432637     1.276975387992     1.515820830520
    N            3.014382932362    -1.601265198382    -1.895035991805
    O           -3.469574942749     1.845787936715     2.098148231571
    H           -1.304041575284     0.771669954725    -1.617837915969
    H            0.479428433890    -0.334071190032     2.142104763968
    H           -3.169369451824     1.761829958590    -0.416932496417
    H           -1.388397225053     0.658602206508     3.305570086930
    H            1.975120633446    -1.128522898767     1.201590403266
    H            0.192898891354    -0.023328332391    -2.559436778281
    H            3.832076949945    -2.111701022117    -0.065434370581
    H            2.120826930668    -1.050475732210    -3.676840006017
    H            3.794934071692    -2.015875485029    -2.386724269492
    H           -3.407642282955     1.780310136082     3.057978765775

	Cleaning optimization helper files.

*** Psi4 exiting successfully. Buy a developer a beer!
