
    -----------------------------------------------------------------------
          Psi4: An Open-Source Ab Initio Electronic Structure Package
                               Psi4 1.1 release

                         Git: Rev {HEAD} add49b9 


    R. M. Parrish, L. A. Burns, D. G. A. Smith, A. C. Simmonett,
    A. E. DePrince III, E. G. Hohenstein, U. Bozkaya, A. Yu. Sokolov,
    R. Di Remigio, R. M. Richard, J. F. Gonthier, A. M. James,
    H. R. McAlexander, A. Kumar, M. Saitow, X. Wang, B. P. Pritchard,
    P. Verma, H. F. Schaefer III, K. Patkowski, R. A. King, E. F. Valeev,
    F. A. Evangelista, J. M. Turney, T. D. Crawford, and C. D. Sherrill,
    J. Chem. Theory Comput. in press (2017).
    (doi: 10.1021/acs.jctc.7b00174)

    -----------------------------------------------------------------------


    Psi4 started on: Saturday, 11 November 2017 06:16PM

    Process ID:  18781
    PSIDATADIR: /cbio/jclab/home/chayas/anaconda/envs/py35/share/psi4
    Memory:     500.0 MiB
    Threads:    8
    
  ==> Input File <==

--------------------------------------------------------------------------

memory 5 Gb

molecule phepyrFOH_cation {
  symmetry C1
  1 1 
  C      1.885   -1.036   -0.112
  C      0.807   -0.463   0.561
  C      5.074   -2.819   0.619
  C      4.078   -2.202   -1.486
  C      1.800   -1.079   2.676
  C      6.132   -3.380   -0.081
  C      5.161   -2.779   -2.133
  C      2.921   -1.631   0.608
  C      4.038   -2.225   -0.095
  C      0.764   -0.484   1.955
  C      2.878   -1.652   2.002
  N      6.145   -3.344   -1.421
  O      -0.289   0.076   2.612
  F      3.866   -2.220   2.709
  H      1.904   -1.012   -1.199
  H      0.002   -0.002   -0.006
  H      5.069   -2.852   1.705
  H      3.284   -1.745   -2.068
  H      1.772   -1.099   3.762
  H      6.978   -3.863   0.389
  H      5.276   -2.808   -3.207
  H      6.933   -3.761   -1.916
  H      -0.175   -0.018   3.571
  units Angstrom
}

dih_string = "1 8 9 3 180.001"
set optking fixed_dihedral = $dih_string

optimize('MP2/aug-cc-PVTZ')
--------------------------------------------------------------------------

  Memory set to   4.657 GiB by Python driver.
gradient() will perform analytic gradient computation.

*** tstart() called on gpu-2-9.local
*** at Sat Nov 11 18:16:21 2017

    SCF Algorithm Type (re)set to DF.

*** tstart() called on gpu-2-9.local
*** at Sat Nov 11 18:16:21 2017

   => Loading Basis Set <=

    Name: AUG-CC-PVTZ
    Role: ORBITAL
    Keyword: BASIS
    atoms 1-11  entry C          line   221 file /cbio/jclab/home/chayas/anaconda/envs/py35/share/psi4/basis/aug-cc-pvtz.gbs 
    atoms 12    entry N          line   267 file /cbio/jclab/home/chayas/anaconda/envs/py35/share/psi4/basis/aug-cc-pvtz.gbs 
    atoms 13    entry O          line   313 file /cbio/jclab/home/chayas/anaconda/envs/py35/share/psi4/basis/aug-cc-pvtz.gbs 
    atoms 14    entry F          line   359 file /cbio/jclab/home/chayas/anaconda/envs/py35/share/psi4/basis/aug-cc-pvtz.gbs 
    atoms 15-23 entry H          line    34 file /cbio/jclab/home/chayas/anaconda/envs/py35/share/psi4/basis/aug-cc-pvtz.gbs 


         ---------------------------------------------------------
                                   SCF
            by Justin Turney, Rob Parrish, and Andy Simmonett
                              RHF Reference
                        8 Threads,   4768 MiB Core
         ---------------------------------------------------------

  ==> Geometry <==

    Molecular point group: c1
    Full point group: C1

    Geometry (in Angstrom), charge = 1, multiplicity = 1:

       Center              X                  Y                   Z               Mass       
    ------------   -----------------  -----------------  -----------------  -----------------
           C         -1.338161770144     0.763795481512    -0.788362621860    12.000000000000
           C         -2.416161770144     1.336795481512    -0.115362621860    12.000000000000
           C          1.850838229856    -1.019204518488    -0.057362621860    12.000000000000
           C          0.854838229856    -0.402204518488    -2.162362621860    12.000000000000
           C         -1.423161770144     0.720795481512     1.999637378140    12.000000000000
           C          2.908838229856    -1.580204518488    -0.757362621860    12.000000000000
           C          1.937838229856    -0.979204518488    -2.809362621860    12.000000000000
           C         -0.302161770144     0.168795481512    -0.068362621860    12.000000000000
           C          0.814838229856    -0.425204518488    -0.771362621860    12.000000000000
           C         -2.459161770144     1.315795481512     1.278637378140    12.000000000000
           C         -0.345161770144     0.147795481512     1.325637378140    12.000000000000
           N          2.921838229856    -1.544204518488    -2.097362621860    14.003074004780
           O         -3.512161770144     1.875795481512     1.935637378140    15.994914619560
           F          0.642838229856    -0.420204518488     2.032637378140    18.998403224000
           H         -1.319161770144     0.787795481512    -1.875362621860     1.007825032070
           H         -3.221161770144     1.797795481512    -0.682362621860     1.007825032070
           H          1.845838229856    -1.052204518488     1.028637378140     1.007825032070
           H          0.060838229856     0.054795481512    -2.744362621860     1.007825032070
           H         -1.451161770144     0.700795481512     3.085637378140     1.007825032070
           H          3.754838229856    -2.063204518488    -0.287362621860     1.007825032070
           H          2.052838229856    -1.008204518488    -3.883362621860     1.007825032070
           H          3.709838229856    -1.961204518488    -2.592362621860     1.007825032070
           H         -3.398161770144     1.781795481512     2.894637378140     1.007825032070

  Running in c1 symmetry.

  Rotational constants: A =      0.06291  B =      0.01345  C =      0.01108 [cm^-1]
  Rotational constants: A =   1886.03783  B =    403.36368  C =    332.29609 [MHz]
  Nuclear repulsion =  833.553745746990671

  Charge       = 1
  Multiplicity = 1
  Electrons    = 98
  Nalpha       = 49
  Nbeta        = 49

  ==> Algorithm <==

  SCF Algorithm Type is DF.
  DIIS enabled.
  MOM disabled.
  Fractional occupation disabled.
  Guess Type is SAD.
  Energy threshold   = 1.00e-10
  Density threshold  = 1.00e-10
  Integral threshold = 0.00e+00

  ==> Primary Basis <==

  Basis Set: AUG-CC-PVTZ
    Blend: AUG-CC-PVTZ
    Number of shells: 277
    Number of basis function: 851
    Number of Cartesian functions: 995
    Spherical Harmonics?: true
    Max angular momentum: 3

   => Loading Basis Set <=

    Name: (AUG-CC-PVTZ AUX)
    Role: JKFIT
    Keyword: DF_BASIS_SCF
    atoms 1-11  entry C          line   161 file /cbio/jclab/home/chayas/anaconda/envs/py35/share/psi4/basis/aug-cc-pvtz-jkfit.gbs 
    atoms 12    entry N          line   223 file /cbio/jclab/home/chayas/anaconda/envs/py35/share/psi4/basis/aug-cc-pvtz-jkfit.gbs 
    atoms 13    entry O          line   285 file /cbio/jclab/home/chayas/anaconda/envs/py35/share/psi4/basis/aug-cc-pvtz-jkfit.gbs 
    atoms 14    entry F          line   347 file /cbio/jclab/home/chayas/anaconda/envs/py35/share/psi4/basis/aug-cc-pvtz-jkfit.gbs 
    atoms 15-23 entry H          line    69 file /cbio/jclab/home/chayas/anaconda/envs/py35/share/psi4/basis/aug-cc-pvtz-jkfit.gbs 

  ==> Pre-Iterations <==

   -------------------------------------------------------
    Irrep   Nso     Nmo     Nalpha   Nbeta   Ndocc  Nsocc
   -------------------------------------------------------
     A        851     851       0       0       0       0
   -------------------------------------------------------
    Total     851     851      49      49      49       0
   -------------------------------------------------------

  ==> Integral Setup <==

  ==> DFJK: Density-Fitted J/K Matrices <==

    J tasked:                  Yes
    K tasked:                  Yes
    wK tasked:                  No
    OpenMP threads:              8
    Integrals threads:           8
    Memory (MB):              3576
    Algorithm:                Disk
    Integral Cache:           NONE
    Schwarz Cutoff:          1E-12
    Fitting Condition:       1E-12

   => Auxiliary Basis Set <=

  Basis Set: (AUG-CC-PVTZ AUX)
    Blend: AUG-CC-PVTZ-JKFIT
    Number of shells: 546
    Number of basis function: 1870
    Number of Cartesian functions: 2329
    Spherical Harmonics?: true
    Max angular momentum: 4

  Minimum eigenvalue in the overlap matrix is 2.9916017236E-07.
  Using Symmetric Orthogonalization.

  SCF Guess: Superposition of Atomic Densities via on-the-fly atomic UHF.

  ==> Iterations <==

                           Total Energy        Delta E     RMS |[F,P]|

   @DF-RHF iter   0:  -656.32002882960830   -6.56320e+02   2.57349e-02 
   @DF-RHF iter   1:  -650.23141206207038    6.08862e+00   1.91704e-03 
   @DF-RHF iter   2:  -650.49679266832163   -2.65381e-01   5.60941e-04 DIIS
   @DF-RHF iter   3:  -650.53688345117064   -4.00908e-02   3.96223e-04 DIIS
   @DF-RHF iter   4:  -650.54711194638094   -1.02285e-02   7.76993e-05 DIIS
   @DF-RHF iter   5:  -650.54835630796833   -1.24436e-03   3.80252e-05 DIIS
   @DF-RHF iter   6:  -650.54856725057971   -2.10943e-04   1.55984e-05 DIIS
   @DF-RHF iter   7:  -650.54859296714108   -2.57166e-05   6.14152e-06 DIIS
   @DF-RHF iter   8:  -650.54859676944068   -3.80230e-06   1.66798e-06 DIIS
   @DF-RHF iter   9:  -650.54859729152031   -5.22080e-07   7.36332e-07 DIIS
   @DF-RHF iter  10:  -650.54859740700817   -1.15488e-07   3.56498e-07 DIIS
   @DF-RHF iter  11:  -650.54859743233533   -2.53272e-08   1.38559e-07 DIIS
   @DF-RHF iter  12:  -650.54859743655959   -4.22426e-09   5.20330e-08 DIIS
   @DF-RHF iter  13:  -650.54859743708028   -5.20686e-10   2.02865e-08 DIIS
   @DF-RHF iter  14:  -650.54859743711506   -3.47882e-11   6.11872e-09 DIIS
   @DF-RHF iter  15:  -650.54859743714758   -3.25144e-11   2.64499e-09 DIIS
   @DF-RHF iter  16:  -650.54859743715201   -4.43379e-12   1.45748e-09 DIIS
   @DF-RHF iter  17:  -650.54859743712746    2.45564e-11   5.94716e-10 DIIS
   @DF-RHF iter  18:  -650.54859743712893   -1.47793e-12   2.83969e-10 DIIS
   @DF-RHF iter  19:  -650.54859743712075    8.18545e-12   1.43724e-10 DIIS
   @DF-RHF iter  20:  -650.54859743712416   -3.41061e-12   5.29926e-11 DIIS

  ==> Post-Iterations <==

    Orbital Energies (a.u.)
    -----------------------

    Doubly Occupied:                                                      

       1A    -26.462002     2A    -20.716648     3A    -15.828098  
       4A    -11.482878     5A    -11.480064     6A    -11.476865  
       7A    -11.452353     8A    -11.446227     9A    -11.412661  
      10A    -11.399408    11A    -11.393838    12A    -11.384683  
      13A    -11.370932    14A    -11.362981    15A     -1.787011  
      16A     -1.530693    17A     -1.505992    18A     -1.325846  
      19A     -1.273733    20A     -1.232111    21A     -1.167864  
      22A     -1.163395    23A     -1.070577    24A     -1.057463  
      25A     -1.000532    26A     -0.977491    27A     -0.955279  
      28A     -0.908128    29A     -0.881705    30A     -0.865000  
      31A     -0.849731    32A     -0.848208    33A     -0.833295  
      34A     -0.804937    35A     -0.777437    36A     -0.774460  
      37A     -0.771467    38A     -0.759330    39A     -0.719874  
      40A     -0.715911    41A     -0.707416    42A     -0.687083  
      43A     -0.652259    44A     -0.650607    45A     -0.649426  
      46A     -0.574437    47A     -0.532174    48A     -0.479693  
      49A     -0.447882  

    Virtual:                                                              

      50A     -0.106638    51A     -0.082159    52A     -0.061466  
      53A     -0.061356    54A     -0.057113    55A     -0.044844  
      56A     -0.039846    57A     -0.039565    58A     -0.031376  
      59A     -0.022646    60A     -0.020910    61A     -0.019586  
      62A     -0.008758    63A     -0.007682    64A     -0.003659  
      65A     -0.000882    66A      0.004215    67A      0.007279  
      68A      0.009922    69A      0.014778    70A      0.021396  
      71A      0.023679    72A      0.024027    73A      0.030450  
      74A      0.031403    75A      0.031802    76A      0.035440  
      77A      0.041038    78A      0.046155    79A      0.047983  
      80A      0.053246    81A      0.058478    82A      0.059867  
      83A      0.063997    84A      0.064149    85A      0.068756  
      86A      0.076160    87A      0.080092    88A      0.086254  
      89A      0.087636    90A      0.093278    91A      0.095843  
      92A      0.099431    93A      0.102442    94A      0.106953  
      95A      0.110154    96A      0.110650    97A      0.128870  
      98A      0.133765    99A      0.137931   100A      0.139472  
     101A      0.141136   102A      0.144199   103A      0.145154  
     104A      0.146651   105A      0.149246   106A      0.157709  
     107A      0.161329   108A      0.162864   109A      0.168616  
     110A      0.170620   111A      0.172259   112A      0.178759  
     113A      0.180098   114A      0.188204   115A      0.188764  
     116A      0.189547   117A      0.197584   118A      0.198021  
     119A      0.208123   120A      0.208181   121A      0.215078  
     122A      0.217938   123A      0.221624   124A      0.227764  
     125A      0.233368   126A      0.235825   127A      0.235981  
     128A      0.237776   129A      0.247026   130A      0.247960  
     131A      0.249341   132A      0.254478   133A      0.254701  
     134A      0.260731   135A      0.265506   136A      0.266831  
     137A      0.277038   138A      0.281019   139A      0.287353  
     140A      0.292446   141A      0.297833   142A      0.302030  
     143A      0.303783   144A      0.307660   145A      0.311755  
     146A      0.312698   147A      0.316112   148A      0.316591  
     149A      0.324777   150A      0.326035   151A      0.327865  
     152A      0.333118   153A      0.335541   154A      0.339673  
     155A      0.344079   156A      0.345480   157A      0.349291  
     158A      0.351572   159A      0.355440   160A      0.356404  
     161A      0.359554   162A      0.366987   163A      0.369370  
     164A      0.372869   165A      0.376478   166A      0.381639  
     167A      0.387140   168A      0.390846   169A      0.393349  
     170A      0.400856   171A      0.405764   172A      0.406243  
     173A      0.413369   174A      0.413915   175A      0.414324  
     176A      0.415718   177A      0.417338   178A      0.424172  
     179A      0.432101   180A      0.435162   181A      0.436364  
     182A      0.440412   183A      0.449750   184A      0.451236  
     185A      0.456379   186A      0.460352   187A      0.462481  
     188A      0.467144   189A      0.477789   190A      0.486887  
     191A      0.489482   192A      0.494632   193A      0.502395  
     194A      0.509227   195A      0.514066   196A      0.530325  
     197A      0.534725   198A      0.538632   199A      0.546390  
     200A      0.547100   201A      0.552290   202A      0.560887  
     203A      0.562160   204A      0.562432   205A      0.571242  
     206A      0.579855   207A      0.583095   208A      0.592986  
     209A      0.596437   210A      0.603483   211A      0.603991  
     212A      0.606987   213A      0.610022   214A      0.620832  
     215A      0.630989   216A      0.633793   217A      0.636745  
     218A      0.639541   219A      0.641395   220A      0.646431  
     221A      0.660014   222A      0.673195   223A      0.673423  
     224A      0.674844   225A      0.684657   226A      0.687354  
     227A      0.689314   228A      0.698713   229A      0.706457  
     230A      0.714548   231A      0.716051   232A      0.718971  
     233A      0.724728   234A      0.731360   235A      0.735026  
     236A      0.738612   237A      0.738856   238A      0.745252  
     239A      0.749753   240A      0.754340   241A      0.761964  
     242A      0.769192   243A      0.769321   244A      0.771692  
     245A      0.779722   246A      0.788195   247A      0.789542  
     248A      0.795011   249A      0.800389   250A      0.803568  
     251A      0.806008   252A      0.812804   253A      0.814360  
     254A      0.818801   255A      0.820717   256A      0.826387  
     257A      0.827843   258A      0.833107   259A      0.833358  
     260A      0.838028   261A      0.840917   262A      0.842195  
     263A      0.847973   264A      0.856768   265A      0.857738  
     266A      0.868528   267A      0.871559   268A      0.879677  
     269A      0.892259   270A      0.897675   271A      0.897788  
     272A      0.901351   273A      0.903699   274A      0.912301  
     275A      0.914447   276A      0.919083   277A      0.921547  
     278A      0.922290   279A      0.932739   280A      0.933180  
     281A      0.936994   282A      0.941622   283A      0.943502  
     284A      0.948507   285A      0.952477   286A      0.960167  
     287A      0.967243   288A      0.968282   289A      0.972012  
     290A      0.981710   291A      0.985446   292A      0.994398  
     293A      0.997490   294A      0.999659   295A      1.002803  
     296A      1.003932   297A      1.016029   298A      1.017948  
     299A      1.024966   300A      1.035404   301A      1.036434  
     302A      1.045905   303A      1.047971   304A      1.051226  
     305A      1.061218   306A      1.063714   307A      1.065435  
     308A      1.066826   309A      1.074297   310A      1.074447  
     311A      1.081898   312A      1.088003   313A      1.094090  
     314A      1.105140   315A      1.106134   316A      1.113886  
     317A      1.120405   318A      1.120915   319A      1.124147  
     320A      1.128937   321A      1.133818   322A      1.145055  
     323A      1.149696   324A      1.150068   325A      1.151007  
     326A      1.168495   327A      1.181642   328A      1.184337  
     329A      1.188576   330A      1.193870   331A      1.197219  
     332A      1.202628   333A      1.204906   334A      1.214337  
     335A      1.216514   336A      1.224421   337A      1.228685  
     338A      1.228962   339A      1.231927   340A      1.242170  
     341A      1.242851   342A      1.252350   343A      1.264841  
     344A      1.269622   345A      1.282859   346A      1.300192  
     347A      1.302031   348A      1.304300   349A      1.305428  
     350A      1.319167   351A      1.321966   352A      1.330289  
     353A      1.332836   354A      1.350452   355A      1.357154  
     356A      1.363104   357A      1.367806   358A      1.376240  
     359A      1.377730   360A      1.383297   361A      1.391228  
     362A      1.397112   363A      1.404627   364A      1.410551  
     365A      1.417151   366A      1.420244   367A      1.428697  
     368A      1.454164   369A      1.465081   370A      1.470935  
     371A      1.472583   372A      1.480220   373A      1.486778  
     374A      1.498515   375A      1.498810   376A      1.506054  
     377A      1.515245   378A      1.521819   379A      1.530793  
     380A      1.539029   381A      1.539587   382A      1.546876  
     383A      1.556481   384A      1.561697   385A      1.564797  
     386A      1.570593   387A      1.580227   388A      1.586248  
     389A      1.596644   390A      1.608104   391A      1.616961  
     392A      1.620537   393A      1.626190   394A      1.637539  
     395A      1.639753   396A      1.650198   397A      1.654894  
     398A      1.661888   399A      1.674773   400A      1.688790  
     401A      1.697035   402A      1.701084   403A      1.714163  
     404A      1.719282   405A      1.719644   406A      1.726803  
     407A      1.733120   408A      1.737626   409A      1.738339  
     410A      1.757110   411A      1.757248   412A      1.763179  
     413A      1.787398   414A      1.794810   415A      1.804985  
     416A      1.819517   417A      1.821922   418A      1.834376  
     419A      1.837520   420A      1.846876   421A      1.852406  
     422A      1.855787   423A      1.862562   424A      1.865026  
     425A      1.869665   426A      1.870484   427A      1.871335  
     428A      1.897201   429A      1.897482   430A      1.909138  
     431A      1.914993   432A      1.917083   433A      1.923786  
     434A      1.927661   435A      1.941528   436A      1.945790  
     437A      1.962102   438A      1.980282   439A      1.981216  
     440A      1.997342   441A      2.006017   442A      2.011973  
     443A      2.025560   444A      2.029510   445A      2.040602  
     446A      2.043038   447A      2.052504   448A      2.055322  
     449A      2.060249   450A      2.067319   451A      2.069659  
     452A      2.075456   453A      2.079255   454A      2.091856  
     455A      2.105367   456A      2.109180   457A      2.114407  
     458A      2.131111   459A      2.142386   460A      2.149657  
     461A      2.167889   462A      2.170812   463A      2.196478  
     464A      2.199178   465A      2.201813   466A      2.209682  
     467A      2.213172   468A      2.222819   469A      2.227144  
     470A      2.252570   471A      2.260110   472A      2.260273  
     473A      2.269039   474A      2.285265   475A      2.295361  
     476A      2.305548   477A      2.309802   478A      2.330447  
     479A      2.340566   480A      2.351352   481A      2.353416  
     482A      2.357416   483A      2.367896   484A      2.373270  
     485A      2.401430   486A      2.408891   487A      2.413270  
     488A      2.425987   489A      2.443172   490A      2.445407  
     491A      2.458301   492A      2.469404   493A      2.488931  
     494A      2.493304   495A      2.511044   496A      2.528326  
     497A      2.537147   498A      2.538725   499A      2.551862  
     500A      2.578279   501A      2.599858   502A      2.605645  
     503A      2.616411   504A      2.620308   505A      2.623892  
     506A      2.641070   507A      2.682033   508A      2.684746  
     509A      2.707796   510A      2.721239   511A      2.746139  
     512A      2.759012   513A      2.767307   514A      2.773337  
     515A      2.805433   516A      2.816836   517A      2.836309  
     518A      2.855261   519A      2.874032   520A      2.887656  
     521A      2.916225   522A      2.932531   523A      2.943637  
     524A      2.945038   525A      2.973356   526A      2.999621  
     527A      3.014627   528A      3.021391   529A      3.025250  
     530A      3.028480   531A      3.041419   532A      3.049120  
     533A      3.065360   534A      3.080070   535A      3.093903  
     536A      3.100310   537A      3.113909   538A      3.145283  
     539A      3.150859   540A      3.159772   541A      3.180487  
     542A      3.189320   543A      3.192774   544A      3.193825  
     545A      3.209817   546A      3.214318   547A      3.226893  
     548A      3.232462   549A      3.255123   550A      3.266975  
     551A      3.282891   552A      3.283704   553A      3.293464  
     554A      3.295262   555A      3.301181   556A      3.309589  
     557A      3.312180   558A      3.334097   559A      3.352999  
     560A      3.354823   561A      3.358514   562A      3.359450  
     563A      3.378224   564A      3.387286   565A      3.392146  
     566A      3.401515   567A      3.404237   568A      3.424586  
     569A      3.434074   570A      3.434998   571A      3.448575  
     572A      3.460378   573A      3.463227   574A      3.479355  
     575A      3.486473   576A      3.488558   577A      3.506034  
     578A      3.521496   579A      3.527388   580A      3.529550  
     581A      3.540114   582A      3.547661   583A      3.563858  
     584A      3.565510   585A      3.567214   586A      3.582314  
     587A      3.585196   588A      3.607654   589A      3.615574  
     590A      3.619450   591A      3.625553   592A      3.638813  
     593A      3.644359   594A      3.654051   595A      3.663733  
     596A      3.671141   597A      3.686436   598A      3.689222  
     599A      3.696065   600A      3.700017   601A      3.715868  
     602A      3.726941   603A      3.734224   604A      3.746658  
     605A      3.759104   606A      3.760327   607A      3.768322  
     608A      3.769978   609A      3.795320   610A      3.797525  
     611A      3.799593   612A      3.808362   613A      3.818443  
     614A      3.820307   615A      3.827401   616A      3.833808  
     617A      3.849334   618A      3.852222   619A      3.859078  
     620A      3.861067   621A      3.873766   622A      3.897546  
     623A      3.904170   624A      3.914439   625A      3.916035  
     626A      3.934708   627A      3.940685   628A      3.950954  
     629A      3.965706   630A      3.972804   631A      3.986784  
     632A      3.998755   633A      4.007390   634A      4.011817  
     635A      4.021554   636A      4.025388   637A      4.038459  
     638A      4.041902   639A      4.059211   640A      4.071604  
     641A      4.073679   642A      4.082608   643A      4.085466  
     644A      4.091579   645A      4.097880   646A      4.105000  
     647A      4.123432   648A      4.129932   649A      4.147323  
     650A      4.155946   651A      4.159523   652A      4.163700  
     653A      4.176420   654A      4.178072   655A      4.181471  
     656A      4.192014   657A      4.203405   658A      4.203882  
     659A      4.207737   660A      4.208397   661A      4.222572  
     662A      4.238678   663A      4.248198   664A      4.262247  
     665A      4.267659   666A      4.271691   667A      4.281674  
     668A      4.286199   669A      4.294017   670A      4.299706  
     671A      4.304332   672A      4.331172   673A      4.341881  
     674A      4.357312   675A      4.362985   676A      4.374187  
     677A      4.383037   678A      4.387153   679A      4.402861  
     680A      4.407829   681A      4.424500   682A      4.442625  
     683A      4.449193   684A      4.454623   685A      4.467398  
     686A      4.473296   687A      4.479357   688A      4.485589  
     689A      4.502059   690A      4.505107   691A      4.510131  
     692A      4.525509   693A      4.536335   694A      4.540584  
     695A      4.568018   696A      4.587607   697A      4.594475  
     698A      4.597321   699A      4.619179   700A      4.627729  
     701A      4.641298   702A      4.643221   703A      4.668647  
     704A      4.672339   705A      4.676477   706A      4.688955  
     707A      4.707912   708A      4.740527   709A      4.745971  
     710A      4.751602   711A      4.769232   712A      4.784327  
     713A      4.791192   714A      4.794530   715A      4.809458  
     716A      4.817127   717A      4.826680   718A      4.865805  
     719A      4.876939   720A      4.881423   721A      4.890535  
     722A      4.903083   723A      4.926169   724A      4.935268  
     725A      4.950798   726A      4.960160   727A      4.960213  
     728A      4.979821   729A      4.993021   730A      4.995543  
     731A      4.998036   732A      5.016845   733A      5.026629  
     734A      5.030472   735A      5.042026   736A      5.054858  
     737A      5.059980   738A      5.079185   739A      5.101569  
     740A      5.122287   741A      5.148165   742A      5.155972  
     743A      5.180218   744A      5.195539   745A      5.221011  
     746A      5.222813   747A      5.236310   748A      5.266736  
     749A      5.273136   750A      5.297170   751A      5.318751  
     752A      5.321280   753A      5.341442   754A      5.382603  
     755A      5.384559   756A      5.404540   757A      5.424140  
     758A      5.433159   759A      5.449102   760A      5.456077  
     761A      5.478233   762A      5.511676   763A      5.519981  
     764A      5.536713   765A      5.591008   766A      5.613928  
     767A      5.619341   768A      5.632062   769A      5.643261  
     770A      5.652050   771A      5.678559   772A      5.697094  
     773A      5.707000   774A      5.743331   775A      5.795519  
     776A      5.807263   777A      5.821601   778A      5.842825  
     779A      5.880509   780A      5.888712   781A      5.964902  
     782A      5.994977   783A      5.996322   784A      6.051631  
     785A      6.103420   786A      6.128478   787A      6.144136  
     788A      6.196579   789A      6.213344   790A      6.278903  
     791A      6.297806   792A      6.341870   793A      6.352400  
     794A      6.398600   795A      6.440439   796A      6.493044  
     797A      6.521727   798A      6.527379   799A      6.587363  
     800A      6.593493   801A      6.638276   802A      6.666614  
     803A      6.719539   804A      6.776730   805A      6.778952  
     806A      6.797636   807A      6.826806   808A      6.856365  
     809A      6.882589   810A      6.945083   811A      6.973206  
     812A      6.992944   813A      7.106955   814A      7.147157  
     815A      7.305394   816A      7.307696   817A      7.404275  
     818A      7.486357   819A      7.561440   820A      7.567887  
     821A      7.596560   822A      7.645475   823A      7.906343  
     824A      8.280539   825A      8.533310   826A      8.961301  
     827A      9.113731   828A      9.159022   829A      9.279344  
     830A      9.301688   831A      9.396934   832A      9.509285  
     833A      9.524275   834A      9.577359   835A      9.612421  
     836A     10.004364   837A     10.049199   838A     15.943113  
     839A     16.183382   840A     16.580892   841A     16.988076  
     842A     17.221489   843A     17.581607   844A     18.839165  
     845A     19.602776   846A     19.958763   847A     20.218604  
     848A     20.830376   849A     20.930234   850A     21.218072  
     851A     21.301937  

    Final Occupation by Irrep:
              A 
    DOCC [    49 ]

  Energy converged.

  @DF-RHF Final Energy:  -650.54859743712416

   => Energetics <=

    Nuclear Repulsion Energy =            833.5537457469906713
    One-Electron Energy =               -2526.9885152243559787
    Two-Electron Energy =                1042.8861720402412629
    DFT Exchange-Correlation Energy =       0.0000000000000000
    Empirical Dispersion Energy =           0.0000000000000000
    PCM Polarization Energy =               0.0000000000000000
    EFP Energy =                            0.0000000000000000
    Total Energy =                       -650.5485974371240445



Properties will be evaluated at   0.000000,   0.000000,   0.000000 Bohr

Properties computed using the SCF density matrix

  Nuclear Dipole Moment: (a.u.)
     X:     1.2755      Y:    -0.4918      Z:    -6.6422

  Electronic Dipole Moment: (a.u.)
     X:     1.2802      Y:    -0.8551      Z:     4.6663

  Dipole Moment: (a.u.)
     X:     2.5558      Y:    -1.3469      Z:    -1.9759     Total:     3.5000

  Dipole Moment: (Debye)
     X:     6.4961      Y:    -3.4234      Z:    -5.0223     Total:     8.8962


*** tstop() called on gpu-2-9.local at Sat Nov 11 18:25:43 2017
Module time:
	user time   =    1353.39 seconds =      22.56 minutes
	system time =      55.69 seconds =       0.93 minutes
	total time  =        562 seconds =       9.37 minutes
Total time:
	user time   =    1353.39 seconds =      22.56 minutes
	system time =      55.69 seconds =       0.93 minutes
	total time  =        562 seconds =       9.37 minutes

  //>>>>>>>>>>>>>>>>>>>>>>>>>>>>>>>>>>>//
  //               DFMP2               //
  //<<<<<<<<<<<<<<<<<<<<<<<<<<<<<<<<<<<//

   => Loading Basis Set <=

    Name: (AUG-CC-PVTZ AUX)
    Role: RIFIT
    Keyword: DF_BASIS_MP2
    atoms 1-11  entry C          line   147 file /cbio/jclab/home/chayas/anaconda/envs/py35/share/psi4/basis/aug-cc-pvtz-ri.gbs 
    atoms 12    entry N          line   205 file /cbio/jclab/home/chayas/anaconda/envs/py35/share/psi4/basis/aug-cc-pvtz-ri.gbs 
    atoms 13    entry O          line   263 file /cbio/jclab/home/chayas/anaconda/envs/py35/share/psi4/basis/aug-cc-pvtz-ri.gbs 
    atoms 14    entry F          line   321 file /cbio/jclab/home/chayas/anaconda/envs/py35/share/psi4/basis/aug-cc-pvtz-ri.gbs 
    atoms 15-23 entry H          line    29 file /cbio/jclab/home/chayas/anaconda/envs/py35/share/psi4/basis/aug-cc-pvtz-ri.gbs 

	 --------------------------------------------------------
	                          DF-MP2                         
	      2nd-Order Density-Fitted Moller-Plesset Theory     
	              RMP2 Wavefunction,   8 Threads             
	                                                         
	        Rob Parrish, Justin Turney, Andy Simmonett,      
	           Ed Hohenstein, and C. David Sherrill          
	 --------------------------------------------------------

   => Auxiliary Basis Set <=

  Basis Set: (AUG-CC-PVTZ AUX)
    Blend: AUG-CC-PVTZ-RI
    Number of shells: 518
    Number of basis function: 1898
    Number of Cartesian functions: 2399
    Spherical Harmonics?: true
    Max angular momentum: 4

	 --------------------------------------------------------
	                 NBF =   851, NAUX =  1898
	 --------------------------------------------------------
	   CLASS    FOCC     OCC    AOCC    AVIR     VIR    FVIR
	   PAIRS       0      49      49     802     802       0
	 --------------------------------------------------------


         ------------------------------------------------------------
                                     CPHF                           
                                  Rob Parrish                       
         ------------------------------------------------------------

  ==> Geometry <==

    Molecular point group: c1
    Full point group: C1

    Geometry (in Angstrom), charge = 1, multiplicity = 1:

       Center              X                  Y                   Z               Mass       
    ------------   -----------------  -----------------  -----------------  -----------------
           C         -1.338161770144     0.763795481512    -0.788362621860    12.000000000000
           C         -2.416161770144     1.336795481512    -0.115362621860    12.000000000000
           C          1.850838229856    -1.019204518488    -0.057362621860    12.000000000000
           C          0.854838229856    -0.402204518488    -2.162362621860    12.000000000000
           C         -1.423161770144     0.720795481512     1.999637378140    12.000000000000
           C          2.908838229856    -1.580204518488    -0.757362621860    12.000000000000
           C          1.937838229856    -0.979204518488    -2.809362621860    12.000000000000
           C         -0.302161770144     0.168795481512    -0.068362621860    12.000000000000
           C          0.814838229856    -0.425204518488    -0.771362621860    12.000000000000
           C         -2.459161770144     1.315795481512     1.278637378140    12.000000000000
           C         -0.345161770144     0.147795481512     1.325637378140    12.000000000000
           N          2.921838229856    -1.544204518488    -2.097362621860    14.003074004780
           O         -3.512161770144     1.875795481512     1.935637378140    15.994914619560
           F          0.642838229856    -0.420204518488     2.032637378140    18.998403224000
           H         -1.319161770144     0.787795481512    -1.875362621860     1.007825032070
           H         -3.221161770144     1.797795481512    -0.682362621860     1.007825032070
           H          1.845838229856    -1.052204518488     1.028637378140     1.007825032070
           H          0.060838229856     0.054795481512    -2.744362621860     1.007825032070
           H         -1.451161770144     0.700795481512     3.085637378140     1.007825032070
           H          3.754838229856    -2.063204518488    -0.287362621860     1.007825032070
           H          2.052838229856    -1.008204518488    -3.883362621860     1.007825032070
           H          3.709838229856    -1.961204518488    -2.592362621860     1.007825032070
           H         -3.398161770144     1.781795481512     2.894637378140     1.007825032070

  Nuclear repulsion =  833.553745746990671
  Reference energy  = -650.548597437124158

  ==> Basis Set <==

  Basis Set: AUG-CC-PVTZ
    Blend: AUG-CC-PVTZ
    Number of shells: 277
    Number of basis function: 851
    Number of Cartesian functions: 995
    Spherical Harmonics?: true
    Max angular momentum: 3

  ==> CGRSolver (by Rob Parrish) <==

   Number of roots    =         1
   Preconditioning    =    JACOBI
   Convergence cutoff =     1E-06
   Maximum iterations =       100

  ==> CPHFRHamiltonian (by Rob Parrish) <== 

  ==> DFJK: Density-Fitted J/K Matrices <==

    J tasked:                  Yes
    K tasked:                  Yes
    wK tasked:                  No
    OpenMP threads:              8
    Integrals threads:           8
    Memory (MB):              3576
    Algorithm:                Disk
    Integral Cache:           NONE
    Schwarz Cutoff:          1E-12
    Fitting Condition:       1E-12

   => Auxiliary Basis Set <=

  Basis Set: (AUG-CC-PVTZ AUX)
    Blend: AUG-CC-PVTZ-JKFIT
    Number of shells: 546
    Number of basis function: 1870
    Number of Cartesian functions: 2329
    Spherical Harmonics?: true
    Max angular momentum: 4

  ==> CPHF Iterations <==

  => Iterations <=

             Iter  Converged  Remaining    Residual
  CGR           1          0          1   1.278E-01
  CGR           2          0          1   5.145E-02
  CGR           3          0          1   3.031E-02
  CGR           4          0          1   1.011E-02
  CGR           5          0          1   4.741E-03
  CGR           6          0          1   2.105E-03
  CGR           7          0          1   6.674E-04
  CGR           8          0          1   2.935E-04
  CGR           9          0          1   1.288E-04
  CGR          10          0          1   4.643E-05
  CGR          11          0          1   1.817E-05
  CGR          12          0          1   5.940E-06
  CGR          13          0          1   2.043E-06
  CGR          14          1          0   6.748E-07

    CGRSolver converged.

  ==> DFCorrGrad: Density-Fitted Correlated Gradients <==

    OpenMP threads:              8
    Integrals threads:           8
    Memory (MB):              3576
    Schwarz Cutoff:          0E+00
    Fitting Condition:       1E-12

   => Auxiliary Basis Set <=

  Basis Set: (AUG-CC-PVTZ AUX)
    Blend: AUG-CC-PVTZ-JKFIT
    Number of shells: 546
    Number of basis function: 1870
    Number of Cartesian functions: 2329
    Spherical Harmonics?: true
    Max angular momentum: 4

	-----------------------------------------------------------
	 ==================> DF-MP2 Energies <==================== 
	-----------------------------------------------------------
	 Reference Energy          =    -650.5485974371241582 [Eh]
	 Singles Energy            =      -0.0000000000000002 [Eh]
	 Same-Spin Energy          =      -0.6713173560093146 [Eh]
	 Opposite-Spin Energy      =      -2.0175468823205307 [Eh]
	 Correlation Energy        =      -2.6888642383298453 [Eh]
	 Total Energy              =    -653.2374616754540284 [Eh]
	-----------------------------------------------------------
	 ================> DF-SCS-MP2 Energies <================== 
	-----------------------------------------------------------
	 SCS Same-Spin Scale       =       0.3333333333333333 [-]
	 SCS Opposite-Spin Scale   =       1.2000000000000000 [-]
	 SCS Same-Spin Energy      =      -0.2237724520031049 [Eh]
	 SCS Opposite-Spin Energy  =      -2.4210562587846369 [Eh]
	 SCS Correlation Energy    =      -2.6448287107877420 [Eh]
	 SCS Total Energy          =    -653.1934261479118504 [Eh]
	-----------------------------------------------------------


  -Total Gradient:
     Atom            X                  Y                   Z
    ------   -----------------  -----------------  -----------------
       1        0.017845400906    -0.009277674203    -0.014919714296
       2       -0.000720202383     0.000047380060     0.012517202746
       3       -0.028246567442     0.015404439544     0.010385005064
       4       -0.017340203011     0.009235478614     0.013200043170
       5       -0.013524025488     0.007417911561     0.000658891978
       6        0.003313369753    -0.001452039328    -0.009448860875
       7        0.012994504759    -0.007442889772     0.004487652447
       8       -0.015908157330     0.008529733448     0.006695458862
       9        0.014983696907    -0.008125133496    -0.010283815434
      10        0.001685922478    -0.000445990530    -0.014792381325
      11        0.030326327121    -0.016655972386    -0.000984181006
      12       -0.004036286871     0.002188828979     0.000458327054
      13       -0.008876767771     0.004601917128     0.009891633767
      14        0.016344888609    -0.008437555425    -0.017977733659
      15        0.003016930965    -0.001351636353    -0.010153746346
      16       -0.003298750115     0.001907665592    -0.005150091425
      17       -0.007956295721     0.003702761222     0.020009956742
      18       -0.009019239804     0.005041832258    -0.001058292247
      19       -0.001481537477     0.000647765206     0.004498529204
      20        0.002819784577    -0.001639503807    -0.000196474185
      21        0.001627733186    -0.000854506322    -0.001777167736
      22        0.005376851488    -0.002776538249    -0.002985238099
      23        0.000072622670    -0.000266273736     0.006924995599


*** tstop() called on gpu-2-9.local at Sat Nov 11 19:06:48 2017
Module time:
	user time   =    6535.58 seconds =     108.93 minutes
	system time =     120.85 seconds =       2.01 minutes
	total time  =       3027 seconds =      50.45 minutes
Total time:
	user time   =    6535.58 seconds =     108.93 minutes
	system time =     120.85 seconds =       2.01 minutes
	total time  =       3027 seconds =      50.45 minutes

			-----------------------------------------
			 OPTKING 2.0: for geometry optimizations 
			  - R.A. King,  Bethel University        
			-----------------------------------------

	Internal coordinates to be generated automatically.
	Detected frag 1 with atoms:  1 2 3 4 5 6 7 8 9 10 11 12 13 14 15 16 17 18 19 20
	 21 22 23
	---Fragment 1 Bond Connectivity---
	 1 : 2 8 15
	 2 : 1 10 16
	 3 : 6 9 17
	 4 : 7 9 18
	 5 : 10 11 19
	 6 : 3 12 20
	 7 : 4 12 21
	 8 : 1 9 11
	 9 : 3 4 8
	 10 : 2 5 13
	 11 : 5 8 14
	 12 : 6 7 22
	 13 : 10 23
	 14 : 11
	 15 : 1
	 16 : 2
	 17 : 3
	 18 : 4
	 19 : 5
	 20 : 6
	 21 : 7
	 22 : 12
	 23 : 13

	Assuming in current code that numbering for constraints corresponds to unified fragment.
	Fixed dihedral atom list: 
	     1     8     9     3
	---Fragment 1 Geometry and Gradient---
	 C          -2.5287592671        1.4433642816       -1.4897894487
	 C          -4.5658840383        2.5261773557       -0.2180037613
	 C           3.4975773707       -1.9260174133       -0.1083996456
	 C           1.6154101423       -0.7600563894       -4.0862731553
	 C          -2.6893859884        1.3621060579        3.7787670098
	 C           5.4969076193       -2.9861537739       -1.4312079386
	 C           3.6619835443       -1.8504283680       -5.3089259633
	 C          -0.5710029934        0.3189772325       -0.1291866330
	 C           1.5398210970       -0.8035200904       -1.4576641045
	 C          -4.6471422620        2.4864931069        2.4162744680
	 C          -0.6522612171        0.2792929837        2.5050915962
	 N           5.5214740590       -2.9181236331       -3.9634409567
	 O          -6.6370238800        3.5447397414        3.6578245373
	 F           1.2147882022       -0.7940714597        3.8411279722
	 H          -2.4928544705        1.4887177088       -3.5439217552
	 H          -6.0871135753        3.3973411030       -1.2894784786
	 H           3.4881287400       -1.9883783757        1.9438429347
	 H           0.1149675928        0.1035484534       -5.1860937646
	 H          -2.7422983201        1.3243115352        5.8310095901
	 H           7.0956159277       -3.8988914961       -0.5430366561
	 H           3.8793020495       -1.9052304259       -7.3384918300
	 H           7.0105782517       -3.7061394305       -4.8988553924
	 H          -6.4215951008        3.3671054849        5.4700718987
	             0.0178454009       -0.0092776742       -0.0149197143
	            -0.0007202024        0.0000473801        0.0125172027
	            -0.0282465674        0.0154044395        0.0103850051
	            -0.0173402030        0.0092354786        0.0132000432
	            -0.0135240255        0.0074179116        0.0006588920
	             0.0033133698       -0.0014520393       -0.0094488609
	             0.0129945048       -0.0074428898        0.0044876524
	            -0.0159081573        0.0085297334        0.0066954589
	             0.0149836969       -0.0081251335       -0.0102838154
	             0.0016859225       -0.0004459905       -0.0147923813
	             0.0303263271       -0.0166559724       -0.0009841810
	            -0.0040362869        0.0021888290        0.0004583271
	            -0.0088767678        0.0046019171        0.0098916338
	             0.0163448886       -0.0084375554       -0.0179777337
	             0.0030169310       -0.0013516364       -0.0101537463
	            -0.0032987501        0.0019076656       -0.0051500914
	            -0.0079562957        0.0037027612        0.0200099567
	            -0.0090192398        0.0050418323       -0.0010582922
	            -0.0014815375        0.0006477652        0.0044985292
	             0.0028197846       -0.0016395038       -0.0001964742
	             0.0016277332       -0.0008545063       -0.0017771677
	             0.0053768515       -0.0027765382       -0.0029852381
	             0.0000726227       -0.0002662737        0.0069249956

	Previous optimization step data not found.  Starting new optimization.

	---Fragment 1 Intrafragment Coordinates---
	 - Coordinate -           - BOHR/RAD -       - ANG/DEG -
	 R(1,2)           =         2.634350	       1.394038
	 R(1,8)           =         2.635962	       1.394891
	 R(1,15)          =         2.054947	       1.087431
	 R(2,10)          =         2.635830	       1.394821
	 R(2,16)          =         2.054537	       1.087214
	 R(3,6)           =         2.621265	       1.387114
	 R(3,9)           =         2.629320	       1.391376
	 R(3,17)          =         2.053212	       1.086513
	 R(4,7)           =         2.621498	       1.387237
	 R(4,9)           =         2.630055	       1.391765
	 R(4,18)          =         2.051035	       1.085361
	 R(5,10)          =         2.636938	       1.395407
	 R(5,11)          =         2.635263	       1.394521
	 R(5,19)          =         2.053272	       1.086545
	 R(6,12)          =         2.533266	       1.340547
	 R(6,20)          =         2.043968	       1.081621
	 R(7,12)          =         2.531404	       1.339561
	 R(7,21)          =         2.041903	       1.080529
	 R(8,9)           =         2.735038	       1.447320
	 R(8,11)          =         2.635830	       1.394821
	 R(10,13)         =         2.573123	       1.361638
	 R(11,14)         =         2.534359	       1.341125
	 R(12,22)         =         1.927019	       1.019734
	 R(13,23)         =         1.833631	       0.970316
	 B(1,2,10)        =         2.094553	     120.009056
	 B(1,2,16)        =         2.088723	     119.675016
	 B(1,8,9)         =         2.091569	     119.838095
	 B(1,8,11)        =         2.093692	     119.959722
	 B(2,1,8)         =         2.094940	     120.031219
	 B(2,1,15)        =         2.079469	     119.144799
	 B(2,10,5)        =         2.094306	     119.994870
	 B(2,10,13)       =         2.094247	     119.991510
	 B(3,6,12)        =         2.095521	     120.064513
	 B(3,6,20)        =         2.162646	     123.910494
	 B(3,9,4)         =         2.092703	     119.903071
	 B(3,9,8)         =         2.095096	     120.040185
	 B(4,7,12)        =         2.095556	     120.066536
	 B(4,7,21)        =         2.162563	     123.905724
	 B(4,9,8)         =         2.095385	     120.056725
	 B(5,10,13)       =         2.094633	     120.013619
	 B(5,11,8)        =         2.095181	     120.045019
	 B(5,11,14)       =         2.081414	     119.256220
	 B(6,3,9)         =         2.073297	     118.791147
	 B(6,3,17)        =         2.089360	     119.711504
	 B(6,12,7)        =         2.135900	     122.378084
	 B(6,12,22)       =         2.073430	     118.798762
	 B(7,4,9)         =         2.073392	     118.796621
	 B(7,4,18)        =         2.089961	     119.745920
	 B(7,12,22)       =         2.073855	     118.823123
	 B(8,1,15)        =         2.108776	     120.823969
	 B(8,11,14)       =         2.106591	     120.698759
	 B(9,3,17)        =         2.120528	     121.497323
	 B(9,4,18)        =         2.119833	     121.457458
	 B(9,8,11)        =         2.097924	     120.202184
	 B(10,2,16)       =         2.099909	     120.315896
	 B(10,5,11)       =         2.093699	     119.960108
	 B(10,5,19)       =         2.100355	     120.341451
	 B(10,13,23)      =         1.924294	     110.253909
	 B(11,5,19)       =         2.089132	     119.698439
	 B(12,6,20)       =         2.025018	     116.024960
	 B(12,7,21)       =         2.025066	     116.027727
	 D(1,2,10,5)      =        -0.000325	      -0.018609
	 D(1,2,10,13)     =         3.141388	     179.988267
	 D(1,8,9,3)       =         3.141006	     179.966395
	 D(1,8,9,4)       =         0.000288	       0.016483
	 D(1,8,11,5)      =         0.000325	       0.018608
	 D(1,8,11,14)     =        -3.141528	    -179.996269
	 D(2,1,8,9)       =         3.141277	     179.981897
	 D(2,1,8,11)      =        -0.000348	      -0.019945
	 D(2,10,5,11)     =         0.000301	       0.017261
	 D(2,10,5,19)     =        -3.141029	    -179.967685
	 D(2,10,13,23)    =         3.141285	     179.982383
	 D(3,6,12,7)      =        -0.000522	      -0.029895
	 D(3,6,12,22)     =         3.139944	     179.905553
	 D(3,9,4,7)       =         0.000843	       0.048329
	 D(3,9,4,18)      =        -3.141000	    -179.966053
	 D(3,9,8,11)      =        -0.000554	      -0.031759
	 D(4,7,12,6)      =         0.000902	       0.051656
	 D(4,7,12,22)     =        -3.139564	    -179.883777
	 D(4,9,3,6)       =        -0.000478	      -0.027379
	 D(4,9,3,17)      =        -3.141035	    -179.968073
	 D(4,9,8,11)      =        -3.141273	    -179.981671
	 D(5,10,2,16)     =         3.140149	     179.917291
	 D(5,10,13,23)    =        -0.000187	      -0.010740
	 D(5,11,8,9)      =        -3.141300	    -179.983240
	 D(6,3,9,8)       =        -3.141198	    -179.977368
	 D(6,12,7,21)     =        -3.141374	    -179.987481
	 D(7,4,9,8)       =         3.141563	     179.998310
	 D(7,12,6,20)     =         3.139956	     179.906254
	 D(8,1,2,10)      =         0.000348	       0.019955
	 D(8,1,2,16)      =        -3.140133	    -179.916358
	 D(8,9,3,17)      =         0.001430	       0.081938
	 D(8,9,4,18)      =        -0.000281	      -0.016073
	 D(8,11,5,10)     =        -0.000301	      -0.017270
	 D(8,11,5,19)     =         3.141030	     179.967774
	 D(9,3,6,12)      =         0.000301	       0.017273
	 D(9,3,6,20)      =        -3.140085	    -179.913590
	 D(9,4,7,12)      =        -0.001046	      -0.059957
	 D(9,4,7,21)      =         3.141286	     179.982415
	 D(9,8,1,15)      =         0.000403	       0.023110
	 D(9,8,11,14)     =         0.000033	       0.001883
	 D(10,2,1,15)     =         3.141234	     179.979432
	 D(10,5,11,14)    =         3.141547	     179.997392
	 D(11,5,10,13)    =        -3.141411	    -179.989616
	 D(11,8,1,15)     =        -3.141221	    -179.978731
	 D(12,6,3,17)     =         3.140878	     179.959051
	 D(12,7,4,18)     =         3.140793	     179.954173
	 D(13,10,2,16)    =        -0.001324	      -0.075833
	 D(13,10,5,19)    =         0.000444	       0.025437
	 D(14,11,5,19)    =        -0.000307	      -0.017564
	 D(15,1,2,16)     =         0.000753	       0.043120
	 D(17,3,6,20)     =         0.000492	       0.028187
	 D(18,4,7,21)     =        -0.000060	      -0.003454
	 D(20,6,12,22)    =        -0.002763	      -0.158299
	 D(21,7,12,22)    =         0.001345	       0.077087
	 R(3,14)          =         4.700127	       2.487200

	Current energy   :      -653.2374616755

	Generating empirical Hessian (Schlegel '84) for each fragment.
	Adding user-defined constraint: Fragment 1; Coordinate 64:
		Value =     3.141006; Fixed value    =    -3.141575
		Force =    -3.141291; Force constant =     0.500000
	Removing off-diagonal coupling between coordinate 64 and others.
	Taking RFO optimization step.
	Going to follow RFO solution 1.
	Using RFO vector 1.

	Determining step-restricting scale parameter for RS-RFO.
	Maximum step size allowed    0.10000

	 Iter      |step|        alpha        rfo_root  
	------------------------------------------------
	    0     0.94858       1.00000           1
	    1     0.57036       2.88876           1
	    2     0.35122       7.80605           1
	    3     0.22555      19.18813           1
	    4     0.15525      40.81073           1
	    5     0.11869      70.09895           1
	    6     0.10351      92.31320           1
	    7     0.10017      98.60761           1
	    8     0.10000      98.94262           1
	------------------------------------------------
	Norm of target step-size    0.10000
	Projected energy change by RFO approximation:        -0.1979560359

	Back-transformation to cartesian coordinates...
	Successfully converged to displaced geometry.

	--- Internal Coordinate Step in ANG or DEG, aJ/ANG or AJ/DEG ---
	 ---------------------------------------------------------------------------
	   Coordinate                Previous        Force       Change         New 
	   ----------                --------       ------       ------       ------
	    1 R(1,2)          =      1.394038    -0.119037    -0.000377     1.393661
	    2 R(1,8)          =      1.394891     0.054772     0.000191     1.395082
	    3 R(1,15)         =      1.087431    -0.083810    -0.000268     1.087163
	    4 R(2,10)         =      1.394821    -0.054074    -0.000188     1.394633
	    5 R(2,16)         =      1.087214    -0.048916    -0.000156     1.087058
	    6 R(3,6)          =      1.387114    -0.091940    -0.000281     1.386833
	    7 R(3,9)          =      1.391376     0.141667     0.000459     1.391836
	    8 R(3,17)         =      1.086513    -0.164154    -0.000524     1.085989
	    9 R(4,7)          =      1.387237    -0.129284    -0.000421     1.386816
	   10 R(4,9)          =      1.391765     0.102142     0.000323     1.392088
	   11 R(4,18)         =      1.085361    -0.076524    -0.000244     1.085117
	   12 R(5,10)         =      1.395407    -0.045152    -0.000160     1.395247
	   13 R(5,11)         =      1.394521    -0.152441    -0.000485     1.394036
	   14 R(5,19)         =      1.086545    -0.037259    -0.000119     1.086426
	   15 R(6,12)         =      1.340547     0.001168     0.000005     1.340551
	   16 R(6,20)         =      1.081621    -0.023500    -0.000075     1.081546
	   17 R(7,12)         =      1.339561     0.005030     0.000006     1.339568
	   18 R(7,21)         =      1.080529    -0.016169    -0.000052     1.080477
	   19 R(8,9)          =      1.447320     0.105802     0.000336     1.447655
	   20 R(8,11)         =      1.394821    -0.029972    -0.000080     1.394741
	   21 R(10,13)        =      1.361638    -0.137635    -0.000436     1.361202
	   22 R(11,14)        =      1.341125    -0.046895    -0.000148     1.340977
	   23 R(12,22)        =      1.019734    -0.055525    -0.000176     1.019558
	   24 R(13,23)        =      0.970316    -0.056669    -0.000179     0.970137
	   25 B(1,2,10)       =    120.009056    -0.000083    -0.002178   120.006878
	   26 B(1,2,16)       =    119.675016     0.000226     0.014419   119.689436
	   27 B(1,8,9)        =    119.838095     0.001212     0.046865   119.884959
	   28 B(1,8,11)       =    119.959722    -0.001469    -0.072875   119.886847
	   29 B(2,1,8)        =    120.031219     0.000670     0.034865   120.066084
	   30 B(2,1,15)       =    119.144799    -0.000587    -0.023853   119.120947
	   31 B(2,10,5)       =    119.994870     0.000003    -0.006807   119.988063
	   32 B(2,10,13)      =    119.991510    -0.000921    -0.032408   119.959102
	   33 B(3,6,12)       =    120.064513     0.000114    -0.008236   120.056278
	   34 B(3,6,20)       =    123.910494    -0.000184    -0.018940   123.891554
	   35 B(3,9,4)        =    119.903071    -0.001215    -0.025091   119.877980
	   36 B(3,9,8)        =    120.040185     0.000793    -0.019171   120.021014
	   37 B(4,7,12)       =    120.066536    -0.000149    -0.016021   120.050515
	   38 B(4,7,21)       =    123.905724    -0.000051    -0.011966   123.893758
	   39 B(4,9,8)        =    120.056725     0.000394     0.028678   120.085402
	   40 B(5,10,13)      =    120.013619     0.000919     0.039076   120.052695
	   41 B(5,11,8)       =    120.045019     0.001155     0.051434   120.096453
	   42 B(5,11,14)      =    119.256220    -0.000433    -0.015500   119.240720
	   43 B(6,3,9)        =    118.791147     0.000325     0.000591   118.791738
	   44 B(6,3,17)       =    119.711504    -0.000860    -0.049463   119.662041
	   45 B(6,12,7)       =    122.378084     0.000115     0.027176   122.405260
	   46 B(6,12,22)      =    118.798762    -0.000036    -0.019647   118.779116
	   47 B(7,4,9)        =    118.796621     0.000803     0.017949   118.814569
	   48 B(7,4,18)       =    119.745920    -0.000763    -0.034293   119.711627
	   49 B(7,12,22)      =    118.823123    -0.000083    -0.007895   118.815228
	   50 B(8,1,15)       =    120.823969    -0.000085    -0.011123   120.812846
	   51 B(8,11,14)      =    120.698759    -0.000723    -0.036010   120.662750
	   52 B(9,3,17)       =    121.497323     0.000533     0.048742   121.546065
	   53 B(9,4,18)       =    121.457458    -0.000040     0.016272   121.473730
	   54 B(9,8,11)       =    120.202184     0.000256     0.011514   120.213697
	   55 B(10,2,16)      =    120.315896    -0.000141    -0.012215   120.303681
	   56 B(10,5,11)      =    119.960108    -0.000280    -0.007851   119.952257
	   57 B(10,5,19)      =    120.341451     0.000262     0.002925   120.344376
	   58 B(10,13,23)     =    110.253909    -0.000118    -0.010912   110.242996
	   59 B(11,5,19)      =    119.698439     0.000018     0.004887   119.703325
	   60 B(12,6,20)      =    116.024960     0.000073     0.027200   116.052160
	   61 B(12,7,21)      =    116.027727     0.000198     0.027850   116.055577
	   62 D(1,2,10,5)     =     -0.018609     0.000708     0.116403     0.097794
	   63 D(1,2,10,13)    =    179.988267    -0.000159    -0.026156   179.962111
	   64 D(1,8,9,3)      =    179.966395    -0.022142    -3.639132   176.327262
	   65 D(1,8,9,4)      =      0.016483    -0.013693    -2.250683    -2.234200
	   66 D(1,8,11,5)     =      0.018608     0.003934     0.646053     0.664660
	   67 D(1,8,11,14)    =   -179.996269     0.003403     0.558726  -179.437543
	   68 D(2,1,8,9)      =    179.981897     0.004471     0.734572   180.716469
	   69 D(2,1,8,11)     =     -0.019945    -0.003930    -0.645473    -0.665418
	   70 D(2,10,5,11)    =      0.017261    -0.000705    -0.115962    -0.098700
	   71 D(2,10,5,19)    =   -179.967685    -0.001246    -0.204926  -180.172611
	   72 D(2,10,13,23)   =    179.982383     0.000434     0.071328   180.053711
	   73 D(3,6,12,7)     =     -0.029895     0.000727     0.119486     0.089591
	   74 D(3,6,12,22)    =    179.905553    -0.000292    -0.047901   179.857652
	   75 D(3,9,4,7)      =      0.048329     0.003948     0.648633     0.696962
	   76 D(3,9,4,18)     =   -179.966053     0.003430     0.563567  -179.402486
	   77 D(3,9,8,11)     =     -0.031759    -0.013720    -2.254523    -2.286282
	   78 D(4,7,12,6)     =      0.051656    -0.000727    -0.119441    -0.067785
	   79 D(4,7,12,22)    =   -179.883777     0.000292     0.048011  -179.835766
	   80 D(4,9,3,6)      =     -0.027379    -0.003947    -0.648433    -0.675812
	   81 D(4,9,3,17)     =   -179.968073    -0.003430    -0.563305  -180.531378
	   82 D(4,9,8,11)     =   -179.981671    -0.005271    -0.866074  -180.847745
	   83 D(5,10,2,16)    =    179.917291     0.001245     0.204600   180.121891
	   84 D(5,10,13,23)   =     -0.010740    -0.000434    -0.071320    -0.082060
	   85 D(5,11,8,9)     =   -179.983240    -0.004498    -0.738581  -180.721822
	   86 D(6,3,9,8)      =   -179.977368     0.004488     0.737092  -179.240276
	   87 D(6,12,7,21)    =   -179.987481    -0.001311    -0.215511  -180.202991
	   88 D(7,4,9,8)      =    179.998310    -0.004489    -0.737816   179.260493
	   89 D(7,12,6,20)    =    179.906254     0.001312     0.215568   180.121822
	   90 D(8,1,2,10)     =      0.019955     0.001611     0.264840     0.284795
	   91 D(8,1,2,16)     =   -179.916358     0.001078     0.177205  -179.739154
	   92 D(8,9,3,17)     =      0.081938     0.005006     0.822219     0.904157
	   93 D(8,9,4,18)     =     -0.016073    -0.005007    -0.822883    -0.838955
	   94 D(8,11,5,10)    =     -0.017270    -0.001617    -0.265835    -0.283105
	   95 D(8,11,5,19)    =    179.967774    -0.001079    -0.177445   179.790329
	   96 D(9,3,6,12)     =      0.017273     0.001627     0.267347     0.284620
	   97 D(9,3,6,20)     =   -179.913590     0.000994     0.163328  -179.750262
	   98 D(9,4,7,12)     =     -0.059957    -0.001627    -0.267402    -0.327359
	   99 D(9,4,7,21)     =    179.982415    -0.000994    -0.163444   179.818971
	  100 D(9,8,1,15)     =      0.023110     0.005005     0.822412     0.845523
	  101 D(9,8,11,14)    =      0.001883    -0.005029    -0.825907    -0.824025
	  102 D(10,2,1,15)    =    179.979432     0.001085     0.178488   180.157920
	  103 D(10,5,11,14)   =    179.997392    -0.001094    -0.179746   179.817647
	  104 D(11,5,10,13)   =   -179.989616     0.000163     0.026727  -179.962889
	  105 D(11,8,1,15)    =   -179.978731    -0.003396    -0.557633  -180.536364
	  106 D(12,6,3,17)    =    179.959051     0.001119     0.183919   180.142969
	  107 D(12,7,4,18)    =    179.954173    -0.001118    -0.183876   179.770297
	  108 D(13,10,2,16)   =     -0.075833     0.000377     0.062041    -0.013792
	  109 D(13,10,5,19)   =      0.025437    -0.000379    -0.062238    -0.036800
	  110 D(14,11,5,19)   =     -0.017564    -0.000556    -0.091355    -0.108919
	  111 D(15,1,2,16)    =      0.043120     0.000552     0.090852     0.133972
	  112 D(17,3,6,20)    =      0.028187     0.000486     0.079899     0.108087
	  113 D(18,4,7,21)    =     -0.003454    -0.000486    -0.079918    -0.083373
	  114 D(20,6,12,22)   =     -0.158299     0.000293     0.048182    -0.110117
	  115 D(21,7,12,22)   =      0.077087    -0.000292    -0.048059     0.029028
	  116 R(3,14)         =      2.487200     0.218118     0.000709     2.487909
	 ---------------------------------------------------------------------------
	Successfully symmetrized geometry.
	 Forces used to impose fixed constraints are not included.
	  Forces zeroed: 64 

  ==> Convergence Check <==

  Measures of convergence in internal coordinates in au.
  Criteria marked as inactive (o), active & met (*), and active & unmet ( ).
  --------------------------------------------------------------------------------------------- ~
   Step     Total Energy     Delta E     MAX Force     RMS Force      MAX Disp      RMS Disp    ~
  --------------------------------------------------------------------------------------------- ~
    Convergence Criteria    1.00e-06 *    3.00e-04 *             o    1.20e-03 *             o  ~
  --------------------------------------------------------------------------------------------- ~
      1    -653.23746168   -6.53e+02      7.86e-01      1.43e-01 o    6.35e-02      9.29e-03 o  ~
  ---------------------------------------------------------------------------------------------

	Writing optimization data to binary file.
	Structure for next step:
	Cartesian Geometry (in Angstrom)
	    C    -1.3390052099   0.7640269565  -0.7873841352
	    C    -2.4033793900   1.3600989510  -0.1135174601
	    C     1.8602314774  -1.0017631962  -0.0578396520
	    C     0.8212784491  -0.4642224218  -2.1642936780
	    C    -1.4119019959   0.7399348942   2.0005403128
	    C     2.9193151981  -1.5600184633  -0.7578384396
	    C     1.9063706816  -1.0364354447  -2.8111366576
	    C    -0.3133380531   0.1491331951  -0.0689369452
	    C     0.7982176939  -0.4552287451  -0.7724256291
	    C    -2.4410394501   1.3475574909   1.2805506422
	    C    -0.3477779028   0.1440142394   1.3253692580
	    N     2.9114584483  -1.5619801540  -2.0983650909
	    O    -3.4806999516   1.9307144727   1.9377460129
	    F     0.6355128307  -0.4326620755   2.0316295253
	    H    -1.3229072179   0.7844591321  -1.8742362304
	    H    -3.2014536683   1.8337877700  -0.6795490628
	    H     1.8743061903  -1.0015566262   1.0280577964
	    H     0.0118972386  -0.0367717588  -2.7471030263
	    H    -1.4339733687   0.7292521066   3.0866895850
	    H     3.7829511135  -2.0099107685  -0.2872296096
	    H     2.0074269979  -1.0906012577  -3.8855128348
	    H     3.7010957546  -1.9755779079  -2.5932468455
	    H    -3.3643065792   1.8410456858   2.8966918617
			--------------------------
			 OPTKING Finished Execution 
			--------------------------

    Structure for next step:
    Molecular point group: c1
    Full point group: C1

    Geometry (in Angstrom), charge = 1, multiplicity = 1:

    C           -1.338102231450     0.765598763000    -0.787333055066
    C           -2.402476411510     1.361670757515    -0.113466379977
    C            1.861134455852    -1.000191389733    -0.057788571824
    C            0.822181427581    -0.462650615309    -2.164242597866
    C           -1.410999017417     0.741506700720     2.000591392914
    C            2.920218176629    -1.558446656812    -0.757787359417
    C            1.907273660148    -1.034863638185    -2.811085577456
    C           -0.312435074572     0.150705001592    -0.068885865045
    C            0.799120672391    -0.453656938588    -0.772374548965
    C           -2.440136471585     1.349129297384     1.280601722376
    C           -0.346874924279     0.145586045885     1.325420338120
    N            2.912361426809    -1.560408347490    -2.098314010704
    O           -3.479796973058     1.932286279224     1.937797093071
    F            0.636415809217    -0.431090269014     2.031680605459
    H           -1.322004239403     0.786030938538    -1.874185150251
    H           -3.200550689789     1.835359576496    -0.679497982650
    H            1.875209168785    -0.999984819762     1.028108876530
    H            0.012800217105    -0.035199952271    -2.747051946104
    H           -1.433070390226     0.730823913095     3.086740665126
    H            3.783854092017    -2.008338962043    -0.287178529486
    H            2.008329976422    -1.089029451223    -3.885461754622
    H            3.701998733129    -1.974006101402    -2.593195765398
    H           -3.363403600658     1.842617492333     2.896742941897

gradient() will perform analytic gradient computation.

*** tstart() called on gpu-2-9.local
*** at Sat Nov 11 19:06:50 2017

    SCF Algorithm Type (re)set to DF.

*** tstart() called on gpu-2-9.local
*** at Sat Nov 11 19:06:50 2017

   => Loading Basis Set <=

    Name: AUG-CC-PVTZ
    Role: ORBITAL
    Keyword: BASIS
    atoms 1-11  entry C          line   221 file /cbio/jclab/home/chayas/anaconda/envs/py35/share/psi4/basis/aug-cc-pvtz.gbs 
    atoms 12    entry N          line   267 file /cbio/jclab/home/chayas/anaconda/envs/py35/share/psi4/basis/aug-cc-pvtz.gbs 
    atoms 13    entry O          line   313 file /cbio/jclab/home/chayas/anaconda/envs/py35/share/psi4/basis/aug-cc-pvtz.gbs 
    atoms 14    entry F          line   359 file /cbio/jclab/home/chayas/anaconda/envs/py35/share/psi4/basis/aug-cc-pvtz.gbs 
    atoms 15-23 entry H          line    34 file /cbio/jclab/home/chayas/anaconda/envs/py35/share/psi4/basis/aug-cc-pvtz.gbs 


         ---------------------------------------------------------
                                   SCF
            by Justin Turney, Rob Parrish, and Andy Simmonett
                              RHF Reference
                        8 Threads,   4768 MiB Core
         ---------------------------------------------------------

  ==> Geometry <==

    Molecular point group: c1
    Full point group: C1

    Geometry (in Angstrom), charge = 1, multiplicity = 1:

       Center              X                  Y                   Z               Mass       
    ------------   -----------------  -----------------  -----------------  -----------------
           C         -1.338102231450     0.765598763000    -0.787333055066    12.000000000000
           C         -2.402476411510     1.361670757515    -0.113466379977    12.000000000000
           C          1.861134455852    -1.000191389733    -0.057788571824    12.000000000000
           C          0.822181427581    -0.462650615309    -2.164242597866    12.000000000000
           C         -1.410999017417     0.741506700720     2.000591392914    12.000000000000
           C          2.920218176629    -1.558446656812    -0.757787359417    12.000000000000
           C          1.907273660148    -1.034863638185    -2.811085577456    12.000000000000
           C         -0.312435074572     0.150705001592    -0.068885865045    12.000000000000
           C          0.799120672391    -0.453656938588    -0.772374548965    12.000000000000
           C         -2.440136471585     1.349129297384     1.280601722376    12.000000000000
           C         -0.346874924279     0.145586045885     1.325420338120    12.000000000000
           N          2.912361426809    -1.560408347490    -2.098314010704    14.003074004780
           O         -3.479796973058     1.932286279224     1.937797093071    15.994914619560
           F          0.636415809217    -0.431090269014     2.031680605459    18.998403224000
           H         -1.322004239403     0.786030938538    -1.874185150251     1.007825032070
           H         -3.200550689789     1.835359576496    -0.679497982650     1.007825032070
           H          1.875209168785    -0.999984819762     1.028108876530     1.007825032070
           H          0.012800217105    -0.035199952271    -2.747051946104     1.007825032070
           H         -1.433070390226     0.730823913095     3.086740665126     1.007825032070
           H          3.783854092017    -2.008338962043    -0.287178529486     1.007825032070
           H          2.008329976422    -1.089029451223    -3.885461754622     1.007825032070
           H          3.701998733129    -1.974006101402    -2.593195765398     1.007825032070
           H         -3.363403600658     1.842617492333     2.896742941897     1.007825032070

  Running in c1 symmetry.

  Rotational constants: A =      0.06292  B =      0.01345  C =      0.01108 [cm^-1]
  Rotational constants: A =   1886.34667  B =    403.29195  C =    332.31887 [MHz]
  Nuclear repulsion =  833.566226425899686

  Charge       = 1
  Multiplicity = 1
  Electrons    = 98
  Nalpha       = 49
  Nbeta        = 49

  ==> Algorithm <==

  SCF Algorithm Type is DF.
  DIIS enabled.
  MOM disabled.
  Fractional occupation disabled.
  Guess Type is READ.
  Energy threshold   = 1.00e-10
  Density threshold  = 1.00e-10
  Integral threshold = 0.00e+00

  ==> Primary Basis <==

  Basis Set: AUG-CC-PVTZ
    Blend: AUG-CC-PVTZ
    Number of shells: 277
    Number of basis function: 851
    Number of Cartesian functions: 995
    Spherical Harmonics?: true
    Max angular momentum: 3

   => Loading Basis Set <=

    Name: (AUG-CC-PVTZ AUX)
    Role: JKFIT
    Keyword: DF_BASIS_SCF
    atoms 1-11  entry C          line   161 file /cbio/jclab/home/chayas/anaconda/envs/py35/share/psi4/basis/aug-cc-pvtz-jkfit.gbs 
    atoms 12    entry N          line   223 file /cbio/jclab/home/chayas/anaconda/envs/py35/share/psi4/basis/aug-cc-pvtz-jkfit.gbs 
    atoms 13    entry O          line   285 file /cbio/jclab/home/chayas/anaconda/envs/py35/share/psi4/basis/aug-cc-pvtz-jkfit.gbs 
    atoms 14    entry F          line   347 file /cbio/jclab/home/chayas/anaconda/envs/py35/share/psi4/basis/aug-cc-pvtz-jkfit.gbs 
    atoms 15-23 entry H          line    69 file /cbio/jclab/home/chayas/anaconda/envs/py35/share/psi4/basis/aug-cc-pvtz-jkfit.gbs 

  Reading orbitals from file 180, no projection.

  ==> Pre-Iterations <==

   -------------------------------------------------------
    Irrep   Nso     Nmo     Nalpha   Nbeta   Ndocc  Nsocc
   -------------------------------------------------------
     A        851     851       0       0       0       0
   -------------------------------------------------------
    Total     851     851      49      49      49       0
   -------------------------------------------------------

  ==> Integral Setup <==

  ==> DFJK: Density-Fitted J/K Matrices <==

    J tasked:                  Yes
    K tasked:                  Yes
    wK tasked:                  No
    OpenMP threads:              8
    Integrals threads:           8
    Memory (MB):              3576
    Algorithm:                Disk
    Integral Cache:           NONE
    Schwarz Cutoff:          1E-12
    Fitting Condition:       1E-12

   => Auxiliary Basis Set <=

  Basis Set: (AUG-CC-PVTZ AUX)
    Blend: AUG-CC-PVTZ-JKFIT
    Number of shells: 546
    Number of basis function: 1870
    Number of Cartesian functions: 2329
    Spherical Harmonics?: true
    Max angular momentum: 4

  Minimum eigenvalue in the overlap matrix is 3.2575862567E-07.
  Using Symmetric Orthogonalization.

  SCF Guess: Orbitals guess was supplied from a previous computation.

  ==> Iterations <==

                           Total Energy        Delta E     RMS |[F,P]|

   @DF-RHF iter   0:  -650.55734343954475   -6.50557e+02   6.87392e-04 
   @DF-RHF iter   1:  -650.54838061708085    8.96282e-03   7.51629e-05 
   @DF-RHF iter   2:  -650.54895746200270   -5.76845e-04   2.30253e-05 DIIS
   @DF-RHF iter   3:  -650.54903415847446   -7.66965e-05   1.18012e-05 DIIS
   @DF-RHF iter   4:  -650.54904889594934   -1.47375e-05   4.85241e-06 DIIS
   @DF-RHF iter   5:  -650.54905107931620   -2.18337e-06   1.43927e-06 DIIS
   @DF-RHF iter   6:  -650.54905137030710   -2.90991e-07   4.46093e-07 DIIS
   @DF-RHF iter   7:  -650.54905139131006   -2.10030e-08   1.38180e-07 DIIS
   @DF-RHF iter   8:  -650.54905139351706   -2.20700e-09   5.48135e-08 DIIS
   @DF-RHF iter   9:  -650.54905139385994   -3.42880e-10   1.17634e-08 DIIS
   @DF-RHF iter  10:  -650.54905139388279   -2.28511e-11   4.77406e-09 DIIS
   @DF-RHF iter  11:  -650.54905139384255    4.02451e-11   1.63193e-09 DIIS
   @DF-RHF iter  12:  -650.54905139388154   -3.89946e-11   6.92702e-10 DIIS
   @DF-RHF iter  13:  -650.54905139387233    9.20863e-12   2.88953e-10 DIIS
   @DF-RHF iter  14:  -650.54905139387233    0.00000e+00   1.33267e-10 DIIS
   @DF-RHF iter  15:  -650.54905139387893   -6.59384e-12   5.36776e-11 DIIS

  ==> Post-Iterations <==

    Orbital Energies (a.u.)
    -----------------------

    Doubly Occupied:                                                      

       1A    -26.461820     2A    -20.716692     3A    -15.828040  
       4A    -11.482733     5A    -11.480022     6A    -11.476818  
       7A    -11.452276     8A    -11.446450     9A    -11.412636  
      10A    -11.399477    11A    -11.393751    12A    -11.384662  
      13A    -11.370764    14A    -11.362797    15A     -1.786870  
      16A     -1.530966    17A     -1.505991    18A     -1.325735  
      19A     -1.273773    20A     -1.232237    21A     -1.167894  
      22A     -1.163423    23A     -1.070471    24A     -1.057531  
      25A     -1.000533    26A     -0.977495    27A     -0.955328  
      28A     -0.908074    29A     -0.881625    30A     -0.865012  
      31A     -0.849873    32A     -0.848114    33A     -0.833134  
      34A     -0.804976    35A     -0.777435    36A     -0.774518  
      37A     -0.771461    38A     -0.759231    39A     -0.720058  
      40A     -0.716052    41A     -0.707528    42A     -0.687144  
      43A     -0.652482    44A     -0.650605    45A     -0.649259  
      46A     -0.574409    47A     -0.532284    48A     -0.479720  
      49A     -0.447853  

    Virtual:                                                              

      50A     -0.106679    51A     -0.082150    52A     -0.061503  
      53A     -0.061211    54A     -0.057095    55A     -0.044838  
      56A     -0.040315    57A     -0.039473    58A     -0.031356  
      59A     -0.022785    60A     -0.021057    61A     -0.019547  
      62A     -0.008727    63A     -0.007797    64A     -0.004657  
      65A     -0.000852    66A      0.004502    67A      0.007495  
      68A      0.010019    69A      0.014725    70A      0.021247  
      71A      0.023735    72A      0.024063    73A      0.030204  
      74A      0.031599    75A      0.031952    76A      0.035463  
      77A      0.041013    78A      0.045183    79A      0.048486  
      80A      0.053366    81A      0.058074    82A      0.060005  
      83A      0.063564    84A      0.064607    85A      0.069154  
      86A      0.076086    87A      0.080172    88A      0.085404  
      89A      0.087990    90A      0.093198    91A      0.095745  
      92A      0.099519    93A      0.102372    94A      0.107016  
      95A      0.108821    96A      0.112222    97A      0.128814  
      98A      0.133663    99A      0.137603   100A      0.139324  
     101A      0.140960   102A      0.142886   103A      0.145366  
     104A      0.147290   105A      0.149169   106A      0.156560  
     107A      0.160965   108A      0.162780   109A      0.167644  
     110A      0.170109   111A      0.172785   112A      0.178194  
     113A      0.179884   114A      0.188036   115A      0.188708  
     116A      0.190081   117A      0.196922   118A      0.198921  
     119A      0.207536   120A      0.208283   121A      0.214909  
     122A      0.217853   123A      0.221545   124A      0.227578  
     125A      0.232051   126A      0.235017   127A      0.236554  
     128A      0.237581   129A      0.246498   130A      0.247406  
     131A      0.249326   132A      0.254314   133A      0.255149  
     134A      0.260665   135A      0.264905   136A      0.267317  
     137A      0.276703   138A      0.281120   139A      0.285926  
     140A      0.292654   141A      0.298169   142A      0.302098  
     143A      0.303727   144A      0.307397   145A      0.310686  
     146A      0.312494   147A      0.314939   148A      0.317860  
     149A      0.324985   150A      0.326150   151A      0.327583  
     152A      0.332694   153A      0.335590   154A      0.339320  
     155A      0.343140   156A      0.346079   157A      0.349271  
     158A      0.351096   159A      0.354679   160A      0.355982  
     161A      0.360301   162A      0.366381   163A      0.367737  
     164A      0.372760   165A      0.377555   166A      0.381504  
     167A      0.387092   168A      0.391150   169A      0.393427  
     170A      0.400490   171A      0.404003   172A      0.405537  
     173A      0.410472   174A      0.412732   175A      0.414285  
     176A      0.417639   177A      0.418859   178A      0.424993  
     179A      0.431954   180A      0.434954   181A      0.437239  
     182A      0.442234   183A      0.448730   184A      0.452033  
     185A      0.456446   186A      0.459816   187A      0.462558  
     188A      0.467755   189A      0.476950   190A      0.486267  
     191A      0.490500   192A      0.494004   193A      0.501866  
     194A      0.509180   195A      0.513164   196A      0.530317  
[...]

  ==> Geometry <==

    Molecular point group: c1
    Full point group: C1

    Geometry (in Angstrom), charge = 1, multiplicity = 1:

       Center              X                  Y                   Z               Mass       
    ------------   -----------------  -----------------  -----------------  -----------------
           C         -1.236089992014     0.953268419300    -0.760992206406    12.000000000000
           C         -2.181027473809     1.681722698411    -0.045994945085    12.000000000000
           C          1.889364008195    -0.733213257262    -0.064921279596    12.000000000000
           C          0.718878696229    -0.793306524030    -2.165903922382    12.000000000000
           C         -1.467360637129     0.597147119779     1.983456194123    12.000000000000
           C          3.039059802575    -1.129204911586    -0.727858713345    12.000000000000
           C          1.895959312966    -1.188529442339    -2.776739426338    12.000000000000
           C         -0.447397737762    -0.019247261979    -0.124746745559    12.000000000000
           C          0.684118646689    -0.626543096094    -0.777142468568    12.000000000000
           C         -2.307691628283     1.495731996753     1.327231770264    12.000000000000
           C         -0.530368563574    -0.124640794335     1.254147715076    12.000000000000
           N          3.008562890080    -1.354545520622    -2.048118839864    14.003074004780
           O         -3.227600710483     2.215624638351     2.019247161886    15.994914619560
           F          0.305998133210    -0.968466167314     1.879803645494    18.998403224000
           H         -1.134228208039     1.138463741393    -1.826740970969     1.007825032070
           H         -2.808059803668     2.406959299044    -0.561499649447     1.007825032070
           H          1.940141108400    -0.534007393521     0.998915810054     1.007825032070
           H         -0.167111553684    -0.635321999273    -2.773133567305     1.007825032070
           H         -1.529830355670     0.467209524745     3.059582589052     1.007825032070
           H          3.999482460635    -1.262924592405    -0.242214099267     1.007825032070
           H          1.991493869124    -1.364194004749    -3.838797082907     1.007825032070
           H          3.867846767698    -1.637318301425    -2.516849116565     1.007825032070
           H         -3.189714918721     1.986872447243     2.960403769555     1.007825032070

  Nuclear repulsion =  834.864410469723907
  Reference energy  = -650.551229419369747

  ==> Basis Set <==

  Basis Set: AUG-CC-PVTZ
    Blend: AUG-CC-PVTZ
    Number of shells: 277
    Number of basis function: 851
    Number of Cartesian functions: 995
    Spherical Harmonics?: true
    Max angular momentum: 3

  ==> CGRSolver (by Rob Parrish) <==

   Number of roots    =         1
   Preconditioning    =    JACOBI
   Convergence cutoff =     1E-06
   Maximum iterations =       100

  ==> CPHFRHamiltonian (by Rob Parrish) <== 

  ==> DFJK: Density-Fitted J/K Matrices <==

    J tasked:                  Yes
    K tasked:                  Yes
    wK tasked:                  No
    OpenMP threads:              8
    Integrals threads:           8
    Memory (MB):              3576
    Algorithm:                Disk
    Integral Cache:           NONE
    Schwarz Cutoff:          1E-12
    Fitting Condition:       1E-12

   => Auxiliary Basis Set <=

  Basis Set: (AUG-CC-PVTZ AUX)
    Blend: AUG-CC-PVTZ-JKFIT
    Number of shells: 546
    Number of basis function: 1870
    Number of Cartesian functions: 2329
    Spherical Harmonics?: true
    Max angular momentum: 4

  ==> CPHF Iterations <==

  => Iterations <=

             Iter  Converged  Remaining    Residual
  CGR           1          0          1   1.277E-01
  CGR           2          0          1   5.156E-02
  CGR           3          0          1   3.021E-02
  CGR           4          0          1   1.015E-02
  CGR           5          0          1   4.694E-03
  CGR           6          0          1   2.049E-03
  CGR           7          0          1   6.362E-04
  CGR           8          0          1   2.672E-04
  CGR           9          0          1   1.153E-04
  CGR          10          0          1   4.438E-05
  CGR          11          0          1   1.826E-05
  CGR          12          0          1   6.172E-06
  CGR          13          0          1   2.138E-06
  CGR          14          1          0   7.025E-07

    CGRSolver converged.

  ==> DFCorrGrad: Density-Fitted Correlated Gradients <==

    OpenMP threads:              8
    Integrals threads:           8
    Memory (MB):              3576
    Schwarz Cutoff:          0E+00
    Fitting Condition:       1E-12

   => Auxiliary Basis Set <=

  Basis Set: (AUG-CC-PVTZ AUX)
    Blend: AUG-CC-PVTZ-JKFIT
    Number of shells: 546
    Number of basis function: 1870
    Number of Cartesian functions: 2329
    Spherical Harmonics?: true
    Max angular momentum: 4

	-----------------------------------------------------------
	 ==================> DF-MP2 Energies <==================== 
	-----------------------------------------------------------
	 Reference Energy          =    -650.5512294193697471 [Eh]
	 Singles Energy            =      -0.0000000000000002 [Eh]
	 Same-Spin Energy          =      -0.6707368584649589 [Eh]
	 Opposite-Spin Energy      =      -2.0160403199559900 [Eh]
	 Correlation Energy        =      -2.6867771784209489 [Eh]
	 Total Energy              =    -653.2380065977906725 [Eh]
	-----------------------------------------------------------
	 ================> DF-SCS-MP2 Energies <================== 
	-----------------------------------------------------------
	 SCS Same-Spin Scale       =       0.3333333333333333 [-]
	 SCS Opposite-Spin Scale   =       1.2000000000000000 [-]
	 SCS Same-Spin Energy      =      -0.2235789528216530 [Eh]
	 SCS Opposite-Spin Energy  =      -2.4192483839471879 [Eh]
	 SCS Correlation Energy    =      -2.6428273367688409 [Eh]
	 SCS Total Energy          =    -653.1940567561385933 [Eh]
	-----------------------------------------------------------


  -Total Gradient:
     Atom            X                  Y                   Z
    ------   -----------------  -----------------  -----------------
       1        0.014562867806     0.004555858307    -0.005002262035
       2       -0.001190781286    -0.002397399865     0.011288171155
       3       -0.015411260999     0.014056591344     0.009524131867
       4       -0.007354169195     0.009879222369     0.002624476335
       5       -0.009828619874     0.008558427790    -0.001006351911
       6        0.000602775575    -0.001516091100    -0.011441968124
       7        0.008500295244    -0.002042046316     0.005426161775
       8       -0.010096917376    -0.009059273398     0.000458062171
       9       -0.007172485135    -0.023382633147     0.006389215835
      10        0.001218249112     0.000285993777    -0.012864944516
      11        0.022808476209    -0.010128393631    -0.007771587395
      12       -0.001281565412     0.000992295589     0.002070262753
      13       -0.006467826104     0.005119823988     0.007656989306
      14        0.013745904424     0.002021724018    -0.011673840186
      15       -0.000580673189     0.001218077815    -0.005481128769
      16       -0.003892889416     0.003823189467    -0.005108499194
      17       -0.004245398380    -0.000235449259     0.011146710900
      18       -0.004663610088     0.002517111444    -0.002773334670
      19       -0.001083461835     0.000571117208     0.004223205614
      20        0.004733699540    -0.001857895084     0.001024393874
      21        0.001551089602    -0.000664573952    -0.002084973517
      22        0.005359713608    -0.001205965499    -0.002311183178
      23        0.000186587149    -0.001109711864     0.005688291916


*** tstop() called on gpu-2-9.local at Sun Nov 12 07:20:50 2017
Module time:
	user time   =    6327.48 seconds =     105.46 minutes
	system time =     112.30 seconds =       1.87 minutes
	total time  =       2973 seconds =      49.55 minutes
Total time:
	user time   =   99962.09 seconds =    1666.03 minutes
	system time =    1761.36 seconds =      29.36 minutes
	total time  =      47069 seconds =     784.48 minutes

			-----------------------------------------
			 OPTKING 2.0: for geometry optimizations 
			  - R.A. King,  Bethel University        
			-----------------------------------------

	Previous internal coordinate definitions found.
	---Fragment 1 Geometry and Gradient---
	 C          -2.3358715605        1.8014162436       -1.4380668594
	 C          -4.1215446138        3.1779953315       -0.0869178497
	 C           3.5703805408       -1.3855722532       -0.1226834386
	 C           1.3584838586       -1.4991320698       -4.0929652434
	 C          -2.7729097424        1.1284445174        3.7481890035
	 C           5.7429907283       -2.1338880308       -1.3754536317
	 C           3.5828438606       -2.2459951469       -5.2472770582
	 C          -0.8454591968       -0.0363720539       -0.2357371851
	 C           1.2927968846       -1.1839948621       -1.4685864318
	 C          -4.3609051766        2.8265238421        2.5081045607
	 C          -1.0022513346       -0.2355369663        2.3699957117
	 N           5.6853599158       -2.5597200685       -3.8703836949
	 O          -6.0992814091        4.1869237798        3.8158241306
	 F           0.5782526689       -1.8301358252        3.5523140736
	 H          -2.1433806854        2.1513846835       -3.4520401509
	 H          -5.3064639937        4.5484938882       -1.0610805612
	 H           3.6663353540       -1.0091277267        1.8876773108
	 H          -0.3157950701       -1.2005845848       -5.2404629721
	 H          -2.8909604020        0.8828980484        5.7817731743
	 H           7.5579265239       -2.3865816061       -0.4577183131
	 H           3.7633780080       -2.5779530611       -7.2542751664
	 H           7.3091711149       -3.0940831821       -4.7561555481
	 H          -6.0276876384        3.7546447863        5.5943523672
	             0.0145628678        0.0045558583       -0.0050022620
	            -0.0011907813       -0.0023973999        0.0112881712
	            -0.0154112610        0.0140565913        0.0095241319
	            -0.0073541692        0.0098792224        0.0026244763
	            -0.0098286199        0.0085584278       -0.0010063519
	             0.0006027756       -0.0015160911       -0.0114419681
	             0.0085002952       -0.0020420463        0.0054261618
	            -0.0100969174       -0.0090592734        0.0004580622
	            -0.0071724851       -0.0233826331        0.0063892158
	             0.0012182491        0.0002859938       -0.0128649445
	             0.0228084762       -0.0101283936       -0.0077715874
	            -0.0012815654        0.0009922956        0.0020702628
	            -0.0064678261        0.0051198240        0.0076569893
	             0.0137459044        0.0020217240       -0.0116738402
	            -0.0005806732        0.0012180778       -0.0054811288
	            -0.0038928894        0.0038231895       -0.0051084992
	            -0.0042453984       -0.0002354493        0.0111467109
	            -0.0046636101        0.0025171114       -0.0027733347
	            -0.0010834618        0.0005711172        0.0042232056
	             0.0047336995       -0.0018578951        0.0010243939
	             0.0015510896       -0.0006645740       -0.0020849735
	             0.0053597136       -0.0012059655       -0.0023111832
	             0.0001865871       -0.0011097119        0.0056882919

	---Fragment 1 Intrafragment Coordinates---
	 - Coordinate -           - BOHR/RAD -       - ANG/DEG -
	 R(1,2)           =         2.628536	       1.390961
	 R(1,8)           =         2.654127	       1.404504
	 R(1,15)          =         2.053197	       1.086505
	 R(2,10)          =         2.629632	       1.391542
	 R(2,16)          =         2.057011	       1.088523
	 R(3,6)           =         2.617183	       1.384953
	 R(3,9)           =         2.653201	       1.404014
	 R(3,17)          =         2.047552	       1.083518
	 R(4,7)           =         2.614960	       1.383777
	 R(4,9)           =         2.644048	       1.399170
	 R(4,18)          =         2.051607	       1.085664
	 R(5,10)          =         2.634960	       1.394361
	 R(5,11)          =         2.625851	       1.389540
	 R(5,19)          =         2.051754	       1.085741
	 R(6,12)          =         2.531666	       1.339700
	 R(6,20)          =         2.049411	       1.084501
	 R(7,12)          =         2.532752	       1.340275
	 R(7,21)          =         2.042261	       1.080718
	 R(8,9)           =         2.721965	       1.440402
	 R(8,11)          =         2.618033	       1.385403
	 R(10,13)         =         2.565691	       1.357705
	 R(11,14)         =         2.537443	       1.342757
	 R(12,22)         =         1.925331	       1.018841
	 R(13,23)         =         1.831708	       0.969298
	 B(1,2,10)        =         2.093362	     119.940783
	 B(1,2,16)        =         2.090721	     119.789467
	 B(1,8,9)         =         2.126906	     121.862713
	 B(1,8,11)        =         2.059997	     118.029158
	 B(2,1,8)         =         2.107436	     120.747163
	 B(2,1,15)        =         2.069895	     118.596263
	 B(2,10,5)        =         2.089450	     119.716651
	 B(2,10,13)       =         2.087240	     119.590033
	 B(3,6,12)        =         2.095460	     120.060989
	 B(3,6,20)        =         2.160435	     123.783784
	 B(3,9,4)         =         2.063625	     118.237013
	 B(3,9,8)         =         2.067600	     118.464741
	 B(4,7,12)        =         2.096170	     120.101692
	 B(4,7,21)        =         2.159669	     123.739896
	 B(4,9,8)         =         2.116856	     121.286911
	 B(5,10,13)       =         2.106165	     120.674341
	 B(5,11,8)        =         2.121466	     121.551060
	 B(5,11,14)       =         2.096580	     120.125187
	 B(6,3,9)         =         2.084625	     119.440218
	 B(6,3,17)        =         2.075607	     118.923515
	 B(6,12,7)        =         2.133895	     122.263196
	 B(6,12,22)       =         2.072444	     118.742301
	 B(7,4,9)         =         2.086694	     119.558772
	 B(7,4,18)        =         2.081564	     119.264849
	 B(7,12,22)       =         2.076473	     118.973139
	 B(8,1,15)        =         2.105665	     120.645730
	 B(8,11,14)       =         2.064924	     118.311408
	 B(9,3,17)        =         2.122715	     121.622598
	 B(9,4,18)        =         2.114767	     121.167217
	 B(9,8,11)        =         2.055302	     117.760105
	 B(10,2,16)       =         2.098980	     120.262716
	 B(10,5,11)       =         2.087627	     119.612198
	 B(10,5,19)       =         2.104713	     120.591195
	 B(10,13,23)      =         1.921205	     110.076960
	 B(11,5,19)       =         2.090751	     119.791199
	 B(12,6,20)       =         2.027204	     116.150262
	 B(12,7,21)       =         2.027210	     116.150580
	 D(1,2,10,5)      =         0.021470	       1.230131
	 D(1,2,10,13)     =         3.135598	     179.656518
	 D(1,8,9,3)       =         2.327980	     133.383418
	 D(1,8,9,4)       =        -0.527082	     -30.199583
	 D(1,8,11,5)      =         0.123795	       7.092959
	 D(1,8,11,14)     =        -3.040086	    -174.184103
	 D(2,1,8,9)       =        -2.956042	    -169.368740
	 D(2,1,8,11)      =        -0.125006	      -7.162331
	 D(2,10,5,11)     =        -0.023610	      -1.352726
	 D(2,10,5,19)     =         3.103189	     177.799616
	 D(2,10,13,23)    =        -3.128049	    -179.224021
	 D(3,6,12,7)      =         0.020575	       1.178838
	 D(3,6,12,22)     =         3.132504	     179.479276
	 D(3,9,4,7)       =         0.113833	       6.522166
	 D(3,9,4,18)      =        -3.047120	    -174.587138
	 D(3,9,8,11)      =        -0.503853	     -28.868639
	 D(4,7,12,6)      =        -0.019656	      -1.126230
	 D(4,7,12,22)     =        -3.131520	    -179.422890
	 D(4,9,3,6)       =        -0.112800	      -6.462985
	 D(4,9,3,17)      =         3.052523	     174.896660
	 D(4,9,8,11)      =         2.924271	     167.548360
	 D(5,10,2,16)     =        -3.103250	    -177.803146
	 D(5,10,13,23)    =        -0.014190	      -0.813018
	 D(5,11,8,9)      =         2.967713	     170.037435
	 D(6,3,9,8)       =        -2.976687	    -170.551601
	 D(6,12,7,21)     =         3.104827	     177.893483
	 D(7,4,9,8)       =         2.969526	     170.141330
	 D(7,12,6,20)     =        -3.107401	    -178.040936
	 D(8,1,2,10)      =         0.054117	       3.100683
	 D(8,1,2,16)      =        -3.104268	    -177.861436
	 D(8,9,3,17)      =         0.188636	      10.808044
	 D(8,9,4,18)      =        -0.191427	     -10.967974
	 D(8,11,5,10)     =        -0.051090	      -2.927257
	 D(8,11,5,19)     =         3.105177	     177.913543
	 D(9,3,6,12)      =         0.047321	       2.711282
	 D(9,3,6,20)      =        -3.108979	    -178.131375
	 D(9,4,7,12)      =        -0.049419	      -2.831506
	 D(9,4,7,21)      =         3.110642	     178.226677
	 D(9,8,1,15)      =         0.206751	      11.845985
	 D(9,8,11,14)     =        -0.196168	     -11.239627
	 D(10,2,1,15)     =        -3.108250	    -178.089580
	 D(10,5,11,14)    =         3.113190	     178.372624
	 D(11,5,10,13)    =        -3.137434	    -179.761728
	 D(11,8,1,15)     =         3.037787	     174.052393
	 D(12,6,3,17)     =        -3.117358	    -178.611470
	 D(12,7,4,18)     =         3.111164	     178.256548
	 D(13,10,2,16)    =         0.010878	       0.623242
	 D(13,10,5,19)    =        -0.010636	      -0.609387
	 D(14,11,5,19)    =        -0.013728	      -0.786576
	 D(15,1,2,16)     =         0.016551	       0.948301
	 D(17,3,6,20)     =         0.009527	       0.545874
	 D(18,4,7,21)     =        -0.011960	      -0.685269
	 D(20,6,12,22)    =         0.004529	       0.259503
	 D(21,7,12,22)    =        -0.007037	      -0.403177
	 R(3,14)          =         4.759840	       2.518799

	Current energy   :      -653.2380065978

	Energy change for the previous step:
		Projected    :        -0.2616437255
		Actual       :         0.0009074142

	Performing BFGS update.
	Previous computed or guess Hessian on step 1.
	Steps to be used in Hessian update: 15 14
	Adding user-defined constraint: Fragment 1; Coordinate 64:
		Value =     2.327980; Fixed value    =    -3.141580
		Force =    -4.785865; Force constant =     0.875000
	Removing off-diagonal coupling between coordinate 64 and others.
	Taking RFO optimization step.
	Going to follow RFO solution 1.
	Using RFO vector 1.

	Determining step-restricting scale parameter for RS-RFO.
	Maximum step size allowed    0.10000

	 Iter      |step|        alpha        rfo_root  
	------------------------------------------------
	    0    35.29014       1.00000           1
	    1    17.53472       1.98188           1
	    2     8.65945       3.89282           1
	    3     4.22675       7.51352           1
	    4     2.02036      14.02555           1
	    5     0.93713      24.64869           1
	    6     0.43212      39.34312           1
	    7     0.22517      55.99830           1
	    8     0.14704      73.53382           1
	    9     0.11510      91.39739           1
	   10     0.10280     103.92738           1
	   11     0.10013     107.41782           1
	   12     0.10000     107.60040           1
	------------------------------------------------
	Norm of target step-size    0.10000
	Projected energy change by RFO approximation:        -0.2684429712

	Back-transformation to cartesian coordinates...
	The INTCO_EXCEPTion handler:
	TORS::compute_val: unable to compute torsion value
	Dynamic level is 0.
	exc.g_really_quit() is 0.

  **** Optimization has failed! (in 16 steps) ****
			--------------------------
			 OPTKING Finished Execution 
			--------------------------
	Cleaning optimization helper files.

*** Psi4 exiting successfully. Buy a developer a beer!
