
    -----------------------------------------------------------------------
          Psi4: An Open-Source Ab Initio Electronic Structure Package
                               Psi4 1.1 release

                         Git: Rev {HEAD} add49b9 


    R. M. Parrish, L. A. Burns, D. G. A. Smith, A. C. Simmonett,
    A. E. DePrince III, E. G. Hohenstein, U. Bozkaya, A. Yu. Sokolov,
    R. Di Remigio, R. M. Richard, J. F. Gonthier, A. M. James,
    H. R. McAlexander, A. Kumar, M. Saitow, X. Wang, B. P. Pritchard,
    P. Verma, H. F. Schaefer III, K. Patkowski, R. A. King, E. F. Valeev,
    F. A. Evangelista, J. M. Turney, T. D. Crawford, and C. D. Sherrill,
    J. Chem. Theory Comput. in press (2017).
    (doi: 10.1021/acs.jctc.7b00174)

    -----------------------------------------------------------------------


    Psi4 started on: Sunday, 12 November 2017 02:03AM

    Process ID:  13146
    PSIDATADIR: /cbio/jclab/home/chayas/anaconda/envs/py35/share/psi4
    Memory:     500.0 MiB
    Threads:    8
    
  ==> Input File <==

--------------------------------------------------------------------------

memory 5 Gb

molecule phepyrFOH_zwitterion {
  symmetry C1
  0 1 
  C      1.885   -1.036   -0.112
  C      0.807   -0.463   0.561
  C      4.634   -1.546   -1.153
  C      4.517   -3.474   0.286
  C      1.800   -1.079   2.676
  C      5.704   -2.139   -1.810
  C      5.589   -4.018   -0.407
  C      2.921   -1.631   0.608
  C      4.038   -2.224   -0.095
  C      0.764   -0.484   1.955
  C      2.878   -1.652   2.002
  N      6.145   -3.344   -1.422
  O      -0.227   0.043   2.574
  F      3.866   -2.220   2.709
  H      1.904   -1.013   -1.200
  H      0.011   -0.007   -0.025
  H      4.282   -0.569   -1.472
  H      4.070   -4.026   1.108
  H      1.791   -1.109   3.764
  H      6.227   -1.686   -2.640
  H      6.026   -4.981   -0.181
  H      6.931   -3.762   -1.919
  units Angstrom
}

dih_string = "1 8 9 3 45"
set optking fixed_dihedral = $dih_string

optimize('MP2/aug-cc-PVTZ')
--------------------------------------------------------------------------

  Memory set to   4.657 GiB by Python driver.
gradient() will perform analytic gradient computation.

*** tstart() called on gpu-1-16.local
*** at Sun Nov 12 02:03:44 2017

    SCF Algorithm Type (re)set to DF.

*** tstart() called on gpu-1-16.local
*** at Sun Nov 12 02:03:44 2017

   => Loading Basis Set <=

    Name: AUG-CC-PVTZ
    Role: ORBITAL
    Keyword: BASIS
    atoms 1-11  entry C          line   221 file /cbio/jclab/home/chayas/anaconda/envs/py35/share/psi4/basis/aug-cc-pvtz.gbs 
    atoms 12    entry N          line   267 file /cbio/jclab/home/chayas/anaconda/envs/py35/share/psi4/basis/aug-cc-pvtz.gbs 
    atoms 13    entry O          line   313 file /cbio/jclab/home/chayas/anaconda/envs/py35/share/psi4/basis/aug-cc-pvtz.gbs 
    atoms 14    entry F          line   359 file /cbio/jclab/home/chayas/anaconda/envs/py35/share/psi4/basis/aug-cc-pvtz.gbs 
    atoms 15-22 entry H          line    34 file /cbio/jclab/home/chayas/anaconda/envs/py35/share/psi4/basis/aug-cc-pvtz.gbs 


         ---------------------------------------------------------
                                   SCF
            by Justin Turney, Rob Parrish, and Andy Simmonett
                              RHF Reference
                        8 Threads,   4768 MiB Core
         ---------------------------------------------------------

  ==> Geometry <==

    Molecular point group: c1
    Full point group: C1

    Geometry (in Angstrom), charge = 0, multiplicity = 1:

       Center              X                  Y                   Z               Mass       
    ------------   -----------------  -----------------  -----------------  -----------------
           C         -1.361586337010     0.775890417175    -0.769319394010    12.000000000000
           C         -2.439586337010     1.348890417175    -0.096319394010    12.000000000000
           C          1.387413662990     0.265890417175    -1.810319394010    12.000000000000
           C          1.270413662990    -1.662109582825    -0.371319394010    12.000000000000
           C         -1.446586337010     0.732890417175     2.018680605990    12.000000000000
           C          2.457413662990    -0.327109582825    -2.467319394010    12.000000000000
           C          2.342413662990    -2.206109582825    -1.064319394010    12.000000000000
           C         -0.325586337010     0.180890417175    -0.049319394010    12.000000000000
           C          0.791413662990    -0.412109582825    -0.752319394010    12.000000000000
           C         -2.482586337010     1.327890417175     1.297680605990    12.000000000000
           C         -0.368586337010     0.159890417175     1.344680605990    12.000000000000
           N          2.898413662990    -1.532109582825    -2.079319394010    14.003074004780
           O         -3.473586337010     1.854890417175     1.916680605990    15.994914619560
           F          0.619413662990    -0.408109582825     2.051680605990    18.998403224000
           H         -1.342586337010     0.798890417175    -1.857319394010     1.007825032070
           H         -3.235586337010     1.804890417175    -0.682319394010     1.007825032070
           H          1.035413662990     1.242890417175    -2.129319394010     1.007825032070
           H          0.823413662990    -2.214109582825     0.450680605990     1.007825032070
           H         -1.455586337010     0.702890417175     3.106680605990     1.007825032070
           H          2.980413662990     0.125890417175    -3.297319394010     1.007825032070
           H          2.779413662990    -3.169109582825    -0.838319394010     1.007825032070
           H          3.684413662990    -1.950109582825    -2.576319394010     1.007825032070

  Running in c1 symmetry.

  Rotational constants: A =      0.06297  B =      0.01347  C =      0.01160 [cm^-1]
  Rotational constants: A =   1887.88107  B =    403.74109  C =    347.86217 [MHz]
  Nuclear repulsion =  818.215889151691044

  Charge       = 0
  Multiplicity = 1
  Electrons    = 98
  Nalpha       = 49
  Nbeta        = 49

  ==> Algorithm <==

  SCF Algorithm Type is DF.
  DIIS enabled.
  MOM disabled.
  Fractional occupation disabled.
  Guess Type is SAD.
  Energy threshold   = 1.00e-10
  Density threshold  = 1.00e-10
  Integral threshold = 0.00e+00

  ==> Primary Basis <==

  Basis Set: AUG-CC-PVTZ
    Blend: AUG-CC-PVTZ
    Number of shells: 268
    Number of basis function: 828
    Number of Cartesian functions: 970
    Spherical Harmonics?: true
    Max angular momentum: 3

   => Loading Basis Set <=

    Name: (AUG-CC-PVTZ AUX)
    Role: JKFIT
    Keyword: DF_BASIS_SCF
    atoms 1-11  entry C          line   161 file /cbio/jclab/home/chayas/anaconda/envs/py35/share/psi4/basis/aug-cc-pvtz-jkfit.gbs 
    atoms 12    entry N          line   223 file /cbio/jclab/home/chayas/anaconda/envs/py35/share/psi4/basis/aug-cc-pvtz-jkfit.gbs 
    atoms 13    entry O          line   285 file /cbio/jclab/home/chayas/anaconda/envs/py35/share/psi4/basis/aug-cc-pvtz-jkfit.gbs 
    atoms 14    entry F          line   347 file /cbio/jclab/home/chayas/anaconda/envs/py35/share/psi4/basis/aug-cc-pvtz-jkfit.gbs 
    atoms 15-22 entry H          line    69 file /cbio/jclab/home/chayas/anaconda/envs/py35/share/psi4/basis/aug-cc-pvtz-jkfit.gbs 

  ==> Pre-Iterations <==

   -------------------------------------------------------
    Irrep   Nso     Nmo     Nalpha   Nbeta   Ndocc  Nsocc
   -------------------------------------------------------
     A        828     828       0       0       0       0
   -------------------------------------------------------
    Total     828     828      49      49      49       0
   -------------------------------------------------------

  ==> Integral Setup <==

  ==> DFJK: Density-Fitted J/K Matrices <==

    J tasked:                  Yes
    K tasked:                  Yes
    wK tasked:                  No
    OpenMP threads:              8
    Integrals threads:           8
    Memory (MB):              3576
    Algorithm:                Disk
    Integral Cache:           NONE
    Schwarz Cutoff:          1E-12
    Fitting Condition:       1E-12

   => Auxiliary Basis Set <=

  Basis Set: (AUG-CC-PVTZ AUX)
    Blend: AUG-CC-PVTZ-JKFIT
    Number of shells: 532
    Number of basis function: 1824
    Number of Cartesian functions: 2274
    Spherical Harmonics?: true
    Max angular momentum: 4

  Minimum eigenvalue in the overlap matrix is 7.4641816645E-07.
  Using Symmetric Orthogonalization.

  SCF Guess: Superposition of Atomic Densities via on-the-fly atomic UHF.

  ==> Iterations <==

                           Total Energy        Delta E     RMS |[F,P]|

   @DF-RHF iter   0:  -656.20036983706018   -6.56200e+02   2.03345e-02 
   @DF-RHF iter   1:  -649.64143100650563    6.55894e+00   2.24595e-03 
   @DF-RHF iter   2:  -649.94260815386986   -3.01177e-01   1.09721e-03 DIIS
   @DF-RHF iter   3:  -650.07306085462744   -1.30453e-01   5.54636e-04 DIIS
   @DF-RHF iter   4:  -650.09844365175093   -2.53828e-02   1.47528e-04 DIIS
   @DF-RHF iter   5:  -650.10098682043702   -2.54317e-03   7.01420e-05 DIIS
   @DF-RHF iter   6:  -650.10160310753395   -6.16287e-04   3.06768e-05 DIIS
   @DF-RHF iter   7:  -650.10175440265357   -1.51295e-04   1.38672e-05 DIIS
   @DF-RHF iter   8:  -650.10177812601296   -2.37234e-05   4.41878e-06 DIIS
   @DF-RHF iter   9:  -650.10178443937991   -6.31337e-06   2.46074e-06 DIIS
   @DF-RHF iter  10:  -650.10178568864876   -1.24927e-06   1.16202e-06 DIIS
   @DF-RHF iter  11:  -650.10178599226913   -3.03620e-07   3.64139e-07 DIIS
   @DF-RHF iter  12:  -650.10178604172393   -4.94548e-08   2.28480e-07 DIIS
   @DF-RHF iter  13:  -650.10178605084218   -9.11825e-09   8.84492e-08 DIIS
   @DF-RHF iter  14:  -650.10178605273484   -1.89266e-09   4.22299e-08 DIIS
   @DF-RHF iter  15:  -650.10178605310523   -3.70392e-10   1.30405e-08 DIIS
   @DF-RHF iter  16:  -650.10178605314240   -3.71756e-11   3.36302e-09 DIIS
   @DF-RHF iter  17:  -650.10178605315764   -1.52340e-11   2.04904e-09 DIIS
   @DF-RHF iter  18:  -650.10178605314070    1.69393e-11   5.04784e-10 DIIS
   @DF-RHF iter  19:  -650.10178605313013    1.05729e-11   3.08786e-10 DIIS
   @DF-RHF iter  20:  -650.10178605313752   -7.38964e-12   1.19622e-10 DIIS
   @DF-RHF iter  21:  -650.10178605314093   -3.41061e-12   4.34003e-11 DIIS

  ==> Post-Iterations <==

    Orbital Energies (a.u.)
    -----------------------

    Doubly Occupied:                                                      

       1A    -26.308725     2A    -20.425623     3A    -15.712736  
       4A    -11.367142     5A    -11.364206     6A    -11.317463  
       7A    -11.316791     8A    -11.295291     9A    -11.292751  
      10A    -11.245083    11A    -11.233483    12A    -11.219072  
      13A    -11.186559    14A    -11.185701    15A     -1.628608  
      16A     -1.394498    17A     -1.252352    18A     -1.187553  
      19A     -1.119217    20A     -1.114233    21A     -1.001158  
      22A     -0.994619    23A     -0.947831    24A     -0.911677  
      25A     -0.846575    26A     -0.829385    27A     -0.805670  
      28A     -0.749314    29A     -0.737702    30A     -0.710389  
      31A     -0.697397    32A     -0.691841    33A     -0.678542  
      34A     -0.670633    35A     -0.660248    36A     -0.614885  
      37A     -0.600839    38A     -0.590661    39A     -0.577550  
      40A     -0.537436    41A     -0.513974    42A     -0.497528  
      43A     -0.476997    44A     -0.465718    45A     -0.424539  
      46A     -0.396936    47A     -0.340220    48A     -0.321168  
      49A     -0.236390  

    Virtual:                                                              

      50A     -0.011565    51A      0.009240    52A      0.013603  
      53A      0.022408    54A      0.034528    55A      0.039153  
      56A      0.043477    57A      0.051069    58A      0.053209  
      59A      0.059425    60A      0.062738    61A      0.067768  
      62A      0.069145    63A      0.077515    64A      0.081706  
      65A      0.091595    66A      0.097885    67A      0.102968  
      68A      0.103732    69A      0.106017    70A      0.117435  
      71A      0.118280    72A      0.123763    73A      0.127156  
      74A      0.128626    75A      0.131444    76A      0.134225  
      77A      0.141130    78A      0.145234    79A      0.150494  
      80A      0.151209    81A      0.159618    82A      0.161977  
      83A      0.164014    84A      0.167956    85A      0.172898  
      86A      0.178260    87A      0.180378    88A      0.184622  
      89A      0.187030    90A      0.194016    91A      0.196308  
      92A      0.205346    93A      0.206792    94A      0.209142  
      95A      0.210996    96A      0.218918    97A      0.223501  
      98A      0.225387    99A      0.229196   100A      0.231777  
     101A      0.240680   102A      0.247068   103A      0.251291  
     104A      0.252208   105A      0.253657   106A      0.259529  
     107A      0.263234   108A      0.267773   109A      0.272947  
     110A      0.276369   111A      0.284389   112A      0.289988  
     113A      0.291445   114A      0.295642   115A      0.297689  
     116A      0.303415   117A      0.304894   118A      0.313076  
     119A      0.317415   120A      0.319153   121A      0.321306  
     122A      0.328233   123A      0.331495   124A      0.339060  
     125A      0.341845   126A      0.345870   127A      0.348284  
     128A      0.352945   129A      0.356375   130A      0.359760  
     131A      0.362050   132A      0.362860   133A      0.375044  
     134A      0.377063   135A      0.379729   136A      0.383687  
     137A      0.385324   138A      0.397740   139A      0.400395  
     140A      0.401263   141A      0.412663   142A      0.413910  
     143A      0.418709   144A      0.420692   145A      0.426174  
     146A      0.430774   147A      0.438669   148A      0.440410  
     149A      0.445014   150A      0.448439   151A      0.453266  
     152A      0.455124   153A      0.457039   154A      0.463772  
     155A      0.468123   156A      0.471011   157A      0.473149  
     158A      0.479923   159A      0.484888   160A      0.488004  
     161A      0.489268   162A      0.492384   163A      0.492527  
     164A      0.495461   165A      0.497773   166A      0.500256  
     167A      0.503516   168A      0.507188   169A      0.514443  
     170A      0.524373   171A      0.525595   172A      0.527936  
     173A      0.533048   174A      0.536938   175A      0.545065  
     176A      0.546484   177A      0.551035   178A      0.558085  
     179A      0.564089   180A      0.568130   181A      0.569696  
     182A      0.579095   183A      0.588832   184A      0.591180  
     185A      0.598585   186A      0.599159   187A      0.601658  
     188A      0.608016   189A      0.612360   190A      0.624246  
     191A      0.631214   192A      0.639408   193A      0.644206  
     194A      0.650001   195A      0.656644   196A      0.661620  
     197A      0.664571   198A      0.670427   199A      0.673896  
     200A      0.680997   201A      0.684795   202A      0.691051  
     203A      0.694859   204A      0.702724   205A      0.706768  
     206A      0.712345   207A      0.720271   208A      0.722826  
     209A      0.727825   210A      0.730718   211A      0.734651  
     212A      0.740777   213A      0.750722   214A      0.752218  
     215A      0.759060   216A      0.764340   217A      0.764969  
     218A      0.775595   219A      0.780011   220A      0.789594  
     221A      0.794438   222A      0.801946   223A      0.809863  
     224A      0.816380   225A      0.819718   226A      0.826166  
     227A      0.836170   228A      0.843944   229A      0.850390  
     230A      0.853121   231A      0.857739   232A      0.865926  
     233A      0.871326   234A      0.874219   235A      0.876803  
     236A      0.880969   237A      0.885296   238A      0.887094  
     239A      0.898640   240A      0.906393   241A      0.908485  
     242A      0.912414   243A      0.916329   244A      0.917707  
     245A      0.921642   246A      0.926256   247A      0.929557  
     248A      0.936335   249A      0.944434   250A      0.945480  
     251A      0.955207   252A      0.958224   253A      0.960071  
     254A      0.963863   255A      0.972591   256A      0.979820  
     257A      0.984511   258A      0.992040   259A      0.994168  
     260A      1.004595   261A      1.009840   262A      1.013294  
     263A      1.014209   264A      1.017424   265A      1.020382  
     266A      1.022399   267A      1.024704   268A      1.032850  
     269A      1.036269   270A      1.041360   271A      1.044338  
     272A      1.047312   273A      1.052553   274A      1.059002  
     275A      1.060816   276A      1.069292   277A      1.073232  
     278A      1.077609   279A      1.078842   280A      1.087365  
     281A      1.090582   282A      1.092806   283A      1.096911  
     284A      1.102063   285A      1.105245   286A      1.111712  
     287A      1.113780   288A      1.121366   289A      1.127253  
     290A      1.136931   291A      1.141478   292A      1.145569  
     293A      1.149723   294A      1.152744   295A      1.158953  
     296A      1.164418   297A      1.171501   298A      1.179260  
     299A      1.182129   300A      1.185880   301A      1.188623  
     302A      1.195004   303A      1.201730   304A      1.206352  
     305A      1.214531   306A      1.219300   307A      1.225836  
     308A      1.228877   309A      1.231393   310A      1.237325  
     311A      1.239326   312A      1.248319   313A      1.257534  
     314A      1.258991   315A      1.263030   316A      1.273666  
     317A      1.274854   318A      1.278867   319A      1.284487  
     320A      1.293172   321A      1.304484   322A      1.306870  
     323A      1.311669   324A      1.326148   325A      1.331277  
     326A      1.337875   327A      1.347389   328A      1.348573  
     329A      1.356433   330A      1.357963   331A      1.372690  
     332A      1.376914   333A      1.378765   334A      1.381276  
     335A      1.394140   336A      1.402890   337A      1.403481  
     338A      1.408717   339A      1.420928   340A      1.429910  
     341A      1.435055   342A      1.438304   343A      1.448027  
     344A      1.453691   345A      1.459451   346A      1.464079  
     347A      1.474691   348A      1.477729   349A      1.483654  
     350A      1.495538   351A      1.497614   352A      1.507441  
     353A      1.516782   354A      1.522742   355A      1.531888  
     356A      1.535465   357A      1.541084   358A      1.559078  
     359A      1.562623   360A      1.568053   361A      1.584150  
     362A      1.594504   363A      1.597316   364A      1.612452  
     365A      1.622585   366A      1.626823   367A      1.628932  
     368A      1.632207   369A      1.639944   370A      1.642218  
     371A      1.643874   372A      1.664691   373A      1.674244  
     374A      1.679021   375A      1.682567   376A      1.688960  
     377A      1.694693   378A      1.711437   379A      1.716920  
     380A      1.722075   381A      1.738610   382A      1.740726  
     383A      1.746508   384A      1.767628   385A      1.770113  
     386A      1.776144   387A      1.782727   388A      1.792229  
     389A      1.802503   390A      1.814127   391A      1.814876  
     392A      1.820723   393A      1.822951   394A      1.828751  
     395A      1.841291   396A      1.848193   397A      1.860511  
     398A      1.870999   399A      1.876690   400A      1.880211  
     401A      1.901010   402A      1.905213   403A      1.914644  
     404A      1.927855   405A      1.929247   406A      1.933567  
     407A      1.942091   408A      1.948864   409A      1.953658  
     410A      1.968303   411A      1.969839   412A      1.973571  
     413A      1.983097   414A      1.994414   415A      1.998408  
     416A      2.008452   417A      2.016412   418A      2.017251  
     419A      2.020709   420A      2.029569   421A      2.031414  
     422A      2.043040   423A      2.048318   424A      2.058209  
     425A      2.063888   426A      2.076182   427A      2.079654  
     428A      2.090890   429A      2.102398   430A      2.116962  
     431A      2.124682   432A      2.132571   433A      2.142322  
     434A      2.148263   435A      2.150668   436A      2.167743  
     437A      2.174823   438A      2.181936   439A      2.187745  
     440A      2.200844   441A      2.201915   442A      2.212022  
     443A      2.218190   444A      2.220796   445A      2.241209  
     446A      2.260159   447A      2.276946   448A      2.280207  
     449A      2.300473   450A      2.303042   451A      2.309011  
     452A      2.317904   453A      2.323824   454A      2.334987  
     455A      2.351638   456A      2.352931   457A      2.355130  
     458A      2.364753   459A      2.383511   460A      2.386217  
     461A      2.399082   462A      2.405815   463A      2.424664  
     464A      2.435192   465A      2.446090   466A      2.448780  
     467A      2.471075   468A      2.486375   469A      2.487488  
     470A      2.496624   471A      2.499376   472A      2.507287  
     473A      2.523113   474A      2.534991   475A      2.538663  
     476A      2.546894   477A      2.551292   478A      2.555588  
     479A      2.568334   480A      2.592248   481A      2.611821  
     482A      2.628039   483A      2.644152   484A      2.645879  
     485A      2.667248   486A      2.676109   487A      2.682848  
     488A      2.702049   489A      2.718421   490A      2.726731  
     491A      2.735683   492A      2.757852   493A      2.761551  
     494A      2.767428   495A      2.785577   496A      2.799242  
     497A      2.835609   498A      2.850946   499A      2.868072  
     500A      2.883581   501A      2.903537   502A      2.912715  
     503A      2.928065   504A      2.963273   505A      2.976560  
     506A      2.994739   507A      3.026960   508A      3.046139  
     509A      3.055749   510A      3.073784   511A      3.081377  
     512A      3.099461   513A      3.103857   514A      3.113610  
     515A      3.127818   516A      3.150756   517A      3.155308  
     518A      3.167458   519A      3.177898   520A      3.193366  
     521A      3.212234   522A      3.218937   523A      3.241808  
     524A      3.245487   525A      3.262350   526A      3.278972  
     527A      3.290850   528A      3.309277   529A      3.315222  
     530A      3.324190   531A      3.330055   532A      3.346711  
     533A      3.359681   534A      3.362883   535A      3.369323  
     536A      3.380319   537A      3.391633   538A      3.397117  
     539A      3.410928   540A      3.422510   541A      3.441235  
     542A      3.450520   543A      3.461939   544A      3.469968  
     545A      3.476365   546A      3.482293   547A      3.492102  
     548A      3.502581   549A      3.511647   550A      3.514054  
     551A      3.522987   552A      3.526147   553A      3.536501  
     554A      3.549242   555A      3.557357   556A      3.562209  
     557A      3.573105   558A      3.574620   559A      3.590468  
     560A      3.599138   561A      3.611533   562A      3.625882  
     563A      3.629162   564A      3.639911   565A      3.648652  
     566A      3.659168   567A      3.662771   568A      3.676999  
     569A      3.680188   570A      3.696108   571A      3.704361  
     572A      3.706175   573A      3.714225   574A      3.723168  
     575A      3.725590   576A      3.746316   577A      3.760083  
     578A      3.768164   579A      3.777926   580A      3.783343  
     581A      3.789316   582A      3.796605   583A      3.805955  
     584A      3.812246   585A      3.828409   586A      3.833753  
     587A      3.841804   588A      3.843428   589A      3.852082  
     590A      3.865351   591A      3.878824   592A      3.887430  
     593A      3.901577   594A      3.907199   595A      3.909488  
     596A      3.911320   597A      3.922712   598A      3.937427  
     599A      3.945966   600A      3.960011   601A      3.968590  
     602A      3.972518   603A      3.979842   604A      3.987734  
     605A      3.996923   606A      4.005006   607A      4.008390  
     608A      4.012912   609A      4.024762   610A      4.027944  
     611A      4.037900   612A      4.046015   613A      4.052006  
     614A      4.065714   615A      4.077725   616A      4.094055  
     617A      4.098237   618A      4.103959   619A      4.109940  
     620A      4.124026   621A      4.139677   622A      4.151498  
     623A      4.158225   624A      4.167181   625A      4.175026  
     626A      4.192527   627A      4.199382   628A      4.202513  
     629A      4.210645   630A      4.230521   631A      4.237971  
     632A      4.246018   633A      4.257822   634A      4.262212  
     635A      4.271069   636A      4.285941   637A      4.296459  
     638A      4.300742   639A      4.307818   640A      4.319740  
     641A      4.335434   642A      4.339932   643A      4.344533  
     644A      4.359732   645A      4.363136   646A      4.369958  
     647A      4.371341   648A      4.382297   649A      4.388653  
     650A      4.388764   651A      4.393847   652A      4.406749  
     653A      4.417039   654A      4.418952   655A      4.426319  
     656A      4.444859   657A      4.451919   658A      4.469739  
     659A      4.476353   660A      4.491716   661A      4.498513  
     662A      4.519128   663A      4.521148   664A      4.539863  
     665A      4.542257   666A      4.565375   667A      4.572385  
     668A      4.581580   669A      4.602628   670A      4.611616  
     671A      4.625122   672A      4.634659   673A      4.647111  
     674A      4.670770   675A      4.679920   676A      4.702073  
     677A      4.717112   678A      4.725750   679A      4.743975  
     680A      4.763744   681A      4.766337   682A      4.771487  
     683A      4.778167   684A      4.798082   685A      4.800211  
     686A      4.810900   687A      4.829927   688A      4.860789  
     689A      4.864131   690A      4.880359   691A      4.891434  
     692A      4.900884   693A      4.916752   694A      4.924963  
     695A      4.941252   696A      4.952739   697A      4.957870  
     698A      4.962967   699A      4.979126   700A      5.004475  
     701A      5.024431   702A      5.025493   703A      5.045918  
     704A      5.056593   705A      5.065741   706A      5.078503  
     707A      5.083876   708A      5.093183   709A      5.117429  
     710A      5.123337   711A      5.138206   712A      5.151771  
     713A      5.162115   714A      5.173452   715A      5.181209  
     716A      5.189305   717A      5.198028   718A      5.212189  
     719A      5.233973   720A      5.240295   721A      5.255749  
     722A      5.262388   723A      5.290333   724A      5.299812  
     725A      5.323922   726A      5.326971   727A      5.347465  
     728A      5.371252   729A      5.380444   730A      5.392778  
     731A      5.410171   732A      5.413950   733A      5.450096  
     734A      5.459444   735A      5.504037   736A      5.507033  
     737A      5.519675   738A      5.560101   739A      5.568291  
     740A      5.593140   741A      5.617138   742A      5.641079  
     743A      5.653591   744A      5.686455   745A      5.715599  
     746A      5.726906   747A      5.731580   748A      5.749428  
     749A      5.767680   750A      5.802942   751A      5.818131  
     752A      5.837269   753A      5.842113   754A      5.895976  
     755A      5.918958   756A      5.956995   757A      5.969361  
     758A      6.011175   759A      6.050931   760A      6.059710  
     761A      6.100706   762A      6.114105   763A      6.156366  
     764A      6.182615   765A      6.252403   766A      6.283583  
     767A      6.290727   768A      6.314725   769A      6.361520  
     770A      6.422552   771A      6.445824   772A      6.484229  
     773A      6.515553   774A      6.550138   775A      6.581947  
     776A      6.641209   777A      6.682932   778A      6.696501  
     779A      6.777608   780A      6.778525   781A      6.785459  
     782A      6.863290   783A      6.868951   784A      6.896996  
     785A      6.950984   786A      6.972470   787A      7.038503  
     788A      7.069840   789A      7.093876   790A      7.181032  
     791A      7.210666   792A      7.236328   793A      7.473218  
     794A      7.489363   795A      7.522861   796A      7.572950  
     797A      7.657539   798A      7.800420   799A      7.817951  
     800A      7.902089   801A      8.025698   802A      8.096378  
     803A      9.063967   804A      9.082807   805A      9.285181  
     806A      9.307198   807A      9.432534   808A      9.540700  
     809A      9.573796   810A      9.627702   811A      9.660072  
     812A      9.735799   813A     10.053102   814A     10.106345  
     815A     15.853853   816A     16.113617   817A     16.299280  
     818A     16.596036   819A     16.797882   820A     17.075722  
     821A     18.914177   822A     19.373405   823A     19.659437  
     824A     19.886603   825A     20.230850   826A     20.388631  
     827A     20.448538   828A     21.850329  

    Final Occupation by Irrep:
              A 
    DOCC [    49 ]

  Energy converged.

  @DF-RHF Final Energy:  -650.10178605314093

   => Energetics <=

    Nuclear Repulsion Energy =            818.2158891516910444
    One-Electron Energy =               -2511.2455391323910590
    Two-Electron Energy =                1042.9278639275592013
    DFT Exchange-Correlation Energy =       0.0000000000000000
    Empirical Dispersion Energy =           0.0000000000000000
    PCM Polarization Energy =               0.0000000000000000
    EFP Energy =                            0.0000000000000000
    Total Energy =                       -650.1017860531408132



Properties will be evaluated at   0.000000,   0.000000,   0.000000 Bohr

Properties computed using the SCF density matrix

  Nuclear Dipole Moment: (a.u.)
     X:     4.3304      Y:    -2.0933      Z:    -9.2546

  Electronic Dipole Moment: (a.u.)
     X:     1.4869      Y:    -0.9880      Z:     5.0060

  Dipole Moment: (a.u.)
     X:     5.8173      Y:    -3.0813      Z:    -4.2486     Total:     7.8349

  Dipole Moment: (Debye)
     X:    14.7861      Y:    -7.8319      Z:   -10.7988     Total:    19.9144


*** tstop() called on gpu-1-16.local at Sun Nov 12 02:12:28 2017
Module time:
	user time   =    1223.81 seconds =      20.40 minutes
	system time =      55.37 seconds =       0.92 minutes
	total time  =        524 seconds =       8.73 minutes
Total time:
	user time   =    1223.81 seconds =      20.40 minutes
	system time =      55.37 seconds =       0.92 minutes
	total time  =        524 seconds =       8.73 minutes

  //>>>>>>>>>>>>>>>>>>>>>>>>>>>>>>>>>>>//
  //               DFMP2               //
  //<<<<<<<<<<<<<<<<<<<<<<<<<<<<<<<<<<<//

   => Loading Basis Set <=

    Name: (AUG-CC-PVTZ AUX)
    Role: RIFIT
    Keyword: DF_BASIS_MP2
    atoms 1-11  entry C          line   147 file /cbio/jclab/home/chayas/anaconda/envs/py35/share/psi4/basis/aug-cc-pvtz-ri.gbs 
    atoms 12    entry N          line   205 file /cbio/jclab/home/chayas/anaconda/envs/py35/share/psi4/basis/aug-cc-pvtz-ri.gbs 
    atoms 13    entry O          line   263 file /cbio/jclab/home/chayas/anaconda/envs/py35/share/psi4/basis/aug-cc-pvtz-ri.gbs 
    atoms 14    entry F          line   321 file /cbio/jclab/home/chayas/anaconda/envs/py35/share/psi4/basis/aug-cc-pvtz-ri.gbs 
    atoms 15-22 entry H          line    29 file /cbio/jclab/home/chayas/anaconda/envs/py35/share/psi4/basis/aug-cc-pvtz-ri.gbs 

	 --------------------------------------------------------
	                          DF-MP2                         
	      2nd-Order Density-Fitted Moller-Plesset Theory     
	              RMP2 Wavefunction,   8 Threads             
	                                                         
	        Rob Parrish, Justin Turney, Andy Simmonett,      
	           Ed Hohenstein, and C. David Sherrill          
	 --------------------------------------------------------

   => Auxiliary Basis Set <=

  Basis Set: (AUG-CC-PVTZ AUX)
    Blend: AUG-CC-PVTZ-RI
    Number of shells: 504
    Number of basis function: 1852
    Number of Cartesian functions: 2344
    Spherical Harmonics?: true
    Max angular momentum: 4

	 --------------------------------------------------------
	                 NBF =   828, NAUX =  1852
	 --------------------------------------------------------
	   CLASS    FOCC     OCC    AOCC    AVIR     VIR    FVIR
	   PAIRS       0      49      49     779     779       0
	 --------------------------------------------------------


         ------------------------------------------------------------
                                     CPHF                           
                                  Rob Parrish                       
         ------------------------------------------------------------

  ==> Geometry <==

    Molecular point group: c1
    Full point group: C1

    Geometry (in Angstrom), charge = 0, multiplicity = 1:

       Center              X                  Y                   Z               Mass       
    ------------   -----------------  -----------------  -----------------  -----------------
           C         -1.361586337010     0.775890417175    -0.769319394010    12.000000000000
           C         -2.439586337010     1.348890417175    -0.096319394010    12.000000000000
           C          1.387413662990     0.265890417175    -1.810319394010    12.000000000000
           C          1.270413662990    -1.662109582825    -0.371319394010    12.000000000000
           C         -1.446586337010     0.732890417175     2.018680605990    12.000000000000
           C          2.457413662990    -0.327109582825    -2.467319394010    12.000000000000
           C          2.342413662990    -2.206109582825    -1.064319394010    12.000000000000
           C         -0.325586337010     0.180890417175    -0.049319394010    12.000000000000
           C          0.791413662990    -0.412109582825    -0.752319394010    12.000000000000
           C         -2.482586337010     1.327890417175     1.297680605990    12.000000000000
           C         -0.368586337010     0.159890417175     1.344680605990    12.000000000000
           N          2.898413662990    -1.532109582825    -2.079319394010    14.003074004780
           O         -3.473586337010     1.854890417175     1.916680605990    15.994914619560
           F          0.619413662990    -0.408109582825     2.051680605990    18.998403224000
           H         -1.342586337010     0.798890417175    -1.857319394010     1.007825032070
           H         -3.235586337010     1.804890417175    -0.682319394010     1.007825032070
           H          1.035413662990     1.242890417175    -2.129319394010     1.007825032070
           H          0.823413662990    -2.214109582825     0.450680605990     1.007825032070
           H         -1.455586337010     0.702890417175     3.106680605990     1.007825032070
           H          2.980413662990     0.125890417175    -3.297319394010     1.007825032070
           H          2.779413662990    -3.169109582825    -0.838319394010     1.007825032070
           H          3.684413662990    -1.950109582825    -2.576319394010     1.007825032070

  Nuclear repulsion =  818.215889151691044
  Reference energy  = -650.101786053140927

  ==> Basis Set <==

  Basis Set: AUG-CC-PVTZ
    Blend: AUG-CC-PVTZ
    Number of shells: 268
    Number of basis function: 828
    Number of Cartesian functions: 970
    Spherical Harmonics?: true
    Max angular momentum: 3

  ==> CGRSolver (by Rob Parrish) <==

   Number of roots    =         1
   Preconditioning    =    JACOBI
   Convergence cutoff =     1E-06
   Maximum iterations =       100

  ==> CPHFRHamiltonian (by Rob Parrish) <== 

  ==> DFJK: Density-Fitted J/K Matrices <==

    J tasked:                  Yes
    K tasked:                  Yes
    wK tasked:                  No
    OpenMP threads:              8
    Integrals threads:           8
    Memory (MB):              3576
    Algorithm:                Disk
    Integral Cache:           NONE
    Schwarz Cutoff:          1E-12
    Fitting Condition:       1E-12

   => Auxiliary Basis Set <=

  Basis Set: (AUG-CC-PVTZ AUX)
    Blend: AUG-CC-PVTZ-JKFIT
    Number of shells: 532
    Number of basis function: 1824
    Number of Cartesian functions: 2274
    Spherical Harmonics?: true
    Max angular momentum: 4

  ==> CPHF Iterations <==

  => Iterations <=

             Iter  Converged  Remaining    Residual
  CGR           1          0          1   1.557E-01
  CGR           2          0          1   6.157E-02
  CGR           3          0          1   3.102E-02
  CGR           4          0          1   9.179E-03
  CGR           5          0          1   3.219E-03
  CGR           6          0          1   1.266E-03
  CGR           7          0          1   5.208E-04
  CGR           8          0          1   2.065E-04
  CGR           9          0          1   9.366E-05
  CGR          10          0          1   4.281E-05
  CGR          11          0          1   1.869E-05
  CGR          12          0          1   5.370E-06
  CGR          13          0          1   2.377E-06
  CGR          14          1          0   9.430E-07

    CGRSolver converged.

  ==> DFCorrGrad: Density-Fitted Correlated Gradients <==

    OpenMP threads:              8
    Integrals threads:           8
    Memory (MB):              3576
    Schwarz Cutoff:          0E+00
    Fitting Condition:       1E-12

   => Auxiliary Basis Set <=

  Basis Set: (AUG-CC-PVTZ AUX)
    Blend: AUG-CC-PVTZ-JKFIT
    Number of shells: 532
    Number of basis function: 1824
    Number of Cartesian functions: 2274
    Spherical Harmonics?: true
    Max angular momentum: 4

	-----------------------------------------------------------
	 ==================> DF-MP2 Energies <==================== 
	-----------------------------------------------------------
	 Reference Energy          =    -650.1017860531409269 [Eh]
	 Singles Energy            =      -0.0000000000000001 [Eh]
	 Same-Spin Energy          =      -0.6791087458256421 [Eh]
	 Opposite-Spin Energy      =      -2.0264140236556378 [Eh]
	 Correlation Energy        =      -2.7055227694812798 [Eh]
	 Total Energy              =    -652.8073088226221898 [Eh]
	-----------------------------------------------------------
	 ================> DF-SCS-MP2 Energies <================== 
	-----------------------------------------------------------
	 SCS Same-Spin Scale       =       0.3333333333333333 [-]
	 SCS Opposite-Spin Scale   =       1.2000000000000000 [-]
	 SCS Same-Spin Energy      =      -0.2263695819418807 [Eh]
	 SCS Opposite-Spin Energy  =      -2.4316968283867655 [Eh]
	 SCS Correlation Energy    =      -2.6580664103286460 [Eh]
	 SCS Total Energy          =    -652.7598524634695423 [Eh]
	-----------------------------------------------------------


  -Total Gradient:
     Atom            X                  Y                   Z
    ------   -----------------  -----------------  -----------------
       1        0.028128529967    -0.029866813325    -0.007438984422
       2       -0.026860198321     0.013440419751     0.053914734543
       3       -0.022706024095     0.009817135106     0.030993620762
       4       -0.033014237039     0.020936582964     0.004990523091
       5       -0.056317251246     0.030827336843    -0.003241064677
       6        0.018965960339    -0.023031168609     0.001330130710
       7        0.017759396636     0.006063732453    -0.024806767391
       8       -0.044315345339     0.023419624108     0.022553641240
       9        0.044017892008    -0.022895983859    -0.030186004780
      10        0.063748053829    -0.033888043584    -0.039810400434
      11        0.052125927277    -0.013809650538    -0.020606545533
      12       -0.016926860025     0.007151783211     0.011581915649
      13       -0.021114118047     0.011240159657     0.012331184186
      14       -0.009175402203     0.003751947576    -0.000481987454
      15       -0.002038194628     0.002272056420    -0.005034112195
      16       -0.001946630695     0.003192630243    -0.008825190796
      17       -0.002595542509     0.005220733218    -0.003120002960
      18       -0.002544061384    -0.003481506283     0.006123068455
      19        0.002602130875    -0.003458155063     0.007429899439
      20        0.001283292030    -0.000695876315    -0.002551136474
      21        0.002912643133    -0.001856844042     0.000164960167
      22        0.008010039436    -0.004350099931    -0.005311481122


*** tstop() called on gpu-1-16.local at Sun Nov 12 02:50:42 2017
Module time:
	user time   =    5799.13 seconds =      96.65 minutes
	system time =     116.51 seconds =       1.94 minutes
	total time  =       2818 seconds =      46.97 minutes
Total time:
	user time   =    5799.13 seconds =      96.65 minutes
	system time =     116.51 seconds =       1.94 minutes
	total time  =       2818 seconds =      46.97 minutes

			-----------------------------------------
			 OPTKING 2.0: for geometry optimizations 
			  - R.A. King,  Bethel University        
			-----------------------------------------

	Internal coordinates to be generated automatically.
	Detected frag 1 with atoms:  1 2 3 4 5 6 7 8 9 10 11 12 13 14 15 16 17 18 19 20
	 21 22
	---Fragment 1 Bond Connectivity---
	 1 : 2 8 15
	 2 : 1 10 16
	 3 : 6 9 17
	 4 : 7 9 18
	 5 : 10 11 19
	 6 : 3 12 20
	 7 : 4 12 21
	 8 : 1 9 11
	 9 : 3 4 8
	 10 : 2 5 13
	 11 : 5 8 14
	 12 : 6 7 22
	 13 : 10
	 14 : 11
	 15 : 1
	 16 : 2
	 17 : 3
	 18 : 4
	 19 : 5
	 20 : 6
	 21 : 7
	 22 : 12

	Assuming in current code that numbering for constraints corresponds to unified fragment.
	Fixed dihedral atom list: 
	     1     8     9     3
	---Fragment 1 Geometry and Gradient---
	 C          -2.5730252832        1.4662203976       -1.4538029634
	 C          -4.6101500545        2.5490334717       -0.1820172760
	 C           2.6218318561        0.5024600698       -3.4210078677
	 C           2.4007338985       -3.1409319144       -0.7016919625
	 C          -2.7336520045        1.3849621739        3.8147534951
	 C           4.6438388183       -0.6181475270       -4.6625579370
	 C           4.4265203130       -4.1689429307       -2.0112721726
	 C          -0.6152690096        0.3418333485       -0.0932001477
	 C           1.4955550809       -0.7787742483       -1.4216776191
	 C          -4.6914082782        2.5093492229        2.4522609533
	 C          -0.6965272333        0.3021490997        2.5410780815
	 N           5.4772080429       -2.8952675171       -3.9293441975
	 O          -6.5641268759        3.5052348950        3.6220014295
	 F           1.1705221860       -0.7712153437        3.8771144575
	 H          -2.5371204867        1.5096840986       -3.5098249960
	 H          -6.1143720563        3.4107485883       -1.2893967898
	 H           1.9566482573        2.3487225016       -4.0238305041
	 H           1.5560263171       -4.1840607397        0.8516629187
	 H          -2.7506595397        1.3282703899        5.8707755277
	 H           5.6321655858        0.2378984112       -6.2310306273
	 H           5.2523306331       -5.9887491966       -1.5841940666
	 H           6.9625327833       -3.6851730407       -4.8685380855
	             0.0281285300       -0.0298668133       -0.0074389844
	            -0.0268601983        0.0134404198        0.0539147345
	            -0.0227060241        0.0098171351        0.0309936208
	            -0.0330142370        0.0209365830        0.0049905231
	            -0.0563172512        0.0308273368       -0.0032410647
	             0.0189659603       -0.0230311686        0.0013301307
	             0.0177593966        0.0060637325       -0.0248067674
	            -0.0443153453        0.0234196241        0.0225536412
	             0.0440178920       -0.0228959839       -0.0301860048
	             0.0637480538       -0.0338880436       -0.0398104004
	             0.0521259273       -0.0138096505       -0.0206065455
	            -0.0169268600        0.0071517832        0.0115819156
	            -0.0211141180        0.0112401597        0.0123311842
	            -0.0091754022        0.0037519476       -0.0004819875
	            -0.0020381946        0.0022720564       -0.0050341122
	            -0.0019466307        0.0031926302       -0.0088251908
	            -0.0025955425        0.0052207332       -0.0031200030
	            -0.0025440614       -0.0034815063        0.0061230685
	             0.0026021309       -0.0034581551        0.0074298994
	             0.0012832920       -0.0006958763       -0.0025511365
	             0.0029126431       -0.0018568440        0.0001649602
	             0.0080100394       -0.0043500999       -0.0053114811

	Previous optimization step data not found.  Starting new optimization.

	---Fragment 1 Intrafragment Coordinates---
	 - Coordinate -           - BOHR/RAD -       - ANG/DEG -
	 R(1,2)           =         2.634350	       1.394038
	 R(1,8)           =         2.635962	       1.394891
	 R(1,15)          =         2.056795	       1.088409
	 R(2,10)          =         2.635830	       1.394821
	 R(2,16)          =         2.057067	       1.088553
	 R(3,6)           =         2.624066	       1.388596
	 R(3,9)           =         2.628190	       1.390778
	 R(3,17)          =         2.052937	       1.086367
	 R(4,7)           =         2.622140	       1.387577
	 R(4,9)           =         2.630117	       1.391798
	 R(4,18)          =         2.052939	       1.086369
	 R(5,10)          =         2.636938	       1.395407
	 R(5,11)          =         2.635263	       1.394521
	 R(5,19)          =         2.056874	       1.088451
	 R(6,12)          =         2.533255	       1.340541
	 R(6,20)          =         2.041987	       1.080573
	 R(7,12)          =         2.530848	       1.339267
	 R(7,21)          =         2.043539	       1.081394
	 R(8,9)           =         2.734263	       1.446909
	 R(8,11)          =         2.635830	       1.394821
	 R(10,13)         =         2.422221	       1.281784
	 R(11,14)         =         2.534359	       1.341125
	 R(12,22)         =         1.926714	       1.019573
	 B(1,2,10)        =         2.094553	     120.009056
	 B(1,2,16)        =         2.068903	     118.539404
	 B(1,8,9)         =         2.091392	     119.827938
	 B(1,8,11)        =         2.093692	     119.959722
	 B(2,1,8)         =         2.094940	     120.031219
	 B(2,1,15)        =         2.079908	     119.169966
	 B(2,10,5)        =         2.094306	     119.994870
	 B(2,10,13)       =         2.094719	     120.018581
	 B(3,6,12)        =         2.094882	     120.027880
	 B(3,6,20)        =         2.161986	     123.872685
	 B(3,9,4)         =         2.092769	     119.906830
	 B(3,9,8)         =         2.095134	     120.042319
	 B(4,7,12)        =         2.096635	     120.128353
	 B(4,7,21)        =         2.161509	     123.845345
	 B(4,9,8)         =         2.095282	     120.050839
	 B(5,10,13)       =         2.094160	     119.986548
	 B(5,11,8)        =         2.095181	     120.045019
	 B(5,11,14)       =         2.081414	     119.256220
	 B(6,3,9)         =         2.073685	     118.813391
	 B(6,3,17)        =         2.088401	     119.656555
	 B(6,12,7)        =         2.135492	     122.354703
	 B(6,12,22)       =         2.072641	     118.753563
	 B(7,4,9)         =         2.072907	     118.768840
	 B(7,4,18)        =         2.090441	     119.773441
	 B(7,12,22)       =         2.075051	     118.891671
	 B(8,1,15)        =         2.108336	     120.798746
	 B(8,11,14)       =         2.106591	     120.698759
	 B(9,3,17)        =         2.121099	     121.530026
	 B(9,4,18)        =         2.119837	     121.457703
	 B(9,8,11)        =         2.098101	     120.212327
	 B(10,2,16)       =         2.119728	     121.451467
	 B(10,5,11)       =         2.093699	     119.960108
	 B(10,5,19)       =         2.120101	     121.472852
	 B(11,5,19)       =         2.069385	     118.567038
	 B(12,6,20)       =         2.026317	     116.099431
	 B(12,7,21)       =         2.025041	     116.026301
	 D(1,2,10,5)      =        -0.000325	      -0.018609
	 D(1,2,10,13)     =         3.141392	     179.988520
	 D(1,8,9,3)       =         0.784785	      44.964896
	 D(1,8,9,4)       =        -2.356106	    -134.994948
	 D(1,8,11,5)      =         0.000325	       0.018608
	 D(1,8,11,14)     =        -3.141528	    -179.996269
	 D(2,1,8,9)       =        -3.141211	    -179.978157
	 D(2,1,8,11)      =        -0.000348	      -0.019945
	 D(2,10,5,11)     =         0.000301	       0.017261
	 D(2,10,5,19)     =        -3.141543	    -179.997173
	 D(3,6,12,7)      =        -0.000028	      -0.001584
	 D(3,6,12,22)     =         3.139946	     179.905678
	 D(3,9,4,7)       =         0.000117	       0.006718
	 D(3,9,4,18)      =        -3.140670	    -179.947138
	 D(3,9,8,11)      =        -2.356076	    -134.993209
	 D(4,7,12,6)      =        -0.000188	      -0.010777
	 D(4,7,12,22)     =        -3.140160	    -179.917916
	 D(4,9,3,6)       =        -0.000325	      -0.018616
	 D(4,9,3,17)      =        -3.140863	    -179.958215
	 D(4,9,8,11)      =         0.786218	      45.046947
	 D(5,10,2,16)     =         3.139529	     179.881752
	 D(5,11,8,9)      =         3.141185	     179.976658
	 D(6,3,9,8)       =        -3.141218	    -179.978518
	 D(6,12,7,21)     =         3.141593	     180.000000
	 D(7,4,9,8)       =         3.141010	     179.966616
	 D(7,12,6,20)     =         3.141182	     179.976477
	 D(8,1,2,10)      =         0.000348	       0.019955
	 D(8,1,2,16)      =        -3.139556	    -179.883288
	 D(8,9,3,17)      =         0.001429	       0.081883
	 D(8,9,4,18)      =         0.000223	       0.012761
	 D(8,11,5,10)     =        -0.000301	      -0.017270
	 D(8,11,5,19)     =         3.141536	     179.996748
	 D(9,3,6,12)      =         0.000284	       0.016252
	 D(9,3,6,20)      =        -3.140895	    -179.960020
	 D(9,4,7,12)      =         0.000140	       0.008002
	 D(9,4,7,21)      =         3.141533	     179.996591
	 D(9,8,1,15)      =         0.002066	       0.118384
	 D(9,8,11,14)     =        -0.000667	      -0.038219
	 D(10,2,1,15)     =         3.140283	     179.924984
	 D(10,5,11,14)    =         3.141547	     179.997392
	 D(11,5,10,13)    =        -3.141416	    -179.989865
	 D(11,8,1,15)     =        -3.140256	    -179.923403
	 D(12,6,3,17)     =         3.140842	     179.957007
	 D(12,7,4,18)     =         3.140941	     179.962654
	 D(13,10,2,16)    =        -0.001939	      -0.111119
	 D(13,10,5,19)    =        -0.000075	      -0.004300
	 D(14,11,5,19)    =         0.000199	       0.011410
	 D(15,1,2,16)     =         0.000379	       0.021741
	 D(17,3,6,20)     =        -0.000336	      -0.019265
	 D(18,4,7,21)     =        -0.000851	      -0.048758
	 D(20,6,12,22)    =        -0.002029	      -0.116261
	 D(21,7,12,22)    =         0.001617	       0.092631
	 R(4,14)          =         5.300419	       2.804861

	Current energy   :      -652.8073088226

	Generating empirical Hessian (Schlegel '84) for each fragment.
	Adding user-defined constraint: Fragment 1; Coordinate 62:
		Value =     0.784785; Fixed value    =     0.785398
		Force =     0.000306; Force constant =     0.500000
	Removing off-diagonal coupling between coordinate 62 and others.
	Taking RFO optimization step.
	Going to follow RFO solution 1.
	Using RFO vector 1.

	Determining step-restricting scale parameter for RS-RFO.
	Maximum step size allowed    0.10000

	 Iter      |step|        alpha        rfo_root  
	------------------------------------------------
	    0     0.35271       1.00000           1
	    1     0.24484       3.27920           1
	    2     0.17854       9.97559           1
	    3     0.13414      25.08753           1
	    4     0.11009      44.27871           1
	    5     0.10132      55.47598           1
	    6     0.10003      57.41386           1
	    7     0.10000      57.45669           1
	------------------------------------------------
	Norm of target step-size    0.10000
	Projected energy change by RFO approximation:        -0.0092358554

	Back-transformation to cartesian coordinates...
	Could not converge backtransformation.
	Using first guess instead.

	--- Internal Coordinate Step in ANG or DEG, aJ/ANG or AJ/DEG ---
	 ---------------------------------------------------------------------------
	   Coordinate                Previous        Force       Change         New 
	   ----------                --------       ------       ------       ------
	    1 R(1,2)          =      1.394038    -0.176936    -0.011282     1.382756
	    2 R(1,8)          =      1.394891     0.127806     0.008065     1.402956
	    3 R(1,15)         =      1.088409    -0.041559    -0.002999     1.085410
	    4 R(2,10)         =      1.394821     0.275248     0.017931     1.412752
	    5 R(2,16)         =      1.088553    -0.061884    -0.004480     1.084073
	    6 R(3,6)          =      1.388596    -0.172475    -0.010952     1.377644
	    7 R(3,9)          =      1.390778     0.153000     0.009756     1.400534
	    8 R(3,17)         =      1.086367    -0.053160    -0.003837     1.082531
	    9 R(4,7)          =      1.387577    -0.167641    -0.010602     1.376975
	   10 R(4,9)          =      1.391798     0.156217     0.010043     1.401842
	   11 R(4,18)         =      1.086369    -0.061367    -0.004417     1.081952
	   12 R(5,10)         =      1.395407     0.256363     0.016690     1.412097
	   13 R(5,11)         =      1.394521    -0.236184    -0.015157     1.379364
	   14 R(5,19)         =      1.088451    -0.061798    -0.004473     1.083978
	   15 R(6,12)         =      1.340541     0.109259     0.006362     1.346903
	   16 R(6,20)         =      1.080573    -0.018859    -0.001337     1.079236
	   17 R(7,12)         =      1.339267     0.126611     0.007363     1.346630
	   18 R(7,21)         =      1.081394    -0.023603    -0.001687     1.079708
	   19 R(8,9)          =      1.446909    -0.162709    -0.011260     1.435649
	   20 R(8,11)         =      1.394821     0.098650     0.006260     1.401081
	   21 R(10,13)        =      1.281784    -0.221626    -0.011281     1.270503
	   22 R(11,14)        =      1.341125     0.070990     0.004158     1.345283
	   23 R(12,22)        =      1.019573    -0.086899    -0.005690     1.013882
	   24 B(1,2,10)       =    120.009056     0.000364     0.383511   120.392568
	   25 B(1,2,16)       =    118.539404     0.000267     0.290127   118.829531
	   26 B(1,8,9)        =    119.827938     0.000287     0.290063   120.118001
	   27 B(1,8,11)       =    119.959722    -0.000724    -0.752670   119.207052
	   28 B(2,1,8)        =    120.031219     0.000456     0.432852   120.464071
	   29 B(2,1,15)       =    119.169966    -0.000000     0.028401   119.198367
	   30 B(2,10,5)       =    119.994870    -0.001252    -1.138052   118.856818
	   31 B(2,10,13)      =    120.018581     0.000695     0.635267   120.653848
	   32 B(3,6,12)       =    120.027880    -0.000108    -0.114992   119.912888
	   33 B(3,6,20)       =    123.872685    -0.000060    -0.065606   123.807079
	   34 B(3,9,4)        =    119.906830    -0.000917    -0.887404   119.019426
	   35 B(3,9,8)        =    120.042319     0.000257     0.241062   120.283382
	   36 B(4,7,12)       =    120.128353    -0.000121    -0.119174   120.009179
	   37 B(4,7,21)       =    123.845345    -0.000061    -0.072148   123.773197
	   38 B(4,9,8)        =    120.050839     0.000660     0.646261   120.697099
	   39 B(5,10,13)      =    119.986548     0.000557     0.502782   120.489330
	   40 B(5,11,8)       =    120.045019     0.000931     0.847102   120.892121
	   41 B(5,11,14)      =    119.256220    -0.000016    -0.007919   119.248301
	   42 B(6,3,9)        =    118.813391     0.000594     0.578399   119.391790
	   43 B(6,3,17)       =    119.656555    -0.000257    -0.248974   119.407581
	   44 B(6,12,7)       =    122.354703     0.000007     0.007783   122.362485
	   45 B(6,12,22)      =    118.753563     0.000002     0.001233   118.754796
	   46 B(7,4,9)        =    118.768840     0.000546     0.535356   119.304197
	   47 B(7,4,18)       =    119.773441    -0.000269    -0.267051   119.506390
	   48 B(7,12,22)      =    118.891671    -0.000009    -0.008990   118.882681
	   49 B(8,1,15)       =    120.798746    -0.000456    -0.461622   120.337124
	   50 B(8,11,14)      =    120.698759    -0.000916    -0.839424   119.859335
	   51 B(9,3,17)       =    121.530026    -0.000336    -0.329492   121.200534
	   52 B(9,4,18)       =    121.457703    -0.000277    -0.268372   121.189331
	   53 B(9,8,11)       =    120.212327     0.000437     0.462463   120.674790
	   54 B(10,2,16)      =    121.451467    -0.000630    -0.673650   120.777817
	   55 B(10,5,11)      =    119.960108     0.000225     0.226951   120.187060
	   56 B(10,5,19)      =    121.472852    -0.000418    -0.441447   121.031405
	   57 B(11,5,19)      =    118.567038     0.000193     0.214497   118.781535
	   58 B(12,6,20)      =    116.099431     0.000168     0.180486   116.279918
	   59 B(12,7,21)      =    116.026301     0.000182     0.191310   116.217611
	   60 D(1,2,10,5)     =     -0.018609    -0.000014    -0.088309    -0.106917
	   61 D(1,2,10,13)    =    179.988520    -0.000012    -0.073308   179.915212
	   62 D(1,8,9,3)      =     44.964896    -0.000090    -0.393647    44.571249
	   63 D(1,8,9,4)      =   -134.994948    -0.000107    -0.546078  -135.541026
	   64 D(1,8,11,5)     =      0.018608    -0.000022    -0.158368    -0.139760
	   65 D(1,8,11,14)    =   -179.996269     0.000010     0.037108  -179.959161
	   66 D(2,1,8,9)      =   -179.978157    -0.000026    -0.183293  -180.161450
	   67 D(2,1,8,11)     =     -0.019945    -0.000004     0.001670    -0.018275
	   68 D(2,10,5,11)    =      0.017261    -0.000011    -0.066666    -0.049405
	   69 D(2,10,5,19)    =   -179.997173    -0.000010    -0.053104  -180.050277
	   70 D(3,6,12,7)     =     -0.001584     0.000002     0.006844     0.005260
	   71 D(3,6,12,22)    =    179.905678     0.000005     0.028196   179.933874
	   72 D(3,9,4,7)      =      0.006718    -0.000008    -0.072102    -0.065384
	   73 D(3,9,4,18)     =   -179.947138     0.000001    -0.013115  -179.960253
	   74 D(3,9,8,11)     =   -134.993209    -0.000112    -0.580845  -135.574054
	   75 D(4,7,12,6)     =     -0.010777     0.000001     0.009403    -0.001374
	   76 D(4,7,12,22)    =   -179.917916    -0.000002    -0.011984  -179.929900
	   77 D(4,9,3,6)      =     -0.018616     0.000011     0.087837     0.069221
	   78 D(4,9,3,17)     =   -179.958215     0.000021     0.140022  -179.818192
	   79 D(4,9,8,11)     =     45.046947    -0.000129    -0.733276    44.313671
	   80 D(5,10,2,16)    =    179.881752    -0.000015    -0.095531   179.786222
	   81 D(5,11,8,9)     =    179.976658     0.000000     0.027575   180.004233
	   82 D(6,3,9,8)      =   -179.978518    -0.000006    -0.062665  -180.041183
	   83 D(6,12,7,21)    =    180.000000    -0.000009    -0.041857   179.958143
	   84 D(7,4,9,8)      =    179.966616     0.000008     0.078873   180.045490
	   85 D(7,12,6,20)    =    179.976477    -0.000014    -0.090288   179.886189
	   86 D(8,1,2,10)     =      0.019955     0.000022     0.120605     0.140559
	   87 D(8,1,2,16)     =   -179.883288     0.000023     0.128647  -179.754641
	   88 D(8,9,3,17)     =      0.081883     0.000004    -0.010479     0.071404
	   89 D(8,9,4,18)     =      0.012761     0.000018     0.137861     0.150621
	   90 D(8,11,5,10)    =     -0.017270     0.000029     0.190315     0.173045
	   91 D(8,11,5,19)    =    179.996748     0.000028     0.177149   180.173897
	   92 D(9,3,6,12)     =      0.016252    -0.000008    -0.055854    -0.039602
	   93 D(9,3,6,20)     =   -179.960020     0.000009     0.048906  -179.911113
	   94 D(9,4,7,12)     =      0.008002     0.000002     0.023905     0.031907
	   95 D(9,4,7,21)     =    179.996591     0.000013     0.079007   180.075598
	   96 D(9,8,1,15)     =      0.118384    -0.000000    -0.037135     0.081250
	   97 D(9,8,11,14)    =     -0.038219     0.000032     0.223052     0.184833
	   98 D(10,2,1,15)    =    179.924984    -0.000003    -0.024381   179.900603
	   99 D(10,5,11,14)   =    179.997392    -0.000002    -0.003858   179.993534
	  100 D(11,5,10,13)   =   -179.989865    -0.000013    -0.081632  -180.071497
	  101 D(11,8,1,15)    =   -179.923403     0.000022     0.147828  -179.775575
	  102 D(12,6,3,17)    =    179.957007    -0.000017    -0.107155   179.849852
	  103 D(12,7,4,18)    =    179.962654    -0.000007    -0.034086   179.928568
	  104 D(13,10,2,16)   =     -0.111119    -0.000014    -0.080530    -0.191649
	  105 D(13,10,5,19)   =     -0.004300    -0.000012    -0.068069    -0.072369
	  106 D(14,11,5,19)   =      0.011410    -0.000003    -0.017023    -0.005614
	  107 D(15,1,2,16)    =      0.021741    -0.000002    -0.016338     0.005403
	  108 D(17,3,6,20)    =     -0.019265     0.000000    -0.002395    -0.021660
	  109 D(18,4,7,21)    =     -0.048758     0.000003     0.021017    -0.027741
	  110 D(20,6,12,22)   =     -0.116261    -0.000012    -0.068936    -0.185197
	  111 D(21,7,12,22)   =      0.092631    -0.000011    -0.063014     0.029617
	  112 R(4,14)         =      2.804861    -0.001240    -0.000206     2.804655
	 ---------------------------------------------------------------------------
	Successfully symmetrized geometry.
	 Forces used to impose fixed constraints are not included.
	  Forces zeroed: 62 

  ==> Convergence Check <==

  Measures of convergence in internal coordinates in au.
  Criteria marked as inactive (o), active & met (*), and active & unmet ( ).
  --------------------------------------------------------------------------------------------- ~
   Step     Total Energy     Delta E     MAX Force     RMS Force      MAX Disp      RMS Disp    ~
  --------------------------------------------------------------------------------------------- ~
    Convergence Criteria    1.00e-06 *    3.00e-04 *             o    1.20e-03 *             o  ~
  --------------------------------------------------------------------------------------------- ~
      1    -652.80730882   -6.53e+02      3.34e-02      8.92e-03 o    3.39e-02      9.45e-03 o  ~
  ---------------------------------------------------------------------------------------------

	Writing optimization data to binary file.
	Structure for next step:
	Cartesian Geometry (in Angstrom)
	    C    -1.3638827150   0.7842735778  -0.7704996056
	    C    -2.4354470188   1.3533780278  -0.1072624081
	    C     1.3883020059   0.2614282296  -1.8171469671
	    C     1.2804408534  -1.6677800162  -0.3686927810
	    C    -1.4414863302   0.7258136197   2.0219866372
	    C     2.4502642932  -0.3230003790  -2.4718092592
	    C     2.3443686618  -2.2080191071  -1.0559034963
	    C    -0.3221481088   0.1793947887  -0.0513356543
	    C     0.7851698473  -0.4122876279  -0.7476454124
	    C    -2.4935836646   1.3356216392   1.3041811613
	    C    -0.3796901802   0.1587773540   1.3484113996
	    N     2.8984273170  -1.5311332003  -2.0797482216
	    O    -3.4750073334   1.8584516515   1.9187008149
	    F     0.6124805761  -0.4170380933   2.0511344639
	    H    -1.3397979371   0.8074349621  -1.8553953664
	    H    -3.2277462279   1.8101011982  -0.6893966326
	    H     1.0363490960   1.2337312973  -2.1375033436
	    H     0.8407699062  -2.2191791478   0.4518360934
	    H    -1.4497430454   0.6929157242   3.1054335615
	    H     2.9678878869   0.1322625783  -3.3022015677
	    H     2.7817791793  -3.1681514006  -0.8265843205
	    H     3.6803935242  -1.9454064983  -2.5745857635
			--------------------------
			 OPTKING Finished Execution 
			--------------------------

    Structure for next step:
    Molecular point group: c1
    Full point group: C1

    Geometry (in Angstrom), charge = 0, multiplicity = 1:

    C           -1.362399459780     0.784610665426    -0.770799065795
    C           -2.433963763511     1.353715115501    -0.107561868243
    C            1.389785261143     0.261765317267    -1.817446427284
    C            1.281924108668    -1.667442928510    -0.368992241160
    C           -1.440003074960     0.726150707311     2.021687177076
    C            2.451747548456    -0.322663291381    -2.472108719404
    C            2.345851917035    -2.207682019427    -1.056202956432
    C           -0.320664853577     0.179731876360    -0.051635114464
    C            0.786653102530    -0.411950540264    -0.747944872569
    C           -2.492100409299     1.335958726873     1.303881701172
    C           -0.378206924966     0.159114441695     1.348111939444
    N            2.899910572296    -1.530796112609    -2.080047681815
    O           -3.473524078127     1.858788739128     1.918401354735
    F            0.613963831339    -0.416701005649     2.050835003697
    H           -1.338314681827     0.807772049737    -1.855694826584
    H           -3.226262972643     1.810438285881    -0.689696092757
    H            1.037832351243     1.234068384917    -2.137802803806
    H            0.842253161425    -2.218842060114     0.451536633247
    H           -1.448259790124     0.693252811860     3.105134101293
    H            2.969371142176     0.132599665915    -3.302501027854
    H            2.783262434548    -3.167814312905    -0.826883780712
    H            3.681876779413    -1.945069410657    -2.574885223646

gradient() will perform analytic gradient computation.

*** tstart() called on gpu-1-16.local
*** at Sun Nov 12 02:50:44 2017

    SCF Algorithm Type (re)set to DF.

*** tstart() called on gpu-1-16.local
*** at Sun Nov 12 02:50:44 2017

   => Loading Basis Set <=

    Name: AUG-CC-PVTZ
    Role: ORBITAL
    Keyword: BASIS
    atoms 1-11  entry C          line   221 file /cbio/jclab/home/chayas/anaconda/envs/py35/share/psi4/basis/aug-cc-pvtz.gbs 
    atoms 12    entry N          line   267 file /cbio/jclab/home/chayas/anaconda/envs/py35/share/psi4/basis/aug-cc-pvtz.gbs 
    atoms 13    entry O          line   313 file /cbio/jclab/home/chayas/anaconda/envs/py35/share/psi4/basis/aug-cc-pvtz.gbs 
    atoms 14    entry F          line   359 file /cbio/jclab/home/chayas/anaconda/envs/py35/share/psi4/basis/aug-cc-pvtz.gbs 
    atoms 15-22 entry H          line    34 file /cbio/jclab/home/chayas/anaconda/envs/py35/share/psi4/basis/aug-cc-pvtz.gbs 


         ---------------------------------------------------------
                                   SCF
            by Justin Turney, Rob Parrish, and Andy Simmonett
                              RHF Reference
                        8 Threads,   4768 MiB Core
         ---------------------------------------------------------

  ==> Geometry <==

    Molecular point group: c1
    Full point group: C1

    Geometry (in Angstrom), charge = 0, multiplicity = 1:

       Center              X                  Y                   Z               Mass       
    ------------   -----------------  -----------------  -----------------  -----------------
           C         -1.362399459780     0.784610665426    -0.770799065795    12.000000000000
           C         -2.433963763511     1.353715115501    -0.107561868243    12.000000000000
           C          1.389785261143     0.261765317267    -1.817446427284    12.000000000000
           C          1.281924108668    -1.667442928510    -0.368992241160    12.000000000000
           C         -1.440003074960     0.726150707311     2.021687177076    12.000000000000
           C          2.451747548456    -0.322663291381    -2.472108719404    12.000000000000
           C          2.345851917035    -2.207682019427    -1.056202956432    12.000000000000
           C         -0.320664853577     0.179731876360    -0.051635114464    12.000000000000
           C          0.786653102530    -0.411950540264    -0.747944872569    12.000000000000
           C         -2.492100409299     1.335958726873     1.303881701172    12.000000000000
           C         -0.378206924966     0.159114441695     1.348111939444    12.000000000000
           N          2.899910572296    -1.530796112609    -2.080047681815    14.003074004780
           O         -3.473524078127     1.858788739128     1.918401354735    15.994914619560
           F          0.613963831339    -0.416701005649     2.050835003697    18.998403224000
           H         -1.338314681827     0.807772049737    -1.855694826584     1.007825032070
           H         -3.226262972643     1.810438285881    -0.689696092757     1.007825032070
           H          1.037832351243     1.234068384917    -2.137802803806     1.007825032070
           H          0.842253161425    -2.218842060114     0.451536633247     1.007825032070
           H         -1.448259790124     0.693252811860     3.105134101293     1.007825032070
           H          2.969371142176     0.132599665915    -3.302501027854     1.007825032070
           H          2.783262434548    -3.167814312905    -0.826883780712     1.007825032070
           H          3.681876779413    -1.945069410657    -2.574885223646     1.007825032070

  Running in c1 symmetry.

  Rotational constants: A =      0.06271  B =      0.01346  C =      0.01158 [cm^-1]
  Rotational constants: A =   1880.12038  B =    403.60200  C =    347.24450 [MHz]
  Nuclear repulsion =  817.618624157235331

  Charge       = 0
  Multiplicity = 1
  Electrons    = 98
  Nalpha       = 49
  Nbeta        = 49

  ==> Algorithm <==

  SCF Algorithm Type is DF.
  DIIS enabled.
  MOM disabled.
  Fractional occupation disabled.
  Guess Type is READ.
  Energy threshold   = 1.00e-10
  Density threshold  = 1.00e-10
  Integral threshold = 0.00e+00

  ==> Primary Basis <==

  Basis Set: AUG-CC-PVTZ
    Blend: AUG-CC-PVTZ
    Number of shells: 268
    Number of basis function: 828
    Number of Cartesian functions: 970
    Spherical Harmonics?: true
    Max angular momentum: 3

   => Loading Basis Set <=

    Name: (AUG-CC-PVTZ AUX)
    Role: JKFIT
    Keyword: DF_BASIS_SCF
    atoms 1-11  entry C          line   161 file /cbio/jclab/home/chayas/anaconda/envs/py35/share/psi4/basis/aug-cc-pvtz-jkfit.gbs 
    atoms 12    entry N          line   223 file /cbio/jclab/home/chayas/anaconda/envs/py35/share/psi4/basis/aug-cc-pvtz-jkfit.gbs 
    atoms 13    entry O          line   285 file /cbio/jclab/home/chayas/anaconda/envs/py35/share/psi4/basis/aug-cc-pvtz-jkfit.gbs 
    atoms 14    entry F          line   347 file /cbio/jclab/home/chayas/anaconda/envs/py35/share/psi4/basis/aug-cc-pvtz-jkfit.gbs 
    atoms 15-22 entry H          line    69 file /cbio/jclab/home/chayas/anaconda/envs/py35/share/psi4/basis/aug-cc-pvtz-jkfit.gbs 

  Reading orbitals from file 180, no projection.

  ==> Pre-Iterations <==

   -------------------------------------------------------
    Irrep   Nso     Nmo     Nalpha   Nbeta   Ndocc  Nsocc
   -------------------------------------------------------
     A        828     828       0       0       0       0
   -------------------------------------------------------
    Total     828     828      49      49      49       0
   -------------------------------------------------------

  ==> Integral Setup <==

  ==> DFJK: Density-Fitted J/K Matrices <==

    J tasked:                  Yes
    K tasked:                  Yes
    wK tasked:                  No
    OpenMP threads:              8
    Integrals threads:           8
    Memory (MB):              3576
    Algorithm:                Disk
    Integral Cache:           NONE
    Schwarz Cutoff:          1E-12
    Fitting Condition:       1E-12

   => Auxiliary Basis Set <=

  Basis Set: (AUG-CC-PVTZ AUX)
    Blend: AUG-CC-PVTZ-JKFIT
    Number of shells: 532
    Number of basis function: 1824
    Number of Cartesian functions: 2274
    Spherical Harmonics?: true
    Max angular momentum: 4

  Minimum eigenvalue in the overlap matrix is 7.5210871730E-07.
  Using Symmetric Orthogonalization.

  SCF Guess: Orbitals guess was supplied from a previous computation.

  ==> Iterations <==

                           Total Energy        Delta E     RMS |[F,P]|

   @DF-RHF iter   0:  -650.16125679719960   -6.50161e+02   6.03341e-04 
   @DF-RHF iter   1:  -650.11137214774908    4.98846e-02   9.39790e-05 
   @DF-RHF iter   2:  -650.11176160835953   -3.89461e-04   4.68286e-05 DIIS
   @DF-RHF iter   3:  -650.11197943999537   -2.17832e-04   1.14379e-05 DIIS
   @DF-RHF iter   4:  -650.11200424835306   -2.48084e-05   6.46722e-06 DIIS
   @DF-RHF iter   5:  -650.11201728794697   -1.30396e-05   3.36879e-06 DIIS
   @DF-RHF iter   6:  -650.11202229987532   -5.01193e-06   1.71476e-06 DIIS
   @DF-RHF iter   7:  -650.11202342332922   -1.12345e-06   6.53164e-07 DIIS
   @DF-RHF iter   8:  -650.11202349967300   -7.63438e-08   1.76417e-07 DIIS
   @DF-RHF iter   9:  -650.11202350406620   -4.39320e-09   9.16324e-08 DIIS
   @DF-RHF iter  10:  -650.11202350486542   -7.99218e-10   2.09299e-08 DIIS
   @DF-RHF iter  11:  -650.11202350499877   -1.33355e-10   1.36678e-08 DIIS
   @DF-RHF iter  12:  -650.11202350502549   -2.67164e-11   5.42673e-09 DIIS
   @DF-RHF iter  13:  -650.11202350502685   -1.36424e-12   2.27007e-09 DIIS
   @DF-RHF iter  14:  -650.11202350502356    3.29692e-12   5.12635e-10 DIIS
   @DF-RHF iter  15:  -650.11202350503004   -6.48015e-12   2.54270e-10 DIIS
   @DF-RHF iter  16:  -650.11202350501412    1.59162e-11   1.39982e-10 DIIS
   @DF-RHF iter  17:  -650.11202350503459   -2.04636e-11   6.59814e-11 DIIS

  ==> Post-Iterations <==

    Orbital Energies (a.u.)
    -----------------------

    Doubly Occupied:                                                      

       1A    -26.307636     2A    -20.437999     3A    -15.703636  
       4A    -11.361230     5A    -11.358257     6A    -11.318055  
       7A    -11.316295     8A    -11.289417     9A    -11.286883  
      10A    -11.255447    11A    -11.235097    12A    -11.219779  
      13A    -11.189557    14A    -11.188203    15A     -1.626441  
      16A     -1.384477    17A     -1.266576    18A     -1.183245  
      19A     -1.115534    20A     -1.114582    21A     -1.004040  
      22A     -0.997665    23A     -0.940079    24A     -0.909027  
      25A     -0.840882    26A     -0.828411    27A     -0.806721  
      28A     -0.745506    29A     -0.735114    30A     -0.708643  
      31A     -0.695920    32A     -0.689303    33A     -0.677764  
      34A     -0.668837    35A     -0.653569    36A     -0.616209  
      37A     -0.600151    38A     -0.592922    39A     -0.575418  
      40A     -0.543795    41A     -0.515082    42A     -0.500486  
      43A     -0.487795    44A     -0.465105    45A     -0.423408  
      46A     -0.399701    47A     -0.349144    48A     -0.327428  
      49A     -0.239037  

    Virtual:                                                              

      50A     -0.009049    51A      0.010818    52A      0.015704  
      53A      0.023791    54A      0.035660    55A      0.039959  
      56A      0.044490    57A      0.054224    58A      0.056431  
      59A      0.059930    60A      0.062367    61A      0.069866  
      62A      0.070310    63A      0.078883    64A      0.083263  
      65A      0.092674    66A      0.098763    67A      0.103877  
      68A      0.105200    69A      0.107085    70A      0.117696  
      71A      0.118778    72A      0.123784    73A      0.127659  
      74A      0.128680    75A      0.131752    76A      0.135056  
      77A      0.141464    78A      0.145830    79A      0.150352  
      80A      0.151337    81A      0.160579    82A      0.161204  
      83A      0.164498    84A      0.167500    85A      0.171823  
      86A      0.177974    87A      0.179905    88A      0.184504  
      89A      0.187676    90A      0.193519    91A      0.196006  
      92A      0.205727    93A      0.207484    94A      0.210182  
      95A      0.212250    96A      0.219397    97A      0.224012  
      98A      0.226185    99A      0.230670   100A      0.231614  
     101A      0.239636   102A      0.249533   103A      0.252338  
     104A      0.252862   105A      0.253976   106A      0.257665  
     107A      0.261827   108A      0.268431   109A      0.273760  
     110A      0.277908   111A      0.285211   112A      0.291551  
     113A      0.291868   114A      0.296854   115A      0.297708  
     116A      0.302604   117A      0.306186   118A      0.313244  
     119A      0.317802   120A      0.319651   121A      0.323730  
     122A      0.327772   123A      0.332200   124A      0.338356  
     125A      0.342654   126A      0.346724   127A      0.349202  
     128A      0.353474   129A      0.356584   130A      0.359748  
     131A      0.361374   132A      0.362740   133A      0.376033  
     134A      0.377616   135A      0.379878   136A      0.384127  
     137A      0.386122   138A      0.398555   139A      0.401194  
     140A      0.402900   141A      0.413927   142A      0.415903  
     143A      0.420531   144A      0.422526   145A      0.427616  
     146A      0.432402   147A      0.438951   148A      0.441299  
     149A      0.447047   150A      0.448284   151A      0.453261  
     152A      0.455798   153A      0.457972   154A      0.465452  
     155A      0.468252   156A      0.471750   157A      0.473931  
     158A      0.480421   159A      0.485240   160A      0.487984  
     161A      0.489879   162A      0.491573   163A      0.492069  
     164A      0.494435   165A      0.498707   166A      0.502267  
     167A      0.504733   168A      0.508443   169A      0.515442  
     170A      0.524386   171A      0.525363   172A      0.528340  
     173A      0.532705   174A      0.536473   175A      0.544528  
     176A      0.546320   177A      0.550527   178A      0.557571  
     179A      0.564521   180A      0.567709   181A      0.570979  
     182A      0.577912   183A      0.588516   184A      0.592988  
     185A      0.597788   186A      0.599058   187A      0.601454  
     188A      0.607096   189A      0.612173   190A      0.623413  
     191A      0.631548   192A      0.640441   193A      0.644673  
     194A      0.649559   195A      0.656610   196A      0.662122  
     197A      0.663732   198A      0.671723   199A      0.676367  
     200A      0.682305   201A      0.686359   202A      0.692257  
     203A      0.695143   204A      0.700756   205A      0.705476  
     206A      0.714668   207A      0.720475   208A      0.723384  
     209A      0.728335   210A      0.731410   211A      0.736096  
     212A      0.738286   213A      0.749229   214A      0.752387  
     215A      0.760143   216A      0.764674   217A      0.766315  
     218A      0.774667   219A      0.779762   220A      0.788984  
     221A      0.795618   222A      0.801584   223A      0.812123  
     224A      0.816621   225A      0.821321   226A      0.827088  
     227A      0.836885   228A      0.844663   229A      0.851530  
     230A      0.854627   231A      0.859671   232A      0.867031  
     233A      0.871408   234A      0.874876   235A      0.876595  
     236A      0.881709   237A      0.884405   238A      0.887983  
     239A      0.898909   240A      0.905107   241A      0.908946  
     242A      0.912236   243A      0.915599   244A      0.919211  
     245A      0.921046   246A      0.927414   247A      0.929208  
     248A      0.937067   249A      0.943156   250A      0.945056  
     251A      0.955594   252A      0.958021   253A      0.959052  
     254A      0.962813   255A      0.972873   256A      0.980710  
     257A      0.985257   258A      0.992234   259A      0.995548  
     260A      1.003075   261A      1.010384   262A      1.012555  
[...]
     104A      0.255673   105A      0.258256   106A      0.262047  
     107A      0.266025   108A      0.270342   109A      0.277059  
     110A      0.284002   111A      0.285909   112A      0.289756  
     113A      0.294958   114A      0.296099   115A      0.300961  
     116A      0.303539   117A      0.309203   118A      0.312398  
     119A      0.318174   120A      0.321472   121A      0.326145  
     122A      0.328356   123A      0.334252   124A      0.340866  
     125A      0.343533   126A      0.349279   127A      0.349672  
     128A      0.353446   129A      0.355103   130A      0.356853  
     131A      0.365280   132A      0.368231   133A      0.373190  
     134A      0.382717   135A      0.383299   136A      0.390115  
     137A      0.391029   138A      0.398825   139A      0.401944  
     140A      0.406704   141A      0.413513   142A      0.417760  
     143A      0.423746   144A      0.430114   145A      0.433145  
     146A      0.435579   147A      0.439555   148A      0.442545  
     149A      0.446379   150A      0.450450   151A      0.454735  
     152A      0.455595   153A      0.459309   154A      0.469213  
     155A      0.471713   156A      0.474415   157A      0.476869  
     158A      0.479230   159A      0.482729   160A      0.484851  
     161A      0.486738   162A      0.489045   163A      0.494158  
     164A      0.497464   165A      0.502419   166A      0.509940  
     167A      0.513221   168A      0.517162   169A      0.521489  
     170A      0.524767   171A      0.526269   172A      0.527812  
     173A      0.529267   174A      0.536643   175A      0.541127  
     176A      0.543783   177A      0.549532   178A      0.557689  
     179A      0.562052   180A      0.566883   181A      0.572300  
     182A      0.577960   183A      0.585259   184A      0.592649  
     185A      0.594060   186A      0.603527   187A      0.605800  
     188A      0.610042   189A      0.616615   190A      0.622110  
     191A      0.630262   192A      0.640708   193A      0.644014  
     194A      0.647275   195A      0.651996   196A      0.658928  
     197A      0.661546   198A      0.673055   199A      0.682851  
     200A      0.687298   201A      0.689825   202A      0.693885  
     203A      0.698777   204A      0.700088   205A      0.707385  
     206A      0.713210   207A      0.718030   208A      0.725538  
     209A      0.731356   210A      0.737277   211A      0.747901  
     212A      0.750573   213A      0.752507   214A      0.754821  
     215A      0.764237   216A      0.765570   217A      0.770748  
     218A      0.782923   219A      0.785002   220A      0.789506  
     221A      0.799021   222A      0.806359   223A      0.808862  
     224A      0.813423   225A      0.824863   226A      0.834128  
     227A      0.838318   228A      0.848663   229A      0.853929  
     230A      0.857810   231A      0.862118   232A      0.867574  
     233A      0.870015   234A      0.877567   235A      0.883091  
     236A      0.885094   237A      0.889961   238A      0.893373  
     239A      0.899532   240A      0.903314   241A      0.905532  
     242A      0.913229   243A      0.914144   244A      0.920899  
     245A      0.925329   246A      0.934233   247A      0.935526  
     248A      0.938732   249A      0.941164   250A      0.951383  
     251A      0.952626   252A      0.957672   253A      0.967515  
     254A      0.971064   255A      0.972480   256A      0.976394  
     257A      0.987420   258A      0.989089   259A      0.996940  
     260A      1.000642   261A      1.005092   262A      1.009199  
     263A      1.013112   264A      1.015488   265A      1.019861  
     266A      1.022583   267A      1.030651   268A      1.031720  
     269A      1.036721   270A      1.038321   271A      1.046935  
     272A      1.050141   273A      1.051417   274A      1.056510  
     275A      1.066708   276A      1.069966   277A      1.070704  
     278A      1.074097   279A      1.075266   280A      1.084643  
     281A      1.088873   282A      1.096214   283A      1.108112  
     284A      1.111595   285A      1.115004   286A      1.118143  
     287A      1.119312   288A      1.125367   289A      1.130210  
     290A      1.142530   291A      1.142801   292A      1.149766  
     293A      1.151977   294A      1.158677   295A      1.161364  
     296A      1.164696   297A      1.171729   298A      1.172437  
     299A      1.178897   300A      1.182049   301A      1.184721  
     302A      1.186297   303A      1.202000   304A      1.209696  
     305A      1.212903   306A      1.218569   307A      1.222817  
     308A      1.227369   309A      1.231987   310A      1.236076  
     311A      1.242846   312A      1.253098   313A      1.257659  
     314A      1.259335   315A      1.267501   316A      1.274305  
     317A      1.277695   318A      1.279983   319A      1.286320  
     320A      1.294848   321A      1.300525   322A      1.305358  
     323A      1.308104   324A      1.321041   325A      1.330680  
     326A      1.342311   327A      1.345083   328A      1.352771  
     329A      1.354014   330A      1.363143   331A      1.376169  
     332A      1.379761   333A      1.381326   334A      1.384757  
     335A      1.389190   336A      1.407410   337A      1.413776  
     338A      1.419536   339A      1.424433   340A      1.431323  
     341A      1.438995   342A      1.442433   343A      1.445085  
     344A      1.459070   345A      1.465945   346A      1.474172  
     347A      1.474727   348A      1.482952   349A      1.492664  
     350A      1.497703   351A      1.500537   352A      1.515450  
     353A      1.520695   354A      1.526169   355A      1.532301  
     356A      1.541198   357A      1.553065   358A      1.556289  
     359A      1.561093   360A      1.568957   361A      1.578068  
     362A      1.593875   363A      1.606477   364A      1.611720  
     365A      1.616065   366A      1.621635   367A      1.634349  
     368A      1.639835   369A      1.642989   370A      1.651474  
     371A      1.658445   372A      1.674437   373A      1.677303  
     374A      1.684256   375A      1.691746   376A      1.705710  
     377A      1.712527   378A      1.715005   379A      1.716503  
     380A      1.724075   381A      1.731791   382A      1.740119  
     383A      1.759581   384A      1.764279   385A      1.773951  
     386A      1.783897   387A      1.794283   388A      1.796913  
     389A      1.801728   390A      1.805348   391A      1.820663  
     392A      1.825138   393A      1.829331   394A      1.836926  
     395A      1.850825   396A      1.855837   397A      1.857958  
     398A      1.877176   399A      1.882238   400A      1.887210  
     401A      1.905562   402A      1.914785   403A      1.922762  
     404A      1.927515   405A      1.935414   406A      1.937739  
     407A      1.943726   408A      1.952546   409A      1.965156  
     410A      1.971996   411A      1.977174   412A      1.987780  
     413A      1.994308   414A      1.997841   415A      2.008313  
     416A      2.012538   417A      2.018372   418A      2.022335  
     419A      2.023741   420A      2.037438   421A      2.043277  
     422A      2.058096   423A      2.058884   424A      2.065969  
     425A      2.067450   426A      2.080254   427A      2.089523  
     428A      2.094341   429A      2.105058   430A      2.107816  
     431A      2.124421   432A      2.135853   433A      2.144975  
     434A      2.151148   435A      2.155268   436A      2.164285  
     437A      2.170415   438A      2.179819   439A      2.193824  
     440A      2.206966   441A      2.214686   442A      2.219461  
     443A      2.225437   444A      2.231760   445A      2.242804  
     446A      2.251590   447A      2.272093   448A      2.291263  
     449A      2.298758   450A      2.307337   451A      2.309060  
     452A      2.318672   453A      2.331921   454A      2.345673  
     455A      2.351751   456A      2.358262   457A      2.368026  
     458A      2.375876   459A      2.383126   460A      2.395310  
     461A      2.400253   462A      2.406938   463A      2.426354  
     464A      2.430016   465A      2.445511   466A      2.459609  
     467A      2.467954   468A      2.477587   469A      2.483525  
     470A      2.496076   471A      2.503406   472A      2.515304  
     473A      2.531616   474A      2.537878   475A      2.543530  
     476A      2.552841   477A      2.559782   478A      2.579252  
     479A      2.583052   480A      2.589093   481A      2.625004  
     482A      2.629633   483A      2.633213   484A      2.642080  
     485A      2.666395   486A      2.681352   487A      2.709695  
     488A      2.719955   489A      2.721885   490A      2.732155  
     491A      2.737248   492A      2.744191   493A      2.752113  
     494A      2.763613   495A      2.773037   496A      2.796256  
     497A      2.830999   498A      2.843806   499A      2.859003  
     500A      2.862902   501A      2.881666   502A      2.910675  
     503A      2.927070   504A      2.946737   505A      2.966061  
     506A      2.994461   507A      3.010590   508A      3.019439  
     509A      3.037446   510A      3.053040   511A      3.070970  
     512A      3.087930   513A      3.098073   514A      3.113568  
     515A      3.126941   516A      3.137811   517A      3.154858  
     518A      3.165538   519A      3.183490   520A      3.187007  
     521A      3.219201   522A      3.220252   523A      3.227816  
     524A      3.250428   525A      3.267489   526A      3.281065  
     527A      3.288264   528A      3.306741   529A      3.309379  
     530A      3.312941   531A      3.320318   532A      3.351674  
     533A      3.357466   534A      3.367324   535A      3.378615  
     536A      3.392769   537A      3.399727   538A      3.408709  
     539A      3.415998   540A      3.423943   541A      3.434289  
     542A      3.444217   543A      3.473386   544A      3.474180  
     545A      3.480607   546A      3.486949   547A      3.493537  
     548A      3.503152   549A      3.508831   550A      3.515840  
     551A      3.526245   552A      3.535669   553A      3.544741  
     554A      3.546429   555A      3.559649   556A      3.561940  
     557A      3.575219   558A      3.584539   559A      3.586406  
     560A      3.598628   561A      3.615965   562A      3.620109  
     563A      3.624963   564A      3.633693   565A      3.648402  
     566A      3.652028   567A      3.653743   568A      3.656313  
     569A      3.666789   570A      3.692692   571A      3.704195  
     572A      3.706341   573A      3.716781   574A      3.723115  
     575A      3.743706   576A      3.750570   577A      3.763532  
     578A      3.769396   579A      3.774464   580A      3.780457  
     581A      3.793485   582A      3.800591   583A      3.809423  
     584A      3.811381   585A      3.829090   586A      3.836768  
     587A      3.842876   588A      3.852297   589A      3.861706  
     590A      3.875954   591A      3.881905   592A      3.885111  
     593A      3.902489   594A      3.906216   595A      3.913774  
     596A      3.918349   597A      3.923866   598A      3.937424  
     599A      3.947931   600A      3.955096   601A      3.964326  
     602A      3.974958   603A      3.978288   604A      3.980704  
     605A      3.998031   606A      4.007139   607A      4.020450  
     608A      4.026136   609A      4.035318   610A      4.036219  
     611A      4.053556   612A      4.060864   613A      4.067332  
     614A      4.078859   615A      4.089644   616A      4.090700  
     617A      4.100159   618A      4.105295   619A      4.116923  
     620A      4.131020   621A      4.138275   622A      4.156350  
     623A      4.174281   624A      4.178935   625A      4.184385  
     626A      4.188409   627A      4.198974   628A      4.214555  
     629A      4.228490   630A      4.234291   631A      4.239132  
     632A      4.246953   633A      4.260394   634A      4.264530  
     635A      4.280401   636A      4.287389   637A      4.297152  
     638A      4.306908   639A      4.311558   640A      4.314850  
     641A      4.328202   642A      4.331482   643A      4.337734  
     644A      4.355905   645A      4.364113   646A      4.367217  
     647A      4.378538   648A      4.382774   649A      4.385683  
     650A      4.395864   651A      4.399535   652A      4.415192  
     653A      4.417348   654A      4.431301   655A      4.449354  
     656A      4.458884   657A      4.466339   658A      4.472725  
     659A      4.485011   660A      4.490327   661A      4.494510  
     662A      4.513033   663A      4.516497   664A      4.533188  
     665A      4.539723   666A      4.551110   667A      4.564738  
     668A      4.579321   669A      4.594838   670A      4.598836  
     671A      4.621968   672A      4.638235   673A      4.643376  
     674A      4.661991   675A      4.681856   676A      4.701272  
     677A      4.710736   678A      4.729342   679A      4.743667  
     680A      4.754049   681A      4.765118   682A      4.777132  
     683A      4.797070   684A      4.803070   685A      4.805384  
     686A      4.817651   687A      4.837796   688A      4.853809  
     689A      4.862978   690A      4.876585   691A      4.882317  
     692A      4.910580   693A      4.937042   694A      4.941005  
     695A      4.954310   696A      4.960682   697A      4.975771  
     698A      4.983186   699A      5.005331   700A      5.021583  
     701A      5.043593   702A      5.046066   703A      5.061957  
     704A      5.076086   705A      5.088231   706A      5.103627  
     707A      5.115456   708A      5.120138   709A      5.135077  
     710A      5.139662   711A      5.150012   712A      5.155706  
     713A      5.167659   714A      5.184496   715A      5.194461  
     716A      5.198616   717A      5.204679   718A      5.214449  
     719A      5.238256   720A      5.249514   721A      5.255386  
     722A      5.269120   723A      5.287487   724A      5.297203  
     725A      5.329471   726A      5.345061   727A      5.361793  
     728A      5.398624   729A      5.417116   730A      5.428300  
     731A      5.433980   732A      5.456693   733A      5.475710  
     734A      5.484687   735A      5.512425   736A      5.524706  
     737A      5.546268   738A      5.555789   739A      5.586930  
     740A      5.612589   741A      5.636035   742A      5.642721  
     743A      5.663616   744A      5.679267   745A      5.732739  
     746A      5.735526   747A      5.752196   748A      5.778517  
     749A      5.792932   750A      5.808063   751A      5.824043  
     752A      5.833021   753A      5.862040   754A      5.894330  
     755A      5.930307   756A      5.962991   757A      5.990704  
     758A      6.002777   759A      6.058973   760A      6.081023  
     761A      6.111276   762A      6.136923   763A      6.148034  
     764A      6.173912   765A      6.206282   766A      6.253211  
     767A      6.301298   768A      6.344118   769A      6.357946  
     770A      6.400627   771A      6.475319   772A      6.509843  
     773A      6.568184   774A      6.595750   775A      6.644485  
     776A      6.661675   777A      6.678319   778A      6.686565  
     779A      6.736638   780A      6.741015   781A      6.786191  
     782A      6.824764   783A      6.851650   784A      6.930626  
     785A      6.960962   786A      6.994127   787A      7.038050  
     788A      7.056708   789A      7.092406   790A      7.125052  
     791A      7.164205   792A      7.238069   793A      7.414785  
     794A      7.451027   795A      7.493780   796A      7.572602  
     797A      7.694006   798A      7.779300   799A      7.815196  
     800A      7.881286   801A      7.972722   802A      8.060226  
     803A      9.076613   804A      9.104334   805A      9.282104  
     806A      9.307105   807A      9.444677   808A      9.525993  
     809A      9.586264   810A      9.631579   811A      9.665284  
     812A      9.724639   813A     10.045456   814A     10.101513  
     815A     15.926327   816A     16.304250   817A     16.709384  
     818A     16.793719   819A     16.943600   820A     17.083960  
     821A     18.872933   822A     19.159658   823A     19.687309  
     824A     19.907350   825A     20.128311   826A     20.380132  
     827A     20.747347   828A     21.787121  

    Final Occupation by Irrep:
              A 
    DOCC [    49 ]

  Energy converged.

  @DF-RHF Final Energy:  -650.13115123671002

   => Energetics <=

    Nuclear Repulsion Energy =            815.2028471038995576
    One-Electron Energy =               -2505.2093342716966617
    Two-Electron Energy =                1039.8753359310869655
    DFT Exchange-Correlation Energy =       0.0000000000000000
    Empirical Dispersion Energy =           0.0000000000000000
    PCM Polarization Energy =               0.0000000000000000
    EFP Energy =                            0.0000000000000000
    Total Energy =                       -650.1311512367101386



Properties will be evaluated at   0.000000,   0.000000,   0.000000 Bohr

Properties computed using the SCF density matrix

  Nuclear Dipole Moment: (a.u.)
     X:     4.8576      Y:    -1.9798      Z:    -9.1682

  Electronic Dipole Moment: (a.u.)
     X:    -0.3563      Y:    -0.4217      Z:     5.8781

  Dipole Moment: (a.u.)
     X:     4.5013      Y:    -2.4014      Z:    -3.2901     Total:     6.0707

  Dipole Moment: (Debye)
     X:    11.4412      Y:    -6.1039      Z:    -8.3626     Total:    15.4302


*** tstop() called on gpu-1-16.local at Mon Nov 13 01:49:20 2017
Module time:
	user time   =     837.84 seconds =      13.96 minutes
	system time =      39.63 seconds =       0.66 minutes
	total time  =        361 seconds =       6.02 minutes
Total time:
	user time   =  179396.52 seconds =    2989.94 minutes
	system time =    3536.31 seconds =      58.94 minutes
	total time  =      85536 seconds =    1425.60 minutes

  //>>>>>>>>>>>>>>>>>>>>>>>>>>>>>>>>>>>//
  //               DFMP2               //
  //<<<<<<<<<<<<<<<<<<<<<<<<<<<<<<<<<<<//

   => Loading Basis Set <=

    Name: (AUG-CC-PVTZ AUX)
    Role: RIFIT
    Keyword: DF_BASIS_MP2
    atoms 1-11  entry C          line   147 file /cbio/jclab/home/chayas/anaconda/envs/py35/share/psi4/basis/aug-cc-pvtz-ri.gbs 
    atoms 12    entry N          line   205 file /cbio/jclab/home/chayas/anaconda/envs/py35/share/psi4/basis/aug-cc-pvtz-ri.gbs 
    atoms 13    entry O          line   263 file /cbio/jclab/home/chayas/anaconda/envs/py35/share/psi4/basis/aug-cc-pvtz-ri.gbs 
    atoms 14    entry F          line   321 file /cbio/jclab/home/chayas/anaconda/envs/py35/share/psi4/basis/aug-cc-pvtz-ri.gbs 
    atoms 15-22 entry H          line    29 file /cbio/jclab/home/chayas/anaconda/envs/py35/share/psi4/basis/aug-cc-pvtz-ri.gbs 

	 --------------------------------------------------------
	                          DF-MP2                         
	      2nd-Order Density-Fitted Moller-Plesset Theory     
	              RMP2 Wavefunction,   8 Threads             
	                                                         
	        Rob Parrish, Justin Turney, Andy Simmonett,      
	           Ed Hohenstein, and C. David Sherrill          
	 --------------------------------------------------------

   => Auxiliary Basis Set <=

  Basis Set: (AUG-CC-PVTZ AUX)
    Blend: AUG-CC-PVTZ-RI
    Number of shells: 504
    Number of basis function: 1852
    Number of Cartesian functions: 2344
    Spherical Harmonics?: true
    Max angular momentum: 4

	 --------------------------------------------------------
	                 NBF =   828, NAUX =  1852
	 --------------------------------------------------------
	   CLASS    FOCC     OCC    AOCC    AVIR     VIR    FVIR
	   PAIRS       0      49      49     779     779       0
	 --------------------------------------------------------

