
    -----------------------------------------------------------------------
          Psi4: An Open-Source Ab Initio Electronic Structure Package
                               Psi4 1.1 release

                         Git: Rev {HEAD} add49b9 


    R. M. Parrish, L. A. Burns, D. G. A. Smith, A. C. Simmonett,
    A. E. DePrince III, E. G. Hohenstein, U. Bozkaya, A. Yu. Sokolov,
    R. Di Remigio, R. M. Richard, J. F. Gonthier, A. M. James,
    H. R. McAlexander, A. Kumar, M. Saitow, X. Wang, B. P. Pritchard,
    P. Verma, H. F. Schaefer III, K. Patkowski, R. A. King, E. F. Valeev,
    F. A. Evangelista, J. M. Turney, T. D. Crawford, and C. D. Sherrill,
    J. Chem. Theory Comput. in press (2017).
    (doi: 10.1021/acs.jctc.7b00174)

    -----------------------------------------------------------------------


    Psi4 started on: Sunday, 12 November 2017 09:04AM

    Process ID:  21009
    PSIDATADIR: /cbio/jclab/home/chayas/anaconda/envs/py35/share/psi4
    Memory:     500.0 MiB
    Threads:    8
    
  ==> Input File <==

--------------------------------------------------------------------------

memory 5 Gb

molecule phepyrOH_cation {
  symmetry C1
  1 1 
  C      1.885   -1.036   -0.112
  C      2.878   -1.652   2.002
  C      0.807   -0.463   0.561
  C      1.800   -1.079   2.676
  C      4.440   -1.719   -1.322
  C      4.716   -3.305   0.469
  C      5.516   -2.309   -1.970
  C      5.786   -3.855   -0.224
  C      2.921   -1.631   0.608
  C      4.040   -2.225   -0.090
  C      0.764   -0.484   1.955
  N      6.150   -3.348   -1.409
  O      -0.288   0.076   2.612
  H      1.904   -1.012   -1.199
  H      3.678   -2.112   2.578
  H      0.003   -0.001   -0.006
  H      1.772   -1.098   3.762
  H      3.931   -0.877   -1.782
  H      4.425   -3.721   1.429
  H      5.897   -1.982   -2.928
  H      6.368   -4.693   0.134
  H      6.938   -3.767   -1.902
  H      -0.027   0.924   3.005
  units Angstrom
}

dih_string = "3 11 13 23 255"
set optking fixed_dihedral = $dih_string

optimize('MP2/aug-cc-PVTZ')
--------------------------------------------------------------------------

  Memory set to   4.657 GiB by Python driver.
gradient() will perform analytic gradient computation.

*** tstart() called on gpu-1-6.local
*** at Sun Nov 12 09:04:58 2017

    SCF Algorithm Type (re)set to DF.

*** tstart() called on gpu-1-6.local
*** at Sun Nov 12 09:04:58 2017

   => Loading Basis Set <=

    Name: AUG-CC-PVTZ
    Role: ORBITAL
    Keyword: BASIS
    atoms 1-11  entry C          line   221 file /cbio/jclab/home/chayas/anaconda/envs/py35/share/psi4/basis/aug-cc-pvtz.gbs 
    atoms 12    entry N          line   267 file /cbio/jclab/home/chayas/anaconda/envs/py35/share/psi4/basis/aug-cc-pvtz.gbs 
    atoms 13    entry O          line   313 file /cbio/jclab/home/chayas/anaconda/envs/py35/share/psi4/basis/aug-cc-pvtz.gbs 
    atoms 14-23 entry H          line    34 file /cbio/jclab/home/chayas/anaconda/envs/py35/share/psi4/basis/aug-cc-pvtz.gbs 


         ---------------------------------------------------------
                                   SCF
            by Justin Turney, Rob Parrish, and Andy Simmonett
                              RHF Reference
                        8 Threads,   4768 MiB Core
         ---------------------------------------------------------

  ==> Geometry <==

    Molecular point group: c1
    Full point group: C1

    Geometry (in Angstrom), charge = 1, multiplicity = 1:

       Center              X                  Y                   Z               Mass       
    ------------   -----------------  -----------------  -----------------  -----------------
           C         -1.272381754702     0.714649499123    -0.575745450138    12.000000000000
           C         -0.279381754702     0.098649499123     1.538254549862    12.000000000000
           C         -2.350381754702     1.287649499123     0.097254549862    12.000000000000
           C         -1.357381754702     0.671649499123     2.212254549862    12.000000000000
           C          1.282618245298     0.031649499123    -1.785745450138    12.000000000000
           C          1.558618245298    -1.554350500877     0.005254549862    12.000000000000
           C          2.358618245298    -0.558350500877    -2.433745450138    12.000000000000
           C          2.628618245298    -2.104350500877    -0.687745450138    12.000000000000
           C         -0.236381754702     0.119649499123     0.144254549862    12.000000000000
           C          0.882618245298    -0.474350500877    -0.553745450138    12.000000000000
           C         -2.393381754702     1.266649499123     1.491254549862    12.000000000000
           N          2.992618245298    -1.597350500877    -1.872745450138    14.003074004780
           O         -3.445381754702     1.826649499123     2.148254549862    15.994914619560
           H         -1.253381754702     0.738649499123    -1.662745450138     1.007825032070
           H          0.520618245298    -0.361350500877     2.114254549862     1.007825032070
           H         -3.154381754702     1.749649499123    -0.469745450138     1.007825032070
           H         -1.385381754702     0.652649499123     3.298254549862     1.007825032070
           H          0.773618245298     0.873649499123    -2.245745450138     1.007825032070
           H          1.267618245298    -1.970350500877     0.965254549862     1.007825032070
           H          2.739618245298    -0.231350500877    -3.391745450138     1.007825032070
           H          3.210618245298    -2.942350500877    -0.329745450138     1.007825032070
           H          3.780618245298    -2.016350500877    -2.365745450138     1.007825032070
           H         -3.184381754702     2.674649499123     2.541254549862     1.007825032070

  Running in c1 symmetry.

  Rotational constants: A =      0.09612  B =      0.01335  C =      0.01193 [cm^-1]
  Rotational constants: A =   2881.69875  B =    400.18129  C =    357.60390 [MHz]
  Nuclear repulsion =  713.148152196532919

  Charge       = 1
  Multiplicity = 1
  Electrons    = 90
  Nalpha       = 45
  Nbeta        = 45

  ==> Algorithm <==

  SCF Algorithm Type is DF.
  DIIS enabled.
  MOM disabled.
  Fractional occupation disabled.
  Guess Type is SAD.
  Energy threshold   = 1.00e-10
  Density threshold  = 1.00e-10
  Integral threshold = 0.00e+00

  ==> Primary Basis <==

  Basis Set: AUG-CC-PVTZ
    Blend: AUG-CC-PVTZ
    Number of shells: 272
    Number of basis function: 828
    Number of Cartesian functions: 965
    Spherical Harmonics?: true
    Max angular momentum: 3

   => Loading Basis Set <=

    Name: (AUG-CC-PVTZ AUX)
    Role: JKFIT
    Keyword: DF_BASIS_SCF
    atoms 1-11  entry C          line   161 file /cbio/jclab/home/chayas/anaconda/envs/py35/share/psi4/basis/aug-cc-pvtz-jkfit.gbs 
    atoms 12    entry N          line   223 file /cbio/jclab/home/chayas/anaconda/envs/py35/share/psi4/basis/aug-cc-pvtz-jkfit.gbs 
    atoms 13    entry O          line   285 file /cbio/jclab/home/chayas/anaconda/envs/py35/share/psi4/basis/aug-cc-pvtz-jkfit.gbs 
    atoms 14-23 entry H          line    69 file /cbio/jclab/home/chayas/anaconda/envs/py35/share/psi4/basis/aug-cc-pvtz-jkfit.gbs 

  ==> Pre-Iterations <==

   -------------------------------------------------------
    Irrep   Nso     Nmo     Nalpha   Nbeta   Ndocc  Nsocc
   -------------------------------------------------------
     A        828     828       0       0       0       0
   -------------------------------------------------------
    Total     828     828      45      45      45       0
   -------------------------------------------------------

  ==> Integral Setup <==

  ==> DFJK: Density-Fitted J/K Matrices <==

    J tasked:                  Yes
    K tasked:                  Yes
    wK tasked:                  No
    OpenMP threads:              8
    Integrals threads:           8
    Memory (MB):              3576
    Algorithm:                Disk
    Integral Cache:           NONE
    Schwarz Cutoff:          1E-12
    Fitting Condition:       1E-12

   => Auxiliary Basis Set <=

  Basis Set: (AUG-CC-PVTZ AUX)
    Blend: AUG-CC-PVTZ-JKFIT
    Number of shells: 530
    Number of basis function: 1812
    Number of Cartesian functions: 2253
    Spherical Harmonics?: true
    Max angular momentum: 4

  Minimum eigenvalue in the overlap matrix is 6.0659779661E-07.
  Using Symmetric Orthogonalization.

  SCF Guess: Superposition of Atomic Densities via on-the-fly atomic UHF.

  ==> Iterations <==

                           Total Energy        Delta E     RMS |[F,P]|

   @DF-RHF iter   0:  -554.77686014770927   -5.54777e+02   1.85567e-02 
   @DF-RHF iter   1:  -551.28999828682549    3.48686e+00   1.91262e-03 
   @DF-RHF iter   2:  -551.60568649009031   -3.15688e-01   9.25192e-04 DIIS
   @DF-RHF iter   3:  -551.65518009053199   -4.94936e-02   2.60444e-04 DIIS
   @DF-RHF iter   4:  -551.66854031641321   -1.33602e-02   1.38685e-04 DIIS
   @DF-RHF iter   5:  -551.67020670164686   -1.66639e-03   5.30255e-05 DIIS
   @DF-RHF iter   6:  -551.67059396656566   -3.87265e-04   1.95990e-05 DIIS
   @DF-RHF iter   7:  -551.67064990853055   -5.59420e-05   7.64597e-06 DIIS
   @DF-RHF iter   8:  -551.67065824703513   -8.33850e-06   3.38640e-06 DIIS
   @DF-RHF iter   9:  -551.67066149070820   -3.24367e-06   1.78443e-06 DIIS
   @DF-RHF iter  10:  -551.67066245916146   -9.68453e-07   7.87100e-07 DIIS
   @DF-RHF iter  11:  -551.67066258904072   -1.29879e-07   2.00052e-07 DIIS
   @DF-RHF iter  12:  -551.67066259808087   -9.04015e-09   6.53686e-08 DIIS
   @DF-RHF iter  13:  -551.67066259872911   -6.48242e-10   2.35166e-08 DIIS
   @DF-RHF iter  14:  -551.67066259885848   -1.29376e-10   7.72266e-09 DIIS
   @DF-RHF iter  15:  -551.67066259886326   -4.77485e-12   4.45214e-09 DIIS
   @DF-RHF iter  16:  -551.67066259886917   -5.91172e-12   2.29608e-09 DIIS
   @DF-RHF iter  17:  -551.67066259887486   -5.68434e-12   8.24619e-10 DIIS
   @DF-RHF iter  18:  -551.67066259888168   -6.82121e-12   4.26226e-10 DIIS
   @DF-RHF iter  19:  -551.67066259886542    1.62572e-11   1.71846e-10 DIIS
   @DF-RHF iter  20:  -551.67066259887156   -6.13909e-12   4.24657e-11 DIIS

  ==> Post-Iterations <==

    Orbital Energies (a.u.)
    -----------------------

    Doubly Occupied:                                                      

       1A    -20.687427     2A    -15.835311     3A    -11.485604  
       4A    -11.485563     5A    -11.447322     6A    -11.424630  
       7A    -11.416143     8A    -11.416109     9A    -11.377142  
      10A    -11.376578    11A    -11.375084    12A    -11.355826  
      13A    -11.355112    14A     -1.512889    15A     -1.507149  
      16A     -1.322210    17A     -1.263564    18A     -1.238580  
      19A     -1.153818    20A     -1.149944    21A     -1.069774  
      22A     -1.054470    23A     -0.969509    24A     -0.963639  
      25A     -0.949839    26A     -0.868340    27A     -0.859356  
      28A     -0.853595    29A     -0.820574    30A     -0.800248  
      31A     -0.780872    32A     -0.770846    33A     -0.756248  
      34A     -0.746575    35A     -0.725070    36A     -0.706348  
      37A     -0.705701    38A     -0.658550    39A     -0.651826  
      40A     -0.636790    41A     -0.591604    42A     -0.576612  
      43A     -0.538601    44A     -0.467243    45A     -0.448486  

    Virtual:                                                              

      46A     -0.107903    47A     -0.085321    48A     -0.065104  
      49A     -0.063274    50A     -0.059954    51A     -0.049838  
      52A     -0.042141    53A     -0.041272    54A     -0.035387  
      55A     -0.029699    56A     -0.026322    57A     -0.022994  
      58A     -0.018116    59A     -0.010593    60A     -0.006571  
      61A     -0.006188    62A      0.004590    63A      0.005530  
      64A      0.008323    65A      0.012773    66A      0.016536  
      67A      0.018775    68A      0.023515    69A      0.025804  
      70A      0.028498    71A      0.033037    72A      0.036906  
      73A      0.037832    74A      0.042395    75A      0.045567  
      76A      0.052045    77A      0.054228    78A      0.055857  
      79A      0.060786    80A      0.063178    81A      0.068483  
      82A      0.070478    83A      0.073192    84A      0.077567  
      85A      0.082329    86A      0.086706    87A      0.088617  
      88A      0.093910    89A      0.096917    90A      0.108379  
      91A      0.109737    92A      0.113818    93A      0.117044  
      94A      0.122842    95A      0.125467    96A      0.129506  
      97A      0.132079    98A      0.136773    99A      0.138947  
     100A      0.143550   101A      0.152670   102A      0.158497  
     103A      0.159183   104A      0.163539   105A      0.167102  
     106A      0.167698   107A      0.170627   108A      0.173262  
     109A      0.179970   110A      0.181434   111A      0.188124  
     112A      0.189562   113A      0.195140   114A      0.197529  
     115A      0.201791   116A      0.206108   117A      0.211773  
     118A      0.212627   119A      0.214771   120A      0.224697  
     121A      0.226639   122A      0.227798   123A      0.230877  
     124A      0.232530   125A      0.232897   126A      0.238357  
     127A      0.244099   128A      0.248558   129A      0.250643  
     130A      0.255278   131A      0.258484   132A      0.267240  
     133A      0.274647   134A      0.278262   135A      0.279655  
     136A      0.281147   137A      0.288586   138A      0.290136  
     139A      0.293044   140A      0.301837   141A      0.303389  
     142A      0.311632   143A      0.312504   144A      0.319884  
     145A      0.322928   146A      0.326005   147A      0.327445  
     148A      0.333941   149A      0.337157   150A      0.338900  
     151A      0.339653   152A      0.346231   153A      0.352249  
     154A      0.353541   155A      0.357875   156A      0.359845  
     157A      0.363137   158A      0.367982   159A      0.370855  
     160A      0.375529   161A      0.376622   162A      0.379376  
     163A      0.384609   164A      0.385853   165A      0.393590  
     166A      0.394910   167A      0.398817   168A      0.402603  
     169A      0.403874   170A      0.407278   171A      0.408486  
     172A      0.415087   173A      0.420043   174A      0.421228  
     175A      0.423294   176A      0.426999   177A      0.430571  
     178A      0.435748   179A      0.441979   180A      0.445376  
     181A      0.451031   182A      0.451843   183A      0.460908  
     184A      0.465941   185A      0.470565   186A      0.474238  
     187A      0.483084   188A      0.490157   189A      0.498025  
     190A      0.500561   191A      0.508574   192A      0.511088  
     193A      0.514260   194A      0.526386   195A      0.528930  
     196A      0.533799   197A      0.539360   198A      0.547511  
     199A      0.550766   200A      0.561115   201A      0.569063  
     202A      0.570866   203A      0.573677   204A      0.580132  
     205A      0.583632   206A      0.585938   207A      0.587691  
     208A      0.599891   209A      0.605451   210A      0.608692  
     211A      0.615593   212A      0.622298   213A      0.625358  
     214A      0.625748   215A      0.631788   216A      0.638711  
     217A      0.643518   218A      0.650115   219A      0.659272  
     220A      0.659291   221A      0.667274   222A      0.668779  
     223A      0.675947   224A      0.678996   225A      0.698282  
     226A      0.700314   227A      0.711196   228A      0.712520  
     229A      0.718099   230A      0.718680   231A      0.726402  
     232A      0.732764   233A      0.738086   234A      0.741257  
     235A      0.744323   236A      0.750732   237A      0.756440  
     238A      0.757025   239A      0.763514   240A      0.769224  
     241A      0.773387   242A      0.782991   243A      0.785507  
     244A      0.792829   245A      0.793494   246A      0.798959  
     247A      0.800503   248A      0.803124   249A      0.808853  
     250A      0.813219   251A      0.819421   252A      0.824485  
     253A      0.825286   254A      0.839763   255A      0.842367  
     256A      0.844789   257A      0.848003   258A      0.855730  
     259A      0.858776   260A      0.861861   261A      0.865388  
     262A      0.871260   263A      0.874634   264A      0.879654  
     265A      0.881558   266A      0.889454   267A      0.892585  
     268A      0.897387   269A      0.900268   270A      0.902549  
     271A      0.911473   272A      0.915392   273A      0.922241  
     274A      0.924265   275A      0.926971   276A      0.933135  
     277A      0.935406   278A      0.937470   279A      0.950188  
     280A      0.955304   281A      0.958426   282A      0.963159  
     283A      0.966684   284A      0.969861   285A      0.971607  
     286A      0.979713   287A      0.984755   288A      0.987471  
     289A      0.992313   290A      0.998192   291A      0.999049  
     292A      1.002559   293A      1.003119   294A      1.011429  
     295A      1.013664   296A      1.015007   297A      1.022366  
     298A      1.028253   299A      1.033004   300A      1.044047  
     301A      1.048911   302A      1.050192   303A      1.054559  
     304A      1.060579   305A      1.062420   306A      1.065786  
     307A      1.074598   308A      1.077004   309A      1.083270  
     310A      1.086161   311A      1.088237   312A      1.091752  
     313A      1.097144   314A      1.103791   315A      1.110853  
     316A      1.112320   317A      1.121072   318A      1.123159  
     319A      1.128783   320A      1.138898   321A      1.145267  
     322A      1.146690   323A      1.157649   324A      1.157865  
     325A      1.162161   326A      1.167191   327A      1.177507  
     328A      1.182162   329A      1.185057   330A      1.194736  
     331A      1.206185   332A      1.212209   333A      1.217145  
     334A      1.227660   335A      1.233751   336A      1.236088  
     337A      1.240922   338A      1.244503   339A      1.249532  
     340A      1.259913   341A      1.268225   342A      1.271937  
     343A      1.285501   344A      1.291945   345A      1.298144  
     346A      1.303098   347A      1.304366   348A      1.316222  
     349A      1.322315   350A      1.330057   351A      1.332761  
     352A      1.338034   353A      1.352865   354A      1.358520  
     355A      1.360449   356A      1.376865   357A      1.384395  
     358A      1.386590   359A      1.395818   360A      1.404400  
     361A      1.406678   362A      1.412323   363A      1.422158  
     364A      1.424087   365A      1.429672   366A      1.439898  
     367A      1.444806   368A      1.450475   369A      1.454398  
     370A      1.472257   371A      1.485599   372A      1.488172  
     373A      1.493689   374A      1.498254   375A      1.509858  
     376A      1.520030   377A      1.525430   378A      1.537724  
     379A      1.549464   380A      1.551903   381A      1.559205  
     382A      1.560543   383A      1.567478   384A      1.572619  
     385A      1.580223   386A      1.584621   387A      1.597202  
     388A      1.601869   389A      1.615880   390A      1.638101  
     391A      1.646431   392A      1.652122   393A      1.663610  
     394A      1.667511   395A      1.670652   396A      1.680435  
     397A      1.687347   398A      1.694843   399A      1.699868  
     400A      1.707569   401A      1.708618   402A      1.713339  
     403A      1.720454   404A      1.734225   405A      1.739850  
     406A      1.745249   407A      1.759779   408A      1.767184  
     409A      1.776890   410A      1.782570   411A      1.788660  
     412A      1.795092   413A      1.804378   414A      1.812749  
     415A      1.818921   416A      1.830198   417A      1.832150  
     418A      1.846178   419A      1.854521   420A      1.865894  
     421A      1.870236   422A      1.872223   423A      1.881086  
     424A      1.888390   425A      1.896843   426A      1.903346  
     427A      1.908775   428A      1.914113   429A      1.918418  
     430A      1.936129   431A      1.936251   432A      1.943326  
     433A      1.950131   434A      1.951408   435A      1.958209  
     436A      1.963179   437A      1.966791   438A      1.973415  
     439A      1.993211   440A      2.001723   441A      2.002777  
     442A      2.006841   443A      2.017835   444A      2.025335  
     445A      2.033255   446A      2.040394   447A      2.058529  
     448A      2.061157   449A      2.063495   450A      2.074690  
     451A      2.080808   452A      2.083970   453A      2.093120  
     454A      2.105875   455A      2.117225   456A      2.139584  
     457A      2.151616   458A      2.161924   459A      2.188065  
     460A      2.197614   461A      2.199020   462A      2.202191  
     463A      2.212930   464A      2.221165   465A      2.225059  
     466A      2.236166   467A      2.243154   468A      2.254672  
     469A      2.255669   470A      2.271131   471A      2.279096  
     472A      2.293230   473A      2.296104   474A      2.306580  
     475A      2.322317   476A      2.333591   477A      2.340098  
     478A      2.353086   479A      2.360397   480A      2.377798  
     481A      2.393285   482A      2.399646   483A      2.407222  
     484A      2.413535   485A      2.417674   486A      2.431089  
     487A      2.443110   488A      2.446464   489A      2.463187  
     490A      2.473865   491A      2.482844   492A      2.503083  
     493A      2.518031   494A      2.545801   495A      2.551399  
     496A      2.569534   497A      2.580614   498A      2.587615  
     499A      2.601568   500A      2.611110   501A      2.625956  
     502A      2.646602   503A      2.655272   504A      2.666717  
     505A      2.686039   506A      2.693289   507A      2.729242  
     508A      2.737508   509A      2.737590   510A      2.767416  
     511A      2.791397   512A      2.794335   513A      2.838037  
     514A      2.849955   515A      2.869233   516A      2.880167  
     517A      2.897110   518A      2.932359   519A      2.945561  
     520A      2.959461   521A      2.984485   522A      2.991016  
     523A      2.998125   524A      3.009226   525A      3.033383  
     526A      3.053210   527A      3.064343   528A      3.069308  
     529A      3.084058   530A      3.093478   531A      3.126040  
     532A      3.139836   533A      3.165049   534A      3.175592  
     535A      3.189972   536A      3.192609   537A      3.215097  
     538A      3.216380   539A      3.221269   540A      3.230617  
     541A      3.244438   542A      3.259631   543A      3.263509  
     544A      3.269877   545A      3.281539   546A      3.284464  
     547A      3.295760   548A      3.316287   549A      3.328301  
     550A      3.346022   551A      3.354060   552A      3.362286  
     553A      3.376064   554A      3.380744   555A      3.387113  
     556A      3.390675   557A      3.395159   558A      3.410962  
     559A      3.414259   560A      3.416828   561A      3.429967  
     562A      3.438767   563A      3.443435   564A      3.456368  
     565A      3.465945   566A      3.469242   567A      3.470969  
     568A      3.486812   569A      3.501588   570A      3.507316  
     571A      3.509601   572A      3.532773   573A      3.545954  
     574A      3.559022   575A      3.560078   576A      3.566209  
     577A      3.573589   578A      3.597449   579A      3.602548  
     580A      3.613245   581A      3.625623   582A      3.631754  
     583A      3.638920   584A      3.651486   585A      3.659493  
     586A      3.662045   587A      3.664959   588A      3.681447  
     589A      3.698672   590A      3.704414   591A      3.709950  
     592A      3.718948   593A      3.729666   594A      3.734945  
     595A      3.747246   596A      3.758655   597A      3.769414  
     598A      3.773105   599A      3.780646   600A      3.785613  
     601A      3.801543   602A      3.808047   603A      3.819223  
     604A      3.823641   605A      3.838223   606A      3.842684  
     607A      3.849375   608A      3.862411   609A      3.863228  
     610A      3.874085   611A      3.880227   612A      3.883609  
     613A      3.893643   614A      3.894263   615A      3.895748  
     616A      3.913953   617A      3.934458   618A      3.937914  
     619A      3.944084   620A      3.958083   621A      3.965831  
     622A      3.984079   623A      3.990480   624A      3.994076  
     625A      4.008772   626A      4.027624   627A      4.039618  
     628A      4.041750   629A      4.054285   630A      4.056574  
     631A      4.063552   632A      4.075549   633A      4.080523  
     634A      4.086673   635A      4.101314   636A      4.107951  
     637A      4.110584   638A      4.128043   639A      4.137906  
     640A      4.143335   641A      4.144971   642A      4.155129  
     643A      4.165516   644A      4.175935   645A      4.192088  
     646A      4.196954   647A      4.199463   648A      4.210720  
     649A      4.221817   650A      4.226322   651A      4.233640  
     652A      4.244994   653A      4.251496   654A      4.252897  
     655A      4.264752   656A      4.271620   657A      4.283106  
     658A      4.288621   659A      4.299718   660A      4.301614  
     661A      4.320390   662A      4.326283   663A      4.333544  
     664A      4.349314   665A      4.363517   666A      4.370139  
     667A      4.372719   668A      4.375649   669A      4.385173  
     670A      4.408809   671A      4.409749   672A      4.434330  
     673A      4.443579   674A      4.444604   675A      4.451478  
     676A      4.460007   677A      4.494198   678A      4.501681  
     679A      4.520215   680A      4.533918   681A      4.537647  
     682A      4.551878   683A      4.564946   684A      4.582606  
     685A      4.598600   686A      4.607706   687A      4.610846  
     688A      4.627334   689A      4.646004   690A      4.652599  
     691A      4.660675   692A      4.662016   693A      4.681380  
     694A      4.697214   695A      4.712407   696A      4.732385  
     697A      4.743916   698A      4.756043   699A      4.762610  
     700A      4.770563   701A      4.782404   702A      4.800214  
     703A      4.810047   704A      4.828586   705A      4.833997  
     706A      4.856229   707A      4.860215   708A      4.875825  
     709A      4.894055   710A      4.905656   711A      4.911052  
     712A      4.926231   713A      4.940013   714A      4.952286  
     715A      4.956147   716A      4.964010   717A      4.965820  
     718A      4.978751   719A      4.991914   720A      5.002787  
     721A      5.008889   722A      5.023791   723A      5.025801  
     724A      5.042601   725A      5.052989   726A      5.066274  
     727A      5.081963   728A      5.087064   729A      5.104136  
     730A      5.139397   731A      5.145921   732A      5.152834  
     733A      5.176401   734A      5.182872   735A      5.194305  
     736A      5.206992   737A      5.208022   738A      5.243738  
     739A      5.247820   740A      5.266567   741A      5.281603  
     742A      5.298779   743A      5.305784   744A      5.325841  
     745A      5.352843   746A      5.366942   747A      5.373001  
     748A      5.388629   749A      5.418290   750A      5.439242  
     751A      5.449586   752A      5.510127   753A      5.515291  
     754A      5.547553   755A      5.560582   756A      5.570571  
     757A      5.591110   758A      5.609744   759A      5.615231  
     760A      5.624941   761A      5.637223   762A      5.677929  
     763A      5.692368   764A      5.697841   765A      5.722126  
     766A      5.733235   767A      5.778753   768A      5.825837  
     769A      5.841595   770A      5.860924   771A      5.936384  
     772A      5.940193   773A      5.981666   774A      5.993709  
     775A      6.013795   776A      6.049654   777A      6.105673  
     778A      6.121885   779A      6.141764   780A      6.190163  
     781A      6.254746   782A      6.276496   783A      6.295173  
     784A      6.346223   785A      6.387260   786A      6.400563  
     787A      6.416224   788A      6.477811   789A      6.488865  
     790A      6.546569   791A      6.578441   792A      6.646652  
     793A      6.669315   794A      6.750337   795A      6.775447  
     796A      6.782342   797A      6.798008   798A      6.815564  
     799A      6.832291   800A      6.846174   801A      6.969099  
     802A      6.979640   803A      7.034168   804A      7.195737  
     805A      7.261964   806A      7.310566   807A      7.435081  
     808A      7.459193   809A      7.512114   810A      7.542477  
     811A      7.560488   812A      7.770357   813A      7.862421  
     814A      8.070464   815A      8.507423   816A     16.017965  
     817A     16.254252   818A     16.657326   819A     16.867363  
     820A     17.033240   821A     18.790148   822A     19.119747  
     823A     19.591175   824A     19.892897   825A     20.004291  
     826A     20.200743   827A     20.539664   828A     21.743120  

    Final Occupation by Irrep:
              A 
    DOCC [    45 ]

  Energy converged.

  @DF-RHF Final Energy:  -551.67066259887156

   => Energetics <=

    Nuclear Repulsion Energy =            713.1481521965329193
    One-Electron Energy =               -2149.3241816431122970
    Two-Electron Energy =                 884.5053668477078190
    DFT Exchange-Correlation Energy =       0.0000000000000000
    Empirical Dispersion Energy =           0.0000000000000000
    PCM Polarization Energy =               0.0000000000000000
    EFP Energy =                            0.0000000000000000
    Total Energy =                       -551.6706625988715587



Properties will be evaluated at   0.000000,   0.000000,   0.000000 Bohr

Properties computed using the SCF density matrix

  Nuclear Dipole Moment: (a.u.)
     X:     3.0826      Y:    -0.7670      Z:    -1.4340

  Electronic Dipole Moment: (a.u.)
     X:     0.4152      Y:    -0.4602      Z:    -0.4045

  Dipole Moment: (a.u.)
     X:     3.4978      Y:    -1.2273      Z:    -1.8385     Total:     4.1377

  Dipole Moment: (Debye)
     X:     8.8905      Y:    -3.1194      Z:    -4.6729     Total:    10.5170


*** tstop() called on gpu-1-6.local at Sun Nov 12 09:12:44 2017
Module time:
	user time   =    1077.57 seconds =      17.96 minutes
	system time =      49.53 seconds =       0.83 minutes
	total time  =        466 seconds =       7.77 minutes
Total time:
	user time   =    1077.57 seconds =      17.96 minutes
	system time =      49.53 seconds =       0.83 minutes
	total time  =        466 seconds =       7.77 minutes

  //>>>>>>>>>>>>>>>>>>>>>>>>>>>>>>>>>>>//
  //               DFMP2               //
  //<<<<<<<<<<<<<<<<<<<<<<<<<<<<<<<<<<<//

   => Loading Basis Set <=

    Name: (AUG-CC-PVTZ AUX)
    Role: RIFIT
    Keyword: DF_BASIS_MP2
    atoms 1-11  entry C          line   147 file /cbio/jclab/home/chayas/anaconda/envs/py35/share/psi4/basis/aug-cc-pvtz-ri.gbs 
    atoms 12    entry N          line   205 file /cbio/jclab/home/chayas/anaconda/envs/py35/share/psi4/basis/aug-cc-pvtz-ri.gbs 
    atoms 13    entry O          line   263 file /cbio/jclab/home/chayas/anaconda/envs/py35/share/psi4/basis/aug-cc-pvtz-ri.gbs 
    atoms 14-23 entry H          line    29 file /cbio/jclab/home/chayas/anaconda/envs/py35/share/psi4/basis/aug-cc-pvtz-ri.gbs 

	 --------------------------------------------------------
	                          DF-MP2                         
	      2nd-Order Density-Fitted Moller-Plesset Theory     
	              RMP2 Wavefunction,   8 Threads             
	                                                         
	        Rob Parrish, Justin Turney, Andy Simmonett,      
	           Ed Hohenstein, and C. David Sherrill          
	 --------------------------------------------------------

   => Auxiliary Basis Set <=

  Basis Set: (AUG-CC-PVTZ AUX)
    Blend: AUG-CC-PVTZ-RI
    Number of shells: 504
    Number of basis function: 1838
    Number of Cartesian functions: 2318
    Spherical Harmonics?: true
    Max angular momentum: 4

	 --------------------------------------------------------
	                 NBF =   828, NAUX =  1838
	 --------------------------------------------------------
	   CLASS    FOCC     OCC    AOCC    AVIR     VIR    FVIR
	   PAIRS       0      45      45     783     783       0
	 --------------------------------------------------------


         ------------------------------------------------------------
                                     CPHF                           
                                  Rob Parrish                       
         ------------------------------------------------------------

  ==> Geometry <==

    Molecular point group: c1
    Full point group: C1

    Geometry (in Angstrom), charge = 1, multiplicity = 1:

       Center              X                  Y                   Z               Mass       
    ------------   -----------------  -----------------  -----------------  -----------------
           C         -1.272381754702     0.714649499123    -0.575745450138    12.000000000000
           C         -0.279381754702     0.098649499123     1.538254549862    12.000000000000
           C         -2.350381754702     1.287649499123     0.097254549862    12.000000000000
           C         -1.357381754702     0.671649499123     2.212254549862    12.000000000000
           C          1.282618245298     0.031649499123    -1.785745450138    12.000000000000
           C          1.558618245298    -1.554350500877     0.005254549862    12.000000000000
           C          2.358618245298    -0.558350500877    -2.433745450138    12.000000000000
           C          2.628618245298    -2.104350500877    -0.687745450138    12.000000000000
           C         -0.236381754702     0.119649499123     0.144254549862    12.000000000000
           C          0.882618245298    -0.474350500877    -0.553745450138    12.000000000000
           C         -2.393381754702     1.266649499123     1.491254549862    12.000000000000
           N          2.992618245298    -1.597350500877    -1.872745450138    14.003074004780
           O         -3.445381754702     1.826649499123     2.148254549862    15.994914619560
           H         -1.253381754702     0.738649499123    -1.662745450138     1.007825032070
           H          0.520618245298    -0.361350500877     2.114254549862     1.007825032070
           H         -3.154381754702     1.749649499123    -0.469745450138     1.007825032070
           H         -1.385381754702     0.652649499123     3.298254549862     1.007825032070
           H          0.773618245298     0.873649499123    -2.245745450138     1.007825032070
           H          1.267618245298    -1.970350500877     0.965254549862     1.007825032070
           H          2.739618245298    -0.231350500877    -3.391745450138     1.007825032070
           H          3.210618245298    -2.942350500877    -0.329745450138     1.007825032070
           H          3.780618245298    -2.016350500877    -2.365745450138     1.007825032070
           H         -3.184381754702     2.674649499123     2.541254549862     1.007825032070

  Nuclear repulsion =  713.148152196532919
  Reference energy  = -551.670662598871559

  ==> Basis Set <==

  Basis Set: AUG-CC-PVTZ
    Blend: AUG-CC-PVTZ
    Number of shells: 272
    Number of basis function: 828
    Number of Cartesian functions: 965
    Spherical Harmonics?: true
    Max angular momentum: 3

  ==> CGRSolver (by Rob Parrish) <==

   Number of roots    =         1
   Preconditioning    =    JACOBI
   Convergence cutoff =     1E-06
   Maximum iterations =       100

  ==> CPHFRHamiltonian (by Rob Parrish) <== 

  ==> DFJK: Density-Fitted J/K Matrices <==

    J tasked:                  Yes
    K tasked:                  Yes
    wK tasked:                  No
    OpenMP threads:              8
    Integrals threads:           8
    Memory (MB):              3576
    Algorithm:                Disk
    Integral Cache:           NONE
    Schwarz Cutoff:          1E-12
    Fitting Condition:       1E-12

   => Auxiliary Basis Set <=

  Basis Set: (AUG-CC-PVTZ AUX)
    Blend: AUG-CC-PVTZ-JKFIT
    Number of shells: 530
    Number of basis function: 1812
    Number of Cartesian functions: 2253
    Spherical Harmonics?: true
    Max angular momentum: 4

  ==> CPHF Iterations <==

  => Iterations <=

             Iter  Converged  Remaining    Residual
  CGR           1          0          1   1.037E-01
  CGR           2          0          1   4.835E-02
  CGR           3          0          1   2.758E-02
  CGR           4          0          1   8.933E-03
  CGR           5          0          1   3.924E-03
  CGR           6          0          1   2.004E-03
  CGR           7          0          1   6.989E-04
  CGR           8          0          1   2.745E-04
  CGR           9          0          1   1.178E-04
  CGR          10          0          1   3.979E-05
  CGR          11          0          1   1.044E-05
  CGR          12          0          1   4.046E-06
  CGR          13          0          1   1.246E-06
  CGR          14          1          0   4.238E-07

    CGRSolver converged.

  ==> DFCorrGrad: Density-Fitted Correlated Gradients <==

    OpenMP threads:              8
    Integrals threads:           8
    Memory (MB):              3576
    Schwarz Cutoff:          0E+00
    Fitting Condition:       1E-12

   => Auxiliary Basis Set <=

  Basis Set: (AUG-CC-PVTZ AUX)
    Blend: AUG-CC-PVTZ-JKFIT
    Number of shells: 530
    Number of basis function: 1812
    Number of Cartesian functions: 2253
    Spherical Harmonics?: true
    Max angular momentum: 4

	-----------------------------------------------------------
	 ==================> DF-MP2 Energies <==================== 
	-----------------------------------------------------------
	 Reference Energy          =    -551.6706625988715587 [Eh]
	 Singles Energy            =      -0.0000000000000001 [Eh]
	 Same-Spin Energy          =      -0.5961211836345373 [Eh]
	 Opposite-Spin Energy      =      -1.8246340548453850 [Eh]
	 Correlation Energy        =      -2.4207552384799222 [Eh]
	 Total Energy              =    -554.0914178373515142 [Eh]
	-----------------------------------------------------------
	 ================> DF-SCS-MP2 Energies <================== 
	-----------------------------------------------------------
	 SCS Same-Spin Scale       =       0.3333333333333333 [-]
	 SCS Opposite-Spin Scale   =       1.2000000000000000 [-]
	 SCS Same-Spin Energy      =      -0.1987070612115124 [Eh]
	 SCS Opposite-Spin Energy  =      -2.1895608658144621 [Eh]
	 SCS Correlation Energy    =      -2.3882679270259746 [Eh]
	 SCS Total Energy          =    -554.0589305258974946 [Eh]
	-----------------------------------------------------------


  -Total Gradient:
     Atom            X                  Y                   Z
    ------   -----------------  -----------------  -----------------
       1        0.007973759053    -0.007109170905    -0.003708907008
       2        0.009502778072    -0.000403941892    -0.007945554309
       3       -0.002367070407     0.003829761024     0.006308393928
       4       -0.008223493874     0.005155495372     0.002656994521
       5       -0.015146427690     0.008960771184     0.012999736303
       6       -0.018457171896     0.008101789374     0.008376024702
       7        0.008026762669    -0.010057037454     0.004777584363
       8        0.005180610542     0.003454784259    -0.013373118727
       9       -0.000509553727     0.000083586514     0.000223828091
      10        0.012697805891    -0.006159148094    -0.008097047743
      11       -0.009119409604    -0.004044125831    -0.000220330612
      12       -0.001250259508     0.000269997278     0.001098345880
      13        0.003529529556    -0.006637648553     0.000101657472
      14        0.001428769188     0.001361161040    -0.005772382206
      15        0.003676161696    -0.004332754533     0.002795510573
      16       -0.002851399880     0.002103575160    -0.005281992247
      17        0.001758078150    -0.001363643320     0.005385258980
      18       -0.004991281821     0.004352863878    -0.002898523657
      19       -0.001555296627    -0.000722218782     0.006977808246
      20        0.001888665001    -0.000428526636    -0.002555623942
      21        0.002392556148    -0.001681864021    -0.000096452790
      22        0.005029287011    -0.002665124815    -0.003163475558
      23        0.001386602055     0.007931419753     0.001412265737


*** tstop() called on gpu-1-6.local at Sun Nov 12 09:46:34 2017
Module time:
	user time   =    5269.70 seconds =      87.83 minutes
	system time =     106.94 seconds =       1.78 minutes
	total time  =       2496 seconds =      41.60 minutes
Total time:
	user time   =    5269.70 seconds =      87.83 minutes
	system time =     106.94 seconds =       1.78 minutes
	total time  =       2496 seconds =      41.60 minutes

			-----------------------------------------
			 OPTKING 2.0: for geometry optimizations 
			  - R.A. King,  Bethel University        
			-----------------------------------------

	Internal coordinates to be generated automatically.
	Detected frag 1 with atoms:  1 2 3 4 5 6 7 8 9 10 11 12 13 14 15 16 17 18 19 20
	 21 22 23
	---Fragment 1 Bond Connectivity---
	 1 : 3 9 14
	 2 : 4 9 15
	 3 : 1 11 16
	 4 : 2 11 17
	 5 : 7 10 18
	 6 : 8 10 19
	 7 : 5 12 20
	 8 : 6 12 21
	 9 : 1 2 10
	 10 : 5 6 9
	 11 : 3 4 13
	 12 : 7 8 22
	 13 : 11 23
	 14 : 1
	 15 : 2
	 16 : 3
	 17 : 4
	 18 : 5
	 19 : 6
	 20 : 7
	 21 : 8
	 22 : 12
	 23 : 13

	Assuming in current code that numbering for constraints corresponds to unified fragment.
	Fixed dihedral atom list: 
	     3    11    13    23
	---Fragment 1 Geometry and Gradient---
	 C          -2.4044530529        1.3504918343       -1.0880012230
	 C          -0.5279550029        0.1864205365        2.9068798219
	 C          -4.4415778241        2.4333049085        0.1837844644
	 C          -2.5650797742        1.2692336106        4.1805552355
	 C           2.4237972167        0.0598088856       -3.3745698438
	 C           2.9453616293       -2.9372967612        0.0099296602
	 C           4.4571425356       -1.0551295328       -4.5991123779
	 C           4.9673685915       -3.9766461343       -1.2996505499
	 C          -0.4466967792        0.2261047853        0.2726015927
	 C           1.6679067635       -0.8963925377       -1.0464272481
	 C          -4.5228360478        2.3936206597        2.8180626937
	 N           5.6552289039       -3.0185549849       -3.5389760174
	 O          -6.5108279396        3.4518672941        4.0596127630
	 H          -2.3685482563        1.3958452615       -3.1421335295
	 H           0.9838259034       -0.6828534846        3.9953620744
	 H          -5.9609176350        3.3063583819       -0.8876902529
	 H          -2.6179921059        1.2333288141        6.2327978158
	 H           1.4619266150        1.6509582895       -4.2438438649
	 H           2.3954513247       -3.7234228325        1.8240667478
	 H           5.1771281923       -0.4371890874       -6.4094700132
	 H           6.0671892009       -5.5602366336       -0.6231285943
	 H           7.1443330966       -3.8103502346       -4.4706110009
	 H          -6.0176094189        5.0543550548        4.8022751332
	             0.0079737591       -0.0071091709       -0.0037089070
	             0.0095027781       -0.0004039419       -0.0079455543
	            -0.0023670704        0.0038297610        0.0063083939
	            -0.0082234939        0.0051554954        0.0026569945
	            -0.0151464277        0.0089607712        0.0129997363
	            -0.0184571719        0.0081017894        0.0083760247
	             0.0080267627       -0.0100570375        0.0047775844
	             0.0051806105        0.0034547843       -0.0133731187
	            -0.0005095537        0.0000835865        0.0002238281
	             0.0126978059       -0.0061591481       -0.0080970477
	            -0.0091194096       -0.0040441258       -0.0002203306
	            -0.0012502595        0.0002699973        0.0010983459
	             0.0035295296       -0.0066376486        0.0001016575
	             0.0014287692        0.0013611610       -0.0057723822
	             0.0036761617       -0.0043327545        0.0027955106
	            -0.0028513999        0.0021035752       -0.0052819922
	             0.0017580781       -0.0013636433        0.0053852590
	            -0.0049912818        0.0043528639       -0.0028985237
	            -0.0015552966       -0.0007222188        0.0069778082
	             0.0018886650       -0.0004285266       -0.0025556239
	             0.0023925561       -0.0016818640       -0.0000964528
	             0.0050292870       -0.0026651248       -0.0031634756
	             0.0013866021        0.0079314198        0.0014122657

	Previous optimization step data not found.  Starting new optimization.

	---Fragment 1 Intrafragment Coordinates---
	 - Coordinate -           - BOHR/RAD -       - ANG/DEG -
	 R(1,3)           =         2.634350	       1.394038
	 R(1,9)           =         2.635962	       1.394891
	 R(1,14)          =         2.054947	       1.087431
	 R(2,4)           =         2.635263	       1.394521
	 R(2,9)           =         2.635830	       1.394821
	 R(2,15)          =         2.055702	       1.087831
	 R(3,11)          =         2.635830	       1.394821
	 R(3,16)          =         2.053941	       1.086899
	 R(4,11)          =         2.636938	       1.395407
	 R(4,17)          =         2.053239	       1.086527
	 R(5,7)           =         2.622420	       1.387725
	 R(5,10)          =         2.627915	       1.390633
	 R(5,18)          =         2.052459	       1.086115
	 R(6,8)           =         2.623692	       1.388398
	 R(6,10)          =         2.629272	       1.391351
	 R(6,19)          =         2.052191	       1.085973
	 R(7,12)          =         2.532655	       1.340223
	 R(7,20)          =         2.043924	       1.081598
	 R(8,12)          =         2.530942	       1.339317
	 R(8,21)          =         2.043293	       1.081264
	 R(9,10)          =         2.733384	       1.446444
	 R(11,13)         =         2.571662	       1.360865
	 R(12,22)         =         1.926737	       1.019585
	 R(13,23)         =         1.833788	       0.970399
	 B(1,3,11)        =         2.094553	     120.009056
	 B(1,3,16)        =         2.088505	     119.662516
	 B(1,9,2)         =         2.093692	     119.959722
	 B(1,9,10)        =         2.095161	     120.043881
	 B(2,4,11)        =         2.093699	     119.960108
	 B(2,4,17)        =         2.089577	     119.723926
	 B(2,9,10)        =         2.094332	     119.996376
	 B(3,1,9)         =         2.094940	     120.031219
	 B(3,1,14)        =         2.079469	     119.144799
	 B(3,11,4)        =         2.094306	     119.994870
	 B(3,11,13)       =         2.094549	     120.008801
	 B(4,2,9)         =         2.095181	     120.045019
	 B(4,2,15)        =         2.078675	     119.099297
	 B(4,11,13)       =         2.094331	     119.996326
	 B(5,7,12)        =         2.095473	     120.061759
	 B(5,7,20)        =         2.162990	     123.930212
	 B(5,10,6)        =         2.092808	     119.909049
	 B(5,10,9)        =         2.095104	     120.040644
	 B(6,8,12)        =         2.095689	     120.074121
	 B(6,8,21)        =         2.161055	     123.819347
	 B(6,10,9)        =         2.095271	     120.050189
	 B(7,5,10)        =         2.073747	     118.816947
	 B(7,5,18)        =         2.088865	     119.683141
	 B(7,12,8)        =         2.135611	     122.361511
	 B(7,12,22)       =         2.073499	     118.802740
	 B(8,6,10)        =         2.073041	     118.776513
	 B(8,6,19)        =         2.089782	     119.735704
	 B(8,12,22)       =         2.074075	     118.835741
	 B(9,1,14)        =         2.108776	     120.823969
	 B(9,2,15)        =         2.109330	     120.855683
	 B(10,5,18)       =         2.120573	     121.499869
	 B(10,6,19)       =         2.120361	     121.487761
	 B(11,3,16)       =         2.100127	     120.328425
	 B(11,4,17)       =         2.099910	     120.315955
	 B(11,13,23)      =         1.925382	     110.316291
	 B(12,7,20)       =         2.024722	     116.007998
	 B(12,8,21)       =         2.026441	     116.106509
	 D(1,3,11,4)      =        -0.000325	      -0.018609
	 D(1,3,11,13)     =         3.140978	     179.964785
	 D(1,9,2,4)       =         0.000325	       0.018608
	 D(1,9,2,15)      =        -3.141497	    -179.994534
	 D(1,9,10,5)      =         0.522161	      29.917626
	 D(1,9,10,6)      =        -2.617252	    -149.957477
	 D(2,4,11,3)      =         0.000301	       0.017261
	 D(2,4,11,13)     =        -3.141002	    -179.966135
	 D(2,9,1,3)       =        -0.000348	      -0.019945
	 D(2,9,1,14)      =        -3.141221	    -179.978731
	 D(2,9,10,5)      =        -2.618515	    -150.029870
	 D(2,9,10,6)      =         0.525257	      30.095026
	 D(3,1,9,10)      =        -3.141025	    -179.967461
	 D(3,11,4,17)     =         3.141223	     179.978848
	 D(3,11,13,23)    =        -1.831924	    -104.961490
	 D(4,2,9,10)      =         3.141002	     179.966149
	 D(4,11,3,16)     =         3.141593	     180.000000
	 D(4,11,13,23)    =         1.309379	      75.021904
	 D(5,7,12,8)      =        -0.000900	      -0.051587
	 D(5,7,12,22)     =         3.141281	     179.982140
	 D(5,10,6,8)      =         0.001757	       0.100696
	 D(5,10,6,19)     =        -3.140779	    -179.953357
	 D(6,8,12,7)      =         0.001479	       0.084766
	 D(6,8,12,22)     =        -3.140702	    -179.948971
	 D(6,10,5,7)      =        -0.001201	      -0.068795
	 D(6,10,5,18)     =        -3.141485	    -179.993816
	 D(7,5,10,9)      =        -3.140617	    -179.944076
	 D(7,12,8,21)     =        -3.141052	    -179.969035
	 D(8,6,10,9)      =         3.141173	     179.975965
	 D(8,12,7,20)     =         3.139609	     179.886353
	 D(9,1,3,11)      =         0.000348	       0.019955
	 D(9,1,3,16)      =        -3.141571	    -179.998735
	 D(9,2,4,11)      =        -0.000301	      -0.017270
	 D(9,2,4,17)      =        -3.141228	    -179.979086
	 D(9,10,5,18)     =         0.002285	       0.130903
	 D(9,10,6,19)     =        -0.001363	      -0.078088
	 D(10,5,7,12)     =         0.000747	       0.042772
	 D(10,5,7,20)     =        -3.139673	    -179.890006
	 D(10,6,8,12)     =        -0.001882	      -0.107847
	 D(10,6,8,21)     =         3.140725	     179.950304
	 D(10,9,1,14)     =         0.001287	       0.073752
	 D(10,9,2,15)     =        -0.000820	      -0.046992
	 D(11,3,1,14)     =         3.141234	     179.979432
	 D(11,4,2,15)     =         3.141517	     179.995641
	 D(12,7,5,18)     =         3.141055	     179.969186
	 D(12,8,6,19)     =         3.140637	     179.945236
	 D(13,11,3,16)    =        -0.000286	      -0.016400
	 D(13,11,4,17)    =        -0.000079	      -0.004548
	 D(14,1,3,16)     =        -0.000685	      -0.039257
	 D(15,2,4,17)     =         0.000590	       0.033826
	 D(18,5,7,20)     =         0.000635	       0.036408
	 D(19,6,8,21)     =         0.000059	       0.003387
	 D(20,7,12,22)    =        -0.001395	      -0.079920
	 D(21,8,12,22)    =        -0.000048	      -0.002772

	Current energy   :      -554.0914178374

	Generating empirical Hessian (Schlegel '84) for each fragment.
	Adding user-defined constraint: Fragment 1; Coordinate 76:
		Value =    -1.831924; Fixed value    =    -1.832596
		Force =    -0.000336; Force constant =     0.500000
	Removing off-diagonal coupling between coordinate 76 and others.
	Taking RFO optimization step.
	Going to follow RFO solution 1.
	Using RFO vector 1.

	Determining step-restricting scale parameter for RS-RFO.
	Maximum step size allowed    0.10000

	 Iter      |step|        alpha        rfo_root  
	------------------------------------------------
	    0     0.23967       1.00000           1
	    1     0.16834       4.23436           1
	    2     0.13071      10.18206           1
	    3     0.11059      18.70278           1
	    4     0.10186      25.29495           1
	    5     0.10007      26.97531           1
	    6     0.10000      27.04474           1
	------------------------------------------------
	Norm of target step-size    0.10000
	Projected energy change by RFO approximation:        -0.0038564325

	Back-transformation to cartesian coordinates...
	Could not converge backtransformation.
	Using first guess instead.

	--- Internal Coordinate Step in ANG or DEG, aJ/ANG or AJ/DEG ---
	 ---------------------------------------------------------------------------
	   Coordinate                Previous        Force       Change         New 
	   ----------                --------       ------       ------       ------
	    1 R(1,3)          =      1.394038    -0.080777    -0.009113     1.384925
	    2 R(1,9)          =      1.394891     0.013165     0.001732     1.396624
	    3 R(1,14)         =      1.087431    -0.047992    -0.006709     1.080722
	    4 R(2,4)          =      1.394521    -0.085266    -0.009618     1.384903
	    5 R(2,9)          =      1.394821     0.013262     0.001732     1.396553
	    6 R(2,15)         =      1.087831    -0.049562    -0.006967     1.080863
	    7 R(3,11)         =      1.394821    -0.047543    -0.005564     1.389257
	    8 R(3,16)         =      1.086899    -0.047446    -0.006596     1.080302
	    9 R(4,11)         =      1.395407    -0.034741    -0.004125     1.391282
	   10 R(4,17)         =      1.086527    -0.044169    -0.006184     1.080343
	   11 R(5,7)          =      1.387725    -0.112507    -0.012412     1.375313
	   12 R(5,10)         =      1.390633     0.066775     0.007697     1.398330
	   13 R(5,18)         =      1.086115    -0.057186    -0.007960     1.078154
	   14 R(6,8)          =      1.388398    -0.115597    -0.012797     1.375601
	   15 R(6,10)         =      1.391351     0.061278     0.007099     1.398450
	   16 R(6,19)         =      1.085973    -0.056533    -0.007875     1.078098
	   17 R(7,12)         =      1.340223     0.017936     0.001662     1.341886
	   18 R(7,20)         =      1.081598    -0.023062    -0.003176     1.078422
	   19 R(8,12)         =      1.339317     0.022812     0.002105     1.341422
	   20 R(8,21)         =      1.081264    -0.021086    -0.002887     1.078377
	   21 R(9,10)         =      1.446444     0.067094     0.008786     1.455231
	   22 R(11,13)        =      1.360865     0.020902     0.002232     1.363097
	   23 R(12,22)        =      1.019585    -0.053649    -0.006292     1.013293
	   24 R(13,23)        =      0.970399    -0.064886    -0.006467     0.963932
	   25 B(1,3,11)       =    120.009056     0.000038     0.033497   120.042553
	   26 B(1,3,16)       =    119.662516     0.000191     0.585082   120.247598
	   27 B(1,9,2)        =    119.959722    -0.000419    -0.834830   119.124892
	   28 B(1,9,10)       =    120.043881     0.000203     0.403378   120.447260
	   29 B(2,4,11)       =    119.960108     0.000069     0.110586   120.070694
	   30 B(2,4,17)       =    119.723926     0.000143     0.455247   120.179173
	   31 B(2,9,10)       =    119.996376     0.000216     0.431467   120.427843
	   32 B(3,1,9)        =    120.031219     0.000172     0.421176   120.452395
	   33 B(3,1,14)       =    119.144799    -0.000130    -0.341629   118.803171
	   34 B(3,11,4)       =    119.994870     0.000009    -0.064695   119.930175
	   35 B(3,11,13)      =    120.008801    -0.000245    -0.484838   119.523964
	   36 B(4,2,9)        =    120.045019     0.000132     0.333837   120.378856
	   37 B(4,2,15)       =    119.099297    -0.000097    -0.259005   118.840292
	   38 B(4,11,13)      =    119.996326     0.000237     0.545459   120.541785
	   39 B(5,7,12)       =    120.061759    -0.000233    -0.584394   119.477365
	   40 B(5,7,20)       =    123.930212    -0.000003    -0.050336   123.879876
	   41 B(5,10,6)       =    119.909049    -0.000814    -1.721266   118.187782
	   42 B(5,10,9)       =    120.040644     0.000415     0.876614   120.917259
	   43 B(6,8,12)       =    120.074121    -0.000228    -0.580217   119.493903
	   44 B(6,8,21)       =    123.819347     0.000008    -0.012532   123.806815
	   45 B(6,10,9)       =    120.050189     0.000399     0.844660   120.894849
	   46 B(7,5,10)       =    118.816947     0.000519     1.196967   120.013914
	   47 B(7,5,18)       =    119.683141    -0.000343    -0.845392   118.837750
	   48 B(7,12,8)       =    122.361511     0.000228     0.473889   122.835400
	   49 B(7,12,22)      =    118.802740    -0.000113    -0.232713   118.570027
	   50 B(8,6,10)       =    118.776513     0.000528     1.215054   119.991567
	   51 B(8,6,19)       =    119.735704    -0.000353    -0.872224   118.863480
	   52 B(8,12,22)      =    118.835741    -0.000116    -0.241169   118.594572
	   53 B(9,1,14)       =    120.823969    -0.000042    -0.082200   120.741769
	   54 B(9,2,15)       =    120.855683    -0.000035    -0.076590   120.779092
	   55 B(10,5,18)      =    121.499869    -0.000176    -0.353056   121.146814
	   56 B(10,6,19)      =    121.487761    -0.000175    -0.343881   121.143880
	   57 B(11,3,16)      =    120.328425    -0.000228    -0.618843   119.709582
	   58 B(11,4,17)      =    120.315955    -0.000212    -0.565848   119.750107
	   59 B(11,13,23)     =    110.316291    -0.000021    -0.052577   110.263714
	   60 B(12,7,20)      =    116.007998     0.000236     0.634348   116.642346
	   61 B(12,8,21)      =    116.106509     0.000220     0.592332   116.698842
	   62 D(1,3,11,4)     =     -0.018609    -0.000009    -0.176713    -0.195322
	   63 D(1,3,11,13)    =    179.964785     0.000024     0.570259   180.535045
	   64 D(1,9,2,4)      =      0.018608    -0.000005    -0.123513    -0.104906
	   65 D(1,9,2,15)     =   -179.994534     0.000013     0.377850  -179.616684
	   66 D(1,9,10,5)     =     29.917626     0.000012     0.347267    30.264893
	   67 D(1,9,10,6)     =   -149.957477     0.000012     0.345207  -149.612270
	   68 D(2,4,11,3)     =      0.017261     0.000003     0.004041     0.021302
	   69 D(2,4,11,13)    =   -179.966135    -0.000031    -0.750469  -180.716604
	   70 D(2,9,1,3)      =     -0.019945    -0.000001    -0.049746    -0.069691
	   71 D(2,9,1,14)     =   -179.978731     0.000020     0.510063  -179.468668
	   72 D(2,9,10,5)     =   -150.029870     0.000009     0.268103  -149.761767
	   73 D(2,9,10,6)     =     30.095026     0.000009     0.266044    30.361070
	   74 D(3,1,9,10)     =   -179.967461    -0.000005    -0.128546  -180.096007
	   75 D(3,11,4,17)    =    179.978848     0.000006     0.100384   180.079232
	   76 D(3,11,13,23)   =   -104.961490    -0.000025    -0.194223  -105.155713
	   77 D(4,2,9,10)     =    179.966149    -0.000002    -0.044744   179.921405
	   78 D(4,11,3,16)    =    180.000000    -0.000016    -0.382696   179.617304
	   79 D(4,11,13,23)   =     75.021904     0.000008     0.557308    75.579212
	   80 D(5,7,12,8)     =     -0.051587     0.000001     0.018024    -0.033563
	   81 D(5,7,12,22)    =    179.982140    -0.000000    -0.000400   179.981740
	   82 D(5,10,6,8)     =      0.100696    -0.000001    -0.017860     0.082836
	   83 D(5,10,6,19)    =   -179.953357     0.000016     0.417359  -179.535998
	   84 D(6,8,12,7)     =      0.084766    -0.000001    -0.012335     0.072431
	   85 D(6,8,12,22)    =   -179.948971     0.000000     0.006097  -179.942875
	   86 D(6,10,5,7)     =     -0.068795     0.000001     0.024299    -0.044496
	   87 D(6,10,5,18)    =   -179.993816     0.000015     0.403476  -179.590341
	   88 D(7,5,10,9)     =   -179.944076     0.000001     0.019170  -179.924905
	   89 D(7,12,8,21)    =   -179.969035    -0.000007    -0.190750  -180.159785
	   90 D(8,6,10,9)     =    179.975965    -0.000000    -0.012691   179.963273
	   91 D(8,12,7,20)    =    179.886353    -0.000005    -0.144720   179.741633
	   92 D(9,1,3,11)     =      0.019955     0.000008     0.199817     0.219771
	   93 D(9,1,3,16)     =   -179.998735     0.000016     0.406898  -179.591836
	   94 D(9,2,4,11)     =     -0.017270     0.000004     0.146395     0.129125
	   95 D(9,2,4,17)     =   -179.979086     0.000001     0.050030  -179.929055
	   96 D(9,10,5,18)    =      0.130903     0.000015     0.398347     0.529250
	   97 D(9,10,6,19)    =     -0.078088     0.000016     0.422527     0.344439
	   98 D(10,5,7,12)    =      0.042772    -0.000001    -0.023251     0.019521
	   99 D(10,5,7,20)    =   -179.890006     0.000006     0.151557  -179.738449
	  100 D(10,6,8,12)    =     -0.107847     0.000000     0.011244    -0.096603
	  101 D(10,6,8,21)    =    179.950304     0.000007     0.202765   180.153069
	  102 D(10,9,1,14)    =      0.073752     0.000016     0.431264     0.505016
	  103 D(10,9,2,15)    =     -0.046992     0.000017     0.456619     0.409626
	  104 D(11,3,1,14)    =    179.979432    -0.000012    -0.349161   179.630272
	  105 D(11,4,2,15)    =    179.995641    -0.000014    -0.345362   179.650279
	  106 D(12,7,5,18)    =    179.969186    -0.000015    -0.393376   179.575810
	  107 D(12,8,6,19)    =    179.945236    -0.000016    -0.414343   179.530893
	  108 D(13,11,3,16)   =     -0.016400     0.000017     0.364070     0.347670
	  109 D(13,11,4,17)   =     -0.004548    -0.000027    -0.654126    -0.658674
	  110 D(14,1,3,16)    =     -0.039257    -0.000005    -0.142079    -0.181336
	  111 D(15,2,4,17)    =      0.033826    -0.000017    -0.441727    -0.407901
	  112 D(18,5,7,20)    =      0.036408    -0.000008    -0.218568    -0.182160
	  113 D(19,6,8,21)    =      0.003387    -0.000008    -0.222823    -0.219435
	  114 D(20,7,12,22)   =     -0.079920    -0.000006    -0.163145    -0.243065
	  115 D(21,8,12,22)   =     -0.002772    -0.000006    -0.172318    -0.175090
	 ---------------------------------------------------------------------------
	Successfully symmetrized geometry.
	 Forces used to impose fixed constraints are not included.
	  Forces zeroed: 76 

  ==> Convergence Check <==

  Measures of convergence in internal coordinates in au.
  Criteria marked as inactive (o), active & met (*), and active & unmet ( ).
  --------------------------------------------------------------------------------------------- ~
   Step     Total Energy     Delta E     MAX Force     RMS Force      MAX Disp      RMS Disp    ~
  --------------------------------------------------------------------------------------------- ~
    Convergence Criteria    1.00e-06 *    3.00e-04 *             o    1.20e-03 *             o  ~
  --------------------------------------------------------------------------------------------- ~
      1    -554.09141784   -5.54e+02      1.40e-02      3.84e-03 o    3.00e-02      9.32e-03 o  ~
  ---------------------------------------------------------------------------------------------

	Writing optimization data to binary file.
	Structure for next step:
	Cartesian Geometry (in Angstrom)
	    C    -1.2826797255   0.7210741256  -0.5611831269
	    C    -0.2887178034   0.1101700271   1.5455652127
	    C    -2.3536088243   1.2892222820   0.1083948993
	    C    -1.3583105224   0.6817641613   2.2143018845
	    C     1.3043878150   0.0222186218  -1.7920508893
	    C     1.5742348770  -1.5632519457  -0.0110798429
	    C     2.3682235119  -0.5589176283  -2.4416819229
	    C     2.6339086573  -2.1153483820  -0.6926651254
	    C    -0.2390187340   0.1247638944   0.1499730422
	    C     0.8852089167  -0.4740340727  -0.5537663744
	    C    -2.3934694220   1.2730079830   1.4969851048
	    N     2.9963192936  -1.6021054959  -1.8778454736
	    O    -3.4578584963   1.8255355976   2.1449224560
	    H    -1.2750984049   0.7395568147  -1.6417205108
	    H     0.5073635993  -0.3386302668   2.1227121074
	    H    -3.1623119191   1.7437742582  -0.4451710478
	    H    -1.3929049429   0.6696620437   3.2940229305
	    H     0.8116558288   0.8641449030  -2.2511722111
	    H     1.2868323802  -1.9885907326   0.9369612870
	    H     2.7456873927  -0.2248968862  -3.3950677179
	    H     3.2059738015  -2.9559023940  -0.3333490847
	    H     3.7782370599  -2.0198985406  -2.3685762841
	    H    -3.2098346971   2.6726201121   2.5323453345
			--------------------------
			 OPTKING Finished Execution 
			--------------------------

    Structure for next step:
    Molecular point group: c1
    Full point group: C1

    Geometry (in Angstrom), charge = 1, multiplicity = 1:

    C           -1.283684063004     0.720794054007    -0.561209978133
    C           -0.289722140958     0.109889955443     1.545538361440
    C           -2.354613161823     1.288942210366     0.108368048013
    C           -1.359314859976     0.681484089716     2.214275033291
    C            1.303383477425     0.021938550208    -1.792077740588
    C            1.573230539423    -1.563532017333    -0.011106694165
    C            2.367219174400    -0.559197699946    -2.441708774129
    C            2.632904319747    -2.115628453597    -0.692691976622
    C           -0.240023071503     0.124483822751     0.149946190940
    C            0.884204579155    -0.474314144322    -0.553793225653
    C           -2.394473759506     1.272727911423     1.496958253550
    N            2.995314956052    -1.602385567549    -1.877872324846
    O           -3.458862833809     1.825255525950     2.144895604718
    H           -1.276102742424     0.739276743116    -1.641747362083
    H            0.506359261790    -0.338910338389     2.122685256166
    H           -3.163316256640     1.743494186609    -0.445197899087
    H           -1.393909280460     0.669381972069     3.293996079245
    H            0.810651491262     0.863864831378    -2.251199062371
    H            1.285828042672    -1.988870804198     0.936934435713
    H            2.744683055154    -0.225176957769    -3.395094569098
    H            3.204969463935    -2.956182465623    -0.333375935960
    H            3.777232722351    -2.020178612174    -2.368603135371
    H           -3.210839034592     2.672340040477     2.532318483235

gradient() will perform analytic gradient computation.

*** tstart() called on gpu-1-6.local
*** at Sun Nov 12 09:46:36 2017

    SCF Algorithm Type (re)set to DF.

*** tstart() called on gpu-1-6.local
*** at Sun Nov 12 09:46:36 2017

   => Loading Basis Set <=

    Name: AUG-CC-PVTZ
    Role: ORBITAL
    Keyword: BASIS
    atoms 1-11  entry C          line   221 file /cbio/jclab/home/chayas/anaconda/envs/py35/share/psi4/basis/aug-cc-pvtz.gbs 
    atoms 12    entry N          line   267 file /cbio/jclab/home/chayas/anaconda/envs/py35/share/psi4/basis/aug-cc-pvtz.gbs 
    atoms 13    entry O          line   313 file /cbio/jclab/home/chayas/anaconda/envs/py35/share/psi4/basis/aug-cc-pvtz.gbs 
    atoms 14-23 entry H          line    34 file /cbio/jclab/home/chayas/anaconda/envs/py35/share/psi4/basis/aug-cc-pvtz.gbs 


         ---------------------------------------------------------
                                   SCF
            by Justin Turney, Rob Parrish, and Andy Simmonett
                              RHF Reference
                        8 Threads,   4768 MiB Core
         ---------------------------------------------------------

  ==> Geometry <==

    Molecular point group: c1
    Full point group: C1

    Geometry (in Angstrom), charge = 1, multiplicity = 1:

       Center              X                  Y                   Z               Mass       
    ------------   -----------------  -----------------  -----------------  -----------------
           C         -1.283684063004     0.720794054007    -0.561209978133    12.000000000000
           C         -0.289722140958     0.109889955443     1.545538361440    12.000000000000
           C         -2.354613161823     1.288942210366     0.108368048013    12.000000000000
           C         -1.359314859976     0.681484089716     2.214275033291    12.000000000000
           C          1.303383477425     0.021938550208    -1.792077740588    12.000000000000
           C          1.573230539423    -1.563532017333    -0.011106694165    12.000000000000
           C          2.367219174400    -0.559197699946    -2.441708774129    12.000000000000
           C          2.632904319747    -2.115628453597    -0.692691976622    12.000000000000
           C         -0.240023071503     0.124483822751     0.149946190940    12.000000000000
           C          0.884204579155    -0.474314144322    -0.553793225653    12.000000000000
           C         -2.394473759506     1.272727911423     1.496958253550    12.000000000000
           N          2.995314956052    -1.602385567549    -1.877872324846    14.003074004780
           O         -3.458862833809     1.825255525950     2.144895604718    15.994914619560
           H         -1.276102742424     0.739276743116    -1.641747362083     1.007825032070
           H          0.506359261790    -0.338910338389     2.122685256166     1.007825032070
           H         -3.163316256640     1.743494186609    -0.445197899087     1.007825032070
           H         -1.393909280460     0.669381972069     3.293996079245     1.007825032070
           H          0.810651491262     0.863864831378    -2.251199062371     1.007825032070
           H          1.285828042672    -1.988870804198     0.936934435713     1.007825032070
           H          2.744683055154    -0.225176957769    -3.395094569098     1.007825032070
           H          3.204969463935    -2.956182465623    -0.333375935960     1.007825032070
           H          3.777232722351    -2.020178612174    -2.368603135371     1.007825032070
           H         -3.210839034592     2.672340040477     2.532318483235     1.007825032070

  Running in c1 symmetry.

  Rotational constants: A =      0.09651  B =      0.01326  C =      0.01187 [cm^-1]
  Rotational constants: A =   2893.37763  B =    397.44392  C =    355.70843 [MHz]
  Nuclear repulsion =  712.834461858124655

  Charge       = 1
  Multiplicity = 1
  Electrons    = 90
  Nalpha       = 45
  Nbeta        = 45

  ==> Algorithm <==

  SCF Algorithm Type is DF.
  DIIS enabled.
  MOM disabled.
  Fractional occupation disabled.
  Guess Type is READ.
  Energy threshold   = 1.00e-10
  Density threshold  = 1.00e-10
  Integral threshold = 0.00e+00

  ==> Primary Basis <==

  Basis Set: AUG-CC-PVTZ
    Blend: AUG-CC-PVTZ
    Number of shells: 272
    Number of basis function: 828
    Number of Cartesian functions: 965
    Spherical Harmonics?: true
    Max angular momentum: 3

   => Loading Basis Set <=

    Name: (AUG-CC-PVTZ AUX)
    Role: JKFIT
    Keyword: DF_BASIS_SCF
    atoms 1-11  entry C          line   161 file /cbio/jclab/home/chayas/anaconda/envs/py35/share/psi4/basis/aug-cc-pvtz-jkfit.gbs 
    atoms 12    entry N          line   223 file /cbio/jclab/home/chayas/anaconda/envs/py35/share/psi4/basis/aug-cc-pvtz-jkfit.gbs 
    atoms 13    entry O          line   285 file /cbio/jclab/home/chayas/anaconda/envs/py35/share/psi4/basis/aug-cc-pvtz-jkfit.gbs 
    atoms 14-23 entry H          line    69 file /cbio/jclab/home/chayas/anaconda/envs/py35/share/psi4/basis/aug-cc-pvtz-jkfit.gbs 

  Reading orbitals from file 180, no projection.

  ==> Pre-Iterations <==

   -------------------------------------------------------
    Irrep   Nso     Nmo     Nalpha   Nbeta   Ndocc  Nsocc
   -------------------------------------------------------
     A        828     828       0       0       0       0
   -------------------------------------------------------
    Total     828     828      45      45      45       0
   -------------------------------------------------------

  ==> Integral Setup <==

  ==> DFJK: Density-Fitted J/K Matrices <==

    J tasked:                  Yes
    K tasked:                  Yes
    wK tasked:                  No
    OpenMP threads:              8
    Integrals threads:           8
    Memory (MB):              3576
    Algorithm:                Disk
    Integral Cache:           NONE
    Schwarz Cutoff:          1E-12
    Fitting Condition:       1E-12

   => Auxiliary Basis Set <=

  Basis Set: (AUG-CC-PVTZ AUX)
    Blend: AUG-CC-PVTZ-JKFIT
    Number of shells: 530
    Number of basis function: 1812
    Number of Cartesian functions: 2253
    Spherical Harmonics?: true
    Max angular momentum: 4

  Minimum eigenvalue in the overlap matrix is 5.8687627960E-07.
  Using Symmetric Orthogonalization.

  SCF Guess: Orbitals guess was supplied from a previous computation.

  ==> Iterations <==

                           Total Energy        Delta E     RMS |[F,P]|

   @DF-RHF iter   0:  -551.78850454581675   -5.51789e+02   4.79908e-04 
   @DF-RHF iter   1:  -551.67460615897130    1.13898e-01   1.18235e-04 
   @DF-RHF iter   2:  -551.67502117537970   -4.15016e-04   9.37322e-05 DIIS
   @DF-RHF iter   3:  -551.67542728335854   -4.06108e-04   1.15897e-05 DIIS
   @DF-RHF iter   4:  -551.67543442989279   -7.14653e-06   3.52031e-06 DIIS
   @DF-RHF iter   5:  -551.67543583287886   -1.40299e-06   7.88151e-07 DIIS
   @DF-RHF iter   6:  -551.67543603538638   -2.02508e-07   5.88662e-07 DIIS
   @DF-RHF iter   7:  -551.67543609720610   -6.18197e-08   2.42840e-07 DIIS
   @DF-RHF iter   8:  -551.67543611757787   -2.03718e-08   1.00262e-07 DIIS
   @DF-RHF iter   9:  -551.67543612207101   -4.49313e-09   4.75826e-08 DIIS
   @DF-RHF iter  10:  -551.67543612258976   -5.18753e-10   1.86608e-08 DIIS
   @DF-RHF iter  11:  -551.67543612263773   -4.79758e-11   3.90725e-09 DIIS
   @DF-RHF iter  12:  -551.67543612264990   -1.21645e-11   1.42935e-09 DIIS
   @DF-RHF iter  13:  -551.67543612266377   -1.38698e-11   6.66692e-10 DIIS
   @DF-RHF iter  14:  -551.67543612264853    1.52340e-11   3.05155e-10 DIIS
   @DF-RHF iter  15:  -551.67543612266036   -1.18234e-11   1.37344e-10 DIIS
   @DF-RHF iter  16:  -551.67543612264478    1.55751e-11   5.38313e-11 DIIS

  ==> Post-Iterations <==

    Orbital Energies (a.u.)
    -----------------------

    Doubly Occupied:                                                      

       1A    -20.687303     2A    -15.832943     3A    -11.483622  
       4A    -11.483593     5A    -11.451924     6A    -11.423775  
       7A    -11.413947     8A    -11.413865     9A    -11.378263  
      10A    -11.375800    11A    -11.375242    12A    -11.353639  
      13A    -11.352230    14A     -1.511699    15A     -1.508102  
      16A     -1.320115    17A     -1.266417    18A     -1.241353  
      19A     -1.155684    20A     -1.152961    21A     -1.067288  
      22A     -1.057436    23A     -0.970686    24A     -0.964969  
      25A     -0.952009    26A     -0.868693    27A     -0.861598  
      28A     -0.854268    29A     -0.819999    30A     -0.803288  
      31A     -0.781305    32A     -0.771693    33A     -0.757602  
      34A     -0.749013    35A     -0.724689    36A     -0.707753  
      37A     -0.705928    38A     -0.660046    39A     -0.653367  
      40A     -0.636943    41A     -0.592213    42A     -0.576626  
      43A     -0.541409    44A     -0.469520    45A     -0.449527  

    Virtual:                                                              

      46A     -0.109787    47A     -0.084806    48A     -0.063183  
      49A     -0.062241    50A     -0.059542    51A     -0.050028  
      52A     -0.042050    53A     -0.041200    54A     -0.035247  
      55A     -0.029585    56A     -0.026177    57A     -0.022874  
      58A     -0.018096    59A     -0.009894    60A     -0.006404  
      61A     -0.005471    62A      0.004438    63A      0.005857  
      64A      0.008342    65A      0.012732    66A      0.016445  
      67A      0.018732    68A      0.023641    69A      0.025779  
      70A      0.028716    71A      0.032978    72A      0.036980  
      73A      0.037468    74A      0.042394    75A      0.045461  
      76A      0.052052    77A      0.054386    78A      0.055764  
      79A      0.060742    80A      0.063317    81A      0.068867  
      82A      0.070396    83A      0.073004    84A      0.077802  
      85A      0.082318    86A      0.086673    87A      0.088759  
      88A      0.094030    89A      0.096688    90A      0.108574  
      91A      0.109787    92A      0.113828    93A      0.116817  
      94A      0.123064    95A      0.125851    96A      0.129610  
      97A      0.132957    98A      0.136877    99A      0.139033  
     100A      0.143613   101A      0.153007   102A      0.157926  
     103A      0.159390   104A      0.163435   105A      0.167420  
     106A      0.167899   107A      0.170327   108A      0.173333  
     109A      0.181250   110A      0.181620   111A      0.188427  
     112A      0.189062   113A      0.195245   114A      0.197483  
     115A      0.202157   116A      0.206138   117A      0.211806  
     118A      0.212330   119A      0.214834   120A      0.225480  
     121A      0.226373   122A      0.227999   123A      0.231425  
     124A      0.232752   125A      0.232814   126A      0.239142  
     127A      0.245017   128A      0.248945   129A      0.250628  
     130A      0.254933   131A      0.258716   132A      0.267009  
     133A      0.274977   134A      0.277884   135A      0.280544  
     136A      0.280903   137A      0.288709   138A      0.290377  
     139A      0.293286   140A      0.301731   141A      0.303979  
     142A      0.310473   143A      0.312337   144A      0.320217  
     145A      0.323711   146A      0.325768   147A      0.327553  
     148A      0.333546   149A      0.336621   150A      0.338957  
     151A      0.340023   152A      0.345574   153A      0.352608  
     154A      0.354071   155A      0.357713   156A      0.360125  
     157A      0.362717   158A      0.367667   159A      0.370761  
     160A      0.376372   161A      0.376831   162A      0.379881  
     163A      0.385030   164A      0.385967   165A      0.393893  
     166A      0.395027   167A      0.399597   168A      0.402425  
     169A      0.404215   170A      0.406359   171A      0.410129  
     172A      0.415417   173A      0.419458   174A      0.422218  
     175A      0.423374   176A      0.427412   177A      0.431212  
     178A      0.435175   179A      0.440995   180A      0.444769  
     181A      0.450759   182A      0.452453   183A      0.460592  
     184A      0.464741   185A      0.469615   186A      0.474868  
     187A      0.482504   188A      0.489471   189A      0.498252  
     190A      0.499791   191A      0.508259   192A      0.510206  
     193A      0.512804   194A      0.526770   195A      0.527973  
     196A      0.534792   197A      0.538809   198A      0.546480  
     199A      0.551853   200A      0.561177   201A      0.570470  
     202A      0.571055   203A      0.574159   204A      0.580627  
     205A      0.583122   206A      0.586002   207A      0.587955  
     208A      0.600293   209A      0.605336   210A      0.609767  
     211A      0.616153   212A      0.620620   213A      0.625729  
     214A      0.625969   215A      0.632591   216A      0.639368  
     217A      0.642808   218A      0.650028   219A      0.658820  
     220A      0.660081   221A      0.666806   222A      0.668476  
     223A      0.676697   224A      0.678782   225A      0.699022  
     226A      0.699579   227A      0.710615   228A      0.713958  
     229A      0.718810   230A      0.719848   231A      0.725938  
     232A      0.732222   233A      0.737318   234A      0.739434  
     235A      0.744612   236A      0.750233   237A      0.756430  
     238A      0.757601   239A      0.763974   240A      0.769006  
     241A      0.774780   242A      0.782769   243A      0.785180  
     244A      0.793321   245A      0.793581   246A      0.798259  
     247A      0.800107   248A      0.804272   249A      0.809215  
     250A      0.813753   251A      0.819075   252A      0.823332  
[...]
	 B(4,2,15)        =         2.077279	     119.019325
	 B(4,11,13)       =         2.106837	     120.712844
	 B(5,7,12)        =         2.083944	     119.401194
	 B(5,7,20)        =         2.158344	     123.663981
	 B(5,10,6)        =         2.041716	     116.981738
	 B(5,10,9)        =         2.120861	     121.516361
	 B(6,8,12)        =         2.083960	     119.402133
	 B(6,8,21)        =         2.158322	     123.662751
	 B(6,10,9)        =         2.120606	     121.501769
	 B(7,5,10)        =         2.108936	     120.833137
	 B(7,5,18)        =         2.066576	     118.406089
	 B(7,12,8)        =         2.138920	     122.551089
	 B(7,12,22)       =         2.072136	     118.724635
	 B(8,6,10)        =         2.108893	     120.830650
	 B(8,6,19)        =         2.066291	     118.389774
	 B(8,12,22)       =         2.072129	     118.724268
	 B(9,1,14)        =         2.102322	     120.454177
	 B(9,2,15)        =         2.102533	     120.466270
	 B(10,5,18)       =         2.107265	     120.737405
	 B(10,6,19)       =         2.107538	     120.753029
	 B(11,3,16)       =         2.075224	     118.901592
	 B(11,4,17)       =         2.080266	     119.190461
	 B(11,13,23)      =         1.928626	     110.502154
	 B(12,7,20)       =         2.040841	     116.931586
	 B(12,8,21)       =         2.040837	     116.931349
	 D(1,3,11,4)      =        -0.006957	      -0.398619
	 D(1,3,11,13)     =        -3.092324	    -177.177094
	 D(1,9,2,4)       =        -0.003218	      -0.184388
	 D(1,9,2,15)      =        -3.104058	    -177.849434
	 D(1,9,10,5)      =         0.502118	      28.769227
	 D(1,9,10,6)      =        -2.637098	    -151.094584
	 D(2,4,11,3)      =        -0.001236	      -0.070814
	 D(2,4,11,13)     =         3.083260	     176.657773
	 D(2,9,1,3)       =        -0.005011	      -0.287117
	 D(2,9,1,14)      =        -3.099183	    -177.570099
	 D(2,9,10,5)      =        -2.645517	    -151.576933
	 D(2,9,10,6)      =         0.498453	      28.559256
	 D(3,1,9,10)      =         3.130627	     179.371704
	 D(3,11,4,17)     =        -3.139992	    -179.908267
	 D(3,11,13,23)    =        -1.835422	    -105.161956
	 D(4,2,9,10)      =        -3.138855	    -179.843129
	 D(4,11,3,16)     =         3.117996	     178.647998
	 D(4,11,13,23)    =         1.362796	      78.082464
	 D(5,7,12,8)      =         0.000577	       0.033078
	 D(5,7,12,22)     =         3.141593	     180.000000
	 D(5,10,6,8)      =         0.000473	       0.027110
	 D(5,10,6,19)     =        -3.107883	    -178.068583
	 D(6,8,12,7)      =         0.000672	       0.038509
	 D(6,8,12,22)     =        -3.140332	    -179.927784
	 D(6,10,5,7)      =         0.000777	       0.044535
	 D(6,10,5,18)     =        -3.109636	    -178.169017
	 D(7,5,10,9)      =        -3.138541	    -179.825165
	 D(7,12,8,21)     =         3.130395	     179.358406
	 D(8,6,10,9)      =         3.139792	     179.896829
	 D(8,12,7,20)     =         3.131162	     179.402396
	 D(9,1,3,11)      =         0.010088	       0.578021
	 D(9,1,3,16)      =        -3.114496	    -178.447489
	 D(9,2,4,11)      =         0.006318	       0.361989
	 D(9,2,4,17)      =        -3.138159	    -179.803260
	 D(9,10,5,18)     =         0.034231	       1.961284
	 D(9,10,6,19)     =         0.031436	       1.801137
	 D(10,5,7,12)     =        -0.001309	      -0.075014
	 D(10,5,7,20)     =        -3.131111	    -179.399437
	 D(10,6,8,12)     =        -0.001196	      -0.068516
	 D(10,6,8,21)     =        -3.130074	    -179.340008
	 D(10,9,1,14)     =         0.036455	       2.088723
	 D(10,9,2,15)     =         0.043491	       2.491825
	 D(11,3,1,14)     =         3.104930	     177.899385
	 D(11,4,2,15)     =         3.107742	     178.060506
	 D(12,7,5,18)     =         3.109816	     178.179330
	 D(12,8,6,19)     =         3.107930	     178.071251
	 D(13,11,3,16)    =         0.032629	       1.869523
	 D(13,11,4,17)    =        -0.055496	      -3.179679
	 D(14,1,3,16)     =        -0.019655	      -1.126125
	 D(15,2,4,17)     =        -0.036735	      -2.104742
	 D(18,5,7,20)     =        -0.019986	      -1.145092
	 D(19,6,8,21)     =        -0.020948	      -1.200241
	 D(20,7,12,22)    =        -0.011018	      -0.631312
	 D(21,8,12,22)    =        -0.010610	      -0.607887

	Current energy   :      -554.0942509850

	Energy change for the previous step:
		Projected    :        -0.0000060893
		Actual       :         0.0000008387

	Performing BFGS update.
	Previous computed or guess Hessian on step 1.
	Steps to be used in Hessian update: 4 3
	Adding user-defined constraint: Fragment 1; Coordinate 76:
		Value =    -1.835422; Fixed value    =    -1.832600
		Force =     0.001693; Force constant =     0.600000
	Removing off-diagonal coupling between coordinate 76 and others.
	Taking RFO optimization step.
	Going to follow RFO solution 1.
	Using RFO vector 1.
	Norm of target step-size    0.00756
	Projected energy change by RFO approximation:        -0.0000011080

	Back-transformation to cartesian coordinates...
	Could not converge backtransformation.
	Using first guess instead.

	--- Internal Coordinate Step in ANG or DEG, aJ/ANG or AJ/DEG ---
	 ---------------------------------------------------------------------------
	   Coordinate                Previous        Force       Change         New 
	   ----------                --------       ------       ------       ------
	    1 R(1,3)          =      1.381487     0.000259    -0.000012     1.381475
	    2 R(1,9)          =      1.397772     0.000550     0.000123     1.397895
	    3 R(1,14)         =      1.079667     0.000016    -0.000015     1.079652
	    4 R(2,4)          =      1.381425     0.000426     0.000028     1.381453
	    5 R(2,9)          =      1.397904     0.000425     0.000091     1.397995
	    6 R(2,15)         =      1.079668     0.000050    -0.000004     1.079664
	    7 R(3,11)         =      1.390113     0.000371     0.000060     1.390173
	    8 R(3,16)         =      1.078523     0.000318     0.000052     1.078576
	    9 R(4,11)         =      1.390997     0.000294     0.000050     1.391047
	   10 R(4,17)         =      1.078862     0.000267     0.000039     1.078901
	   11 R(5,7)          =      1.372138     0.000668     0.000067     1.372205
	   12 R(5,10)         =      1.400488     0.000162     0.000061     1.400549
	   13 R(5,18)         =      1.077485     0.000076    -0.000001     1.077484
	   14 R(6,8)          =      1.372187     0.000724     0.000071     1.372258
	   15 R(6,10)         =      1.400484     0.000149     0.000061     1.400545
	   16 R(6,19)         =      1.077478     0.000048    -0.000004     1.077474
	   17 R(7,12)         =      1.343065    -0.000325    -0.000050     1.343015
	   18 R(7,20)         =      1.077216     0.000168     0.000029     1.077245
	   19 R(8,12)         =      1.343035    -0.000344    -0.000048     1.342987
	   20 R(8,21)         =      1.077223     0.000150     0.000027     1.077250
	   21 R(9,10)         =      1.447812     0.000296    -0.000015     1.447798
	   22 R(11,13)        =      1.364670    -0.001276    -0.000213     1.364457
	   23 R(12,22)        =      1.011909     0.000268     0.000031     1.011940
	   24 R(13,23)        =      0.962646     0.000174     0.000003     0.962649
	   25 B(1,3,11)       =    120.016213     0.000001     0.002776   120.018989
	   26 B(1,3,16)       =    121.075175    -0.000000     0.009083   121.084258
	   27 B(1,9,2)        =    119.039266    -0.000005    -0.019594   119.019672
	   28 B(1,9,10)       =    120.468470     0.000001     0.005977   120.474448
	   29 B(2,4,11)       =    119.984266     0.000000    -0.001150   119.983116
	   30 B(2,4,17)       =    120.825070    -0.000001     0.003174   120.828244
	   31 B(2,9,10)       =    120.491375     0.000003     0.013571   120.504947
	   32 B(3,1,9)        =    120.462497     0.000002     0.010099   120.472595
	   33 B(3,1,14)       =    119.028577    -0.000003    -0.009083   119.019494
	   34 B(3,11,4)       =    120.021057    -0.000002    -0.005343   120.015714
	   35 B(3,11,13)      =    119.186458     0.000002     0.005873   119.192331
	   36 B(4,2,9)        =    120.473985     0.000003     0.013170   120.487154
	   37 B(4,2,15)       =    119.019325    -0.000003    -0.009133   119.010192
	   38 B(4,11,13)      =    120.712844    -0.000001    -0.002295   120.710548
	   39 B(5,7,12)       =    119.401194     0.000004     0.015157   119.416351
	   40 B(5,7,20)       =    123.663981    -0.000002    -0.015679   123.648302
	   41 B(5,10,6)       =    116.981738    -0.000003    -0.019283   116.962455
	   42 B(5,10,9)       =    121.516361     0.000001     0.009921   121.526282
	   43 B(6,8,12)       =    119.402133     0.000004     0.015037   119.417170
	   44 B(6,8,21)       =    123.662751    -0.000002    -0.015111   123.647640
	   45 B(6,10,9)       =    121.501769     0.000002     0.009354   121.511122
	   46 B(7,5,10)       =    120.833137    -0.000000     0.005703   120.838840
	   47 B(7,5,18)       =    118.406089    -0.000004    -0.031409   118.374681
	   48 B(7,12,8)       =    122.551089    -0.000004    -0.022189   122.528900
	   49 B(7,12,22)      =    118.724635     0.000002     0.011722   118.736356
	   50 B(8,6,10)       =    120.830650    -0.000000     0.005578   120.836229
	   51 B(8,6,19)       =    118.389774    -0.000003    -0.027866   118.361908
	   52 B(8,12,22)      =    118.724268     0.000002     0.010467   118.734735
	   53 B(9,1,14)       =    120.454177     0.000000    -0.000759   120.453418
	   54 B(9,2,15)       =    120.466270    -0.000000    -0.004081   120.462189
	   55 B(10,5,18)      =    120.737405     0.000004     0.025746   120.763151
	   56 B(10,6,19)      =    120.753029     0.000004     0.022323   120.775352
	   57 B(11,3,16)      =    118.901592    -0.000001    -0.011604   118.889988
	   58 B(11,4,17)      =    119.190461     0.000000    -0.002071   119.188390
	   59 B(11,13,23)     =    110.502154     0.000001     0.017249   110.519403
	   60 B(12,7,20)      =    116.931586    -0.000001     0.000682   116.932268
	   61 B(12,8,21)      =    116.931349    -0.000001     0.000238   116.931587
	   62 D(1,3,11,4)     =     -0.398619     0.000000    -0.016444    -0.415062
	   63 D(1,3,11,13)    =   -177.177094    -0.000000     0.019092  -177.158002
	   64 D(1,9,2,4)      =     -0.184388    -0.000000    -0.000348    -0.184736
	   65 D(1,9,2,15)     =   -177.849434     0.000000     0.001140  -177.848294
	   66 D(1,9,10,5)     =     28.769227    -0.000000    -0.203859    28.565368
	   67 D(1,9,10,6)     =   -151.094584    -0.000000    -0.199350  -151.293934
	   68 D(2,4,11,3)     =     -0.070814    -0.000000     0.016435    -0.054380
	   69 D(2,4,11,13)    =    176.657773     0.000000    -0.019384   176.638389
	   70 D(2,9,1,3)      =     -0.287117    -0.000000     0.000283    -0.286834
	   71 D(2,9,1,14)     =   -177.570099    -0.000000    -0.005855  -177.575954
	   72 D(2,9,10,5)     =   -151.576933    -0.000000    -0.212679  -151.789612
	   73 D(2,9,10,6)     =     28.559256    -0.000000    -0.208169    28.351086
	   74 D(3,1,9,10)     =    179.371704    -0.000000    -0.008294   179.363410
	   75 D(3,11,4,17)    =   -179.908267    -0.000000     0.034191  -179.874076
	   76 D(3,11,13,23)   =   -105.161956     0.000002     0.005513  -105.156442
	   77 D(4,2,9,10)     =   -179.843129    -0.000000     0.008259  -179.834870
	   78 D(4,11,3,16)    =    178.647998     0.000000     0.001068   178.649066
	   79 D(4,11,13,23)   =     78.082464     0.000002     0.041401    78.123865
	   80 D(5,7,12,8)     =      0.033078    -0.000000    -0.003241     0.029837
	   81 D(5,7,12,22)    =    180.000000    -0.000000    -0.003738   179.996262
	   82 D(5,10,6,8)     =      0.027110    -0.000000    -0.005054     0.022056
	   83 D(5,10,6,19)    =   -178.068583     0.000000    -0.005789  -178.074371
	   84 D(6,8,12,7)     =      0.038509    -0.000000     0.000315     0.038823
	   85 D(6,8,12,22)    =   -179.927784    -0.000000     0.000182  -179.927602
	   86 D(6,10,5,7)     =      0.044535    -0.000000     0.002114     0.046648
	   87 D(6,10,5,18)    =   -178.169017     0.000000     0.001108  -178.167909
	   88 D(7,5,10,9)     =   -179.825165    -0.000000     0.006391  -179.818773
	   89 D(7,12,8,21)    =    179.358406     0.000000     0.015197   179.373602
	   90 D(8,6,10,9)     =    179.896829    -0.000000    -0.009330   179.887500
	   91 D(8,12,7,20)    =    179.402396     0.000000     0.012491   179.414886
	   92 D(9,1,3,11)     =      0.578021     0.000000     0.008141     0.586162
	   93 D(9,1,3,16)     =   -178.447489     0.000000    -0.009560  -178.457048
	   94 D(9,2,4,11)     =      0.361989     0.000000    -0.008006     0.353983
	   95 D(9,2,4,17)     =   -179.803260     0.000000    -0.026066  -179.829326
	   96 D(9,10,5,18)    =      1.961284     0.000000     0.005385     1.966669
	   97 D(9,10,6,19)    =      1.801137     0.000000    -0.010065     1.791072
	   98 D(10,5,7,12)    =     -0.075014     0.000000     0.001907    -0.073107
	   99 D(10,5,7,20)    =   -179.399437     0.000000    -0.015068  -179.414505
	  100 D(10,6,8,12)    =     -0.068516     0.000000     0.003946    -0.064570
	  101 D(10,6,8,21)    =   -179.340008     0.000000    -0.012122  -179.352130
	  102 D(10,9,1,14)    =      2.088723    -0.000000    -0.014432     2.074291
	  103 D(10,9,2,15)    =      2.491825     0.000000     0.009747     2.501572
	  104 D(11,3,1,14)    =    177.899385     0.000000     0.014407   177.913792
	  105 D(11,4,2,15)    =    178.060506     0.000000    -0.009365   178.051141
	  106 D(12,7,5,18)    =    178.179330     0.000000     0.003873   178.183204
	  107 D(12,8,6,19)    =    178.071251     0.000000     0.005584   178.076836
	  108 D(13,11,3,16)   =      1.869523    -0.000000     0.036603     1.906126
	  109 D(13,11,4,17)   =     -3.179679     0.000000    -0.001628    -3.181307
	  110 D(14,1,3,16)    =     -1.126125     0.000000    -0.003294    -1.129419
	  111 D(15,2,4,17)    =     -2.104742    -0.000000    -0.027426    -2.132168
	  112 D(18,5,7,20)    =     -1.145092    -0.000000    -0.013102    -1.158194
	  113 D(19,6,8,21)    =     -1.200241    -0.000000    -0.010484    -1.210724
	  114 D(20,7,12,22)   =     -0.631312    -0.000000     0.012623    -0.618689
	  115 D(21,8,12,22)   =     -0.607887     0.000000     0.015064    -0.592823
	 ---------------------------------------------------------------------------
	Successfully symmetrized geometry.
	 Forces used to impose fixed constraints are not included.
	  Forces zeroed: 76 

  ==> Convergence Check <==

  Measures of convergence in internal coordinates in au.
  Criteria marked as inactive (o), active & met (*), and active & unmet ( ).
  ---------------------------------------------------------------------------------------------
   Step     Total Energy     Delta E     MAX Force     RMS Force      MAX Disp      RMS Disp   
  ---------------------------------------------------------------------------------------------
    Convergence Criteria    1.00e-06 *    3.00e-04 *             o    1.20e-03 *             o
  ---------------------------------------------------------------------------------------------
      5    -554.09425098    8.39e-07 *    1.55e-04 *    3.13e-05 o    3.71e-03      7.05e-04 o  ~
  ---------------------------------------------------------------------------------------------


  **** Optimization is complete! (in 5 steps) ****

  ==> Optimization Summary <==

  Measures of convergence in internal coordinates in au.
  --------------------------------------------------------------------------------------------------------------- ~
   Step         Total Energy             Delta E       MAX Force       RMS Force        MAX Disp        RMS Disp  ~
  --------------------------------------------------------------------------------------------------------------- ~
      1    -554.091417837352   -554.091417837352      0.01403093      0.00384139      0.03004177      0.00931966  ~
      2    -554.093775006559     -0.002357169208      0.00362017      0.00097771      0.03232064      0.00932630  ~
      3    -554.094199838483     -0.000424831924      0.00111977      0.00024719      0.01712857      0.00610135  ~
      4    -554.094251823647     -0.000051985163      0.00041365      0.00007452      0.00697304      0.00145799  ~
      5    -554.094250984962      0.000000838685      0.00015485      0.00003318      0.00371194      0.00070529  ~
  --------------------------------------------------------------------------------------------------------------- ~

	Writing optimization data to binary file.
	Final energy is   -554.0942509849617
	Final (previous) structure:
	Cartesian Geometry (in Angstrom)
	    C    -1.2692952931   0.7520733904  -0.5575687583
	    C    -0.2931747947   0.1066114941   1.5484700369
	    C    -2.3376706245   1.3173800932   0.1113927659
	    C    -1.3569316934   0.6805782752   2.2172884171
	    C     1.2992978121   0.0035779948  -1.7992136265
	    C     1.5816693590  -1.5524158717  -0.0099021837
	    C     2.3537437320  -0.5821131796  -2.4533326122
	    C     2.6332450423  -2.1160597814  -0.6876857006
	    C    -0.2343278565   0.1364891816   0.1521252455
	    C     0.8786827122  -0.4679079480  -0.5493535177
	    C    -2.3830712043   1.2872374376   1.5004373357
	    N     2.9888521044  -1.6194586710  -1.8837935521
	    O    -3.4735700793   1.7987762038   2.1418932121
	    H    -1.2668093403   0.7540934055  -1.6372307272
	    H     0.5102271119  -0.3320958767   2.1209776742
	    H    -3.1536195705   1.7729235079  -0.4270494531
	    H    -1.4065220974   0.6635554557   3.2948758159
	    H     0.8204080912   0.8533934987  -2.2568735702
	    H     1.2901727232  -1.9835566429   0.9335522156
	    H     2.7208805817  -0.2511322135  -3.4104411985
	    H     3.1983520081  -2.9565759469  -0.3208127536
	    H     3.7651013274  -2.0436446123  -2.3751823628
	    H    -3.2630163357   2.6505812223   2.5378501676
	Saving final (previous) structure.
			--------------------------
			 OPTKING Finished Execution 
			--------------------------

    Final optimized geometry and variables:
    Molecular point group: c1
    Full point group: C1

    Geometry (in Angstrom), charge = 1, multiplicity = 1:

    C           -1.269295293066     0.752073390421    -0.557568758340
    C           -0.293174794682     0.106611494124     1.548470036921
    C           -2.337670624528     1.317380093213     0.111392765899
    C           -1.356931693374     0.680578275170     2.217288417125
    C            1.299297812090     0.003577994802    -1.799213626546
    C            1.581669359012    -1.552415871700    -0.009902183742
    C            2.353743731991    -0.582113179628    -2.453332612179
    C            2.633245042304    -2.116059781424    -0.687685700591
    C           -0.234327856511     0.136489181556     0.152125245508
    C            0.878682712177    -0.467907947961    -0.549353517687
    C           -2.383071204315     1.287237437592     1.500437335705
    N            2.988852104353    -1.619458671021    -1.883793552097
    O           -3.473570079280     1.798776203818     2.141893212083
    H           -1.266809340325     0.754093405463    -1.637230727187
    H            0.510227111914    -0.332095876717     2.120977674192
    H           -3.153619570477     1.772923507855    -0.427049453103
    H           -1.406522097389     0.663555455659     3.294875815865
    H            0.820408091239     0.853393498696    -2.256873570239
    H            1.290172723248    -1.983556642872     0.933552215624
    H            2.720880581706    -0.251132213496    -3.410441198507
    H            3.198352008141    -2.956575946879    -0.320812753599
    H            3.765101327402    -2.043644612299    -2.375182362760
    H           -3.263016335665     2.650581222259     2.537850167559

	Cleaning optimization helper files.

*** Psi4 exiting successfully. Buy a developer a beer!
