
    -----------------------------------------------------------------------
          Psi4: An Open-Source Ab Initio Electronic Structure Package
                               Psi4 1.1 release

                         Git: Rev {HEAD} add49b9 


    R. M. Parrish, L. A. Burns, D. G. A. Smith, A. C. Simmonett,
    A. E. DePrince III, E. G. Hohenstein, U. Bozkaya, A. Yu. Sokolov,
    R. Di Remigio, R. M. Richard, J. F. Gonthier, A. M. James,
    H. R. McAlexander, A. Kumar, M. Saitow, X. Wang, B. P. Pritchard,
    P. Verma, H. F. Schaefer III, K. Patkowski, R. A. King, E. F. Valeev,
    F. A. Evangelista, J. M. Turney, T. D. Crawford, and C. D. Sherrill,
    J. Chem. Theory Comput. in press (2017).
    (doi: 10.1021/acs.jctc.7b00174)

    -----------------------------------------------------------------------


    Psi4 started on: Sunday, 12 November 2017 09:02AM

    Process ID:  13597
    PSIDATADIR: /cbio/jclab/home/chayas/anaconda/envs/py35/share/psi4
    Memory:     500.0 MiB
    Threads:    8
    
  ==> Input File <==

--------------------------------------------------------------------------

memory 5 Gb

molecule phepyrOH_cation {
  symmetry C1
  1 1 
  C      1.885   -1.036   -0.112
  C      2.878   -1.652   2.002
  C      0.807   -0.463   0.561
  C      1.800   -1.079   2.676
  C      4.440   -1.719   -1.322
  C      4.716   -3.305   0.469
  C      5.516   -2.309   -1.970
  C      5.786   -3.855   -0.224
  C      2.921   -1.631   0.608
  C      4.040   -2.225   -0.090
  C      0.764   -0.484   1.955
  N      6.150   -3.348   -1.409
  O      -0.288   0.076   2.612
  H      1.904   -1.012   -1.199
  H      3.678   -2.112   2.578
  H      0.003   -0.001   -0.006
  H      1.772   -1.098   3.762
  H      3.931   -0.877   -1.782
  H      4.425   -3.721   1.429
  H      5.897   -1.982   -2.928
  H      6.368   -4.693   0.134
  H      6.938   -3.767   -1.902
  H      0.027   0.613   3.356
  units Angstrom
}

dih_string = "3 11 13 23 225"
set optking fixed_dihedral = $dih_string

optimize('MP2/aug-cc-PVTZ')
--------------------------------------------------------------------------

  Memory set to   4.657 GiB by Python driver.
gradient() will perform analytic gradient computation.

*** tstart() called on gpu-3-8.local
*** at Sun Nov 12 09:02:48 2017

    SCF Algorithm Type (re)set to DF.

*** tstart() called on gpu-3-8.local
*** at Sun Nov 12 09:02:48 2017

   => Loading Basis Set <=

    Name: AUG-CC-PVTZ
    Role: ORBITAL
    Keyword: BASIS
    atoms 1-11  entry C          line   221 file /cbio/jclab/home/chayas/anaconda/envs/py35/share/psi4/basis/aug-cc-pvtz.gbs 
    atoms 12    entry N          line   267 file /cbio/jclab/home/chayas/anaconda/envs/py35/share/psi4/basis/aug-cc-pvtz.gbs 
    atoms 13    entry O          line   313 file /cbio/jclab/home/chayas/anaconda/envs/py35/share/psi4/basis/aug-cc-pvtz.gbs 
    atoms 14-23 entry H          line    34 file /cbio/jclab/home/chayas/anaconda/envs/py35/share/psi4/basis/aug-cc-pvtz.gbs 


         ---------------------------------------------------------
                                   SCF
            by Justin Turney, Rob Parrish, and Andy Simmonett
                              RHF Reference
                        8 Threads,   4768 MiB Core
         ---------------------------------------------------------

  ==> Geometry <==

    Molecular point group: c1
    Full point group: C1

    Geometry (in Angstrom), charge = 1, multiplicity = 1:

       Center              X                  Y                   Z               Mass       
    ------------   -----------------  -----------------  -----------------  -----------------
           C         -1.272698024700     0.716470980037    -0.577801205125    12.000000000000
           C         -0.279698024700     0.100470980037     1.536198794875    12.000000000000
           C         -2.350698024700     1.289470980037     0.095198794875    12.000000000000
           C         -1.357698024700     0.673470980037     2.210198794875    12.000000000000
           C          1.282301975300     0.033470980037    -1.787801205125    12.000000000000
           C          1.558301975300    -1.552529019963     0.003198794875    12.000000000000
           C          2.358301975300    -0.556529019963    -2.435801205125    12.000000000000
           C          2.628301975300    -2.102529019963    -0.689801205125    12.000000000000
           C         -0.236698024700     0.121470980037     0.142198794875    12.000000000000
           C          0.882301975300    -0.472529019963    -0.555801205125    12.000000000000
           C         -2.393698024700     1.268470980037     1.489198794875    12.000000000000
           N          2.992301975300    -1.595529019963    -1.874801205125    14.003074004780
           O         -3.445698024700     1.828470980037     2.146198794875    15.994914619560
           H         -1.253698024700     0.740470980037    -1.664801205125     1.007825032070
           H          0.520301975300    -0.359529019963     2.112198794875     1.007825032070
           H         -3.154698024700     1.751470980037    -0.471801205125     1.007825032070
           H         -1.385698024700     0.654470980037     3.296198794875     1.007825032070
           H          0.773301975300     0.875470980037    -2.247801205125     1.007825032070
           H          1.267301975300    -1.968529019963     0.963198794875     1.007825032070
           H          2.739301975300    -0.229529019963    -3.393801205125     1.007825032070
           H          3.210301975300    -2.940529019963    -0.331801205125     1.007825032070
           H          3.780301975300    -2.014529019963    -2.367801205125     1.007825032070
           H         -3.130698024700     2.365470980037     2.890198794875     1.007825032070

  Running in c1 symmetry.

  Rotational constants: A =      0.09612  B =      0.01335  C =      0.01193 [cm^-1]
  Rotational constants: A =   2881.72148  B =    400.24763  C =    357.55164 [MHz]
  Nuclear repulsion =  713.195920330905551

  Charge       = 1
  Multiplicity = 1
  Electrons    = 90
  Nalpha       = 45
  Nbeta        = 45

  ==> Algorithm <==

  SCF Algorithm Type is DF.
  DIIS enabled.
  MOM disabled.
  Fractional occupation disabled.
  Guess Type is SAD.
  Energy threshold   = 1.00e-10
  Density threshold  = 1.00e-10
  Integral threshold = 0.00e+00

  ==> Primary Basis <==

  Basis Set: AUG-CC-PVTZ
    Blend: AUG-CC-PVTZ
    Number of shells: 272
    Number of basis function: 828
    Number of Cartesian functions: 965
    Spherical Harmonics?: true
    Max angular momentum: 3

   => Loading Basis Set <=

    Name: (AUG-CC-PVTZ AUX)
    Role: JKFIT
    Keyword: DF_BASIS_SCF
    atoms 1-11  entry C          line   161 file /cbio/jclab/home/chayas/anaconda/envs/py35/share/psi4/basis/aug-cc-pvtz-jkfit.gbs 
    atoms 12    entry N          line   223 file /cbio/jclab/home/chayas/anaconda/envs/py35/share/psi4/basis/aug-cc-pvtz-jkfit.gbs 
    atoms 13    entry O          line   285 file /cbio/jclab/home/chayas/anaconda/envs/py35/share/psi4/basis/aug-cc-pvtz-jkfit.gbs 
    atoms 14-23 entry H          line    69 file /cbio/jclab/home/chayas/anaconda/envs/py35/share/psi4/basis/aug-cc-pvtz-jkfit.gbs 

  ==> Pre-Iterations <==

   -------------------------------------------------------
    Irrep   Nso     Nmo     Nalpha   Nbeta   Ndocc  Nsocc
   -------------------------------------------------------
     A        828     828       0       0       0       0
   -------------------------------------------------------
    Total     828     828      45      45      45       0
   -------------------------------------------------------

  ==> Integral Setup <==

  ==> DFJK: Density-Fitted J/K Matrices <==

    J tasked:                  Yes
    K tasked:                  Yes
    wK tasked:                  No
    OpenMP threads:              8
    Integrals threads:           8
    Memory (MB):              3576
    Algorithm:                Disk
    Integral Cache:           NONE
    Schwarz Cutoff:          1E-12
    Fitting Condition:       1E-12

   => Auxiliary Basis Set <=

  Basis Set: (AUG-CC-PVTZ AUX)
    Blend: AUG-CC-PVTZ-JKFIT
    Number of shells: 530
    Number of basis function: 1812
    Number of Cartesian functions: 2253
    Spherical Harmonics?: true
    Max angular momentum: 4

  Minimum eigenvalue in the overlap matrix is 6.0111600460E-07.
  Using Symmetric Orthogonalization.

  SCF Guess: Superposition of Atomic Densities via on-the-fly atomic UHF.

  ==> Iterations <==

                           Total Energy        Delta E     RMS |[F,P]|

   @DF-RHF iter   0:  -552.63399618909034   -5.52634e+02   1.56358e-02 
   @DF-RHF iter   1:  -551.18455426872345    1.44944e+00   2.82417e-03 
   @DF-RHF iter   2:  -551.55244469581112   -3.67890e-01   1.48068e-03 DIIS
   @DF-RHF iter   3:  -551.65346849875425   -1.01024e-01   4.46335e-04 DIIS
   @DF-RHF iter   4:  -551.67011956721728   -1.66511e-02   1.28378e-04 DIIS
   @DF-RHF iter   5:  -551.67270699434380   -2.58743e-03   4.42340e-05 DIIS
   @DF-RHF iter   6:  -551.67306913813297   -3.62144e-04   1.98352e-05 DIIS
   @DF-RHF iter   7:  -551.67314480688174   -7.56687e-05   7.83127e-06 DIIS
   @DF-RHF iter   8:  -551.67315698947891   -1.21826e-05   2.71785e-06 DIIS
   @DF-RHF iter   9:  -551.67315935127260   -2.36179e-06   1.41700e-06 DIIS
   @DF-RHF iter  10:  -551.67316003995620   -6.88684e-07   6.16244e-07 DIIS
   @DF-RHF iter  11:  -551.67316017273947   -1.32783e-07   1.89699e-07 DIIS
   @DF-RHF iter  12:  -551.67316018252552   -9.78605e-09   8.26231e-08 DIIS
   @DF-RHF iter  13:  -551.67316018428619   -1.76067e-09   4.41291e-08 DIIS
   @DF-RHF iter  14:  -551.67316018484189   -5.55701e-10   1.71235e-08 DIIS
   @DF-RHF iter  15:  -551.67316018492477   -8.28777e-11   7.30087e-09 DIIS
   @DF-RHF iter  16:  -551.67316018495012   -2.53522e-11   2.57321e-09 DIIS
   @DF-RHF iter  17:  -551.67316018495080   -6.82121e-13   1.33166e-09 DIIS
   @DF-RHF iter  18:  -551.67316018495433   -3.52429e-12   5.72145e-10 DIIS
   @DF-RHF iter  19:  -551.67316018494819    6.13909e-12   1.54144e-10 DIIS
   @DF-RHF iter  20:  -551.67316018496183   -1.36424e-11   6.90285e-11 DIIS

  ==> Post-Iterations <==

    Orbital Energies (a.u.)
    -----------------------

    Doubly Occupied:                                                      

       1A    -20.695121     2A    -15.833916     3A    -11.484561  
       4A    -11.484524     5A    -11.446325     6A    -11.429419  
       7A    -11.415014     8A    -11.414896     9A    -11.378628  
      10A    -11.377584    11A    -11.373405    12A    -11.356677  
      13A    -11.354562    14A     -1.512636    15A     -1.511721  
      16A     -1.321476    17A     -1.263786    18A     -1.237502  
      19A     -1.154246    20A     -1.150678    21A     -1.068858  
      22A     -1.054277    23A     -0.972600    24A     -0.962577  
      25A     -0.949975    26A     -0.869185    27A     -0.859245  
      28A     -0.853996    29A     -0.821263    30A     -0.799100  
      31A     -0.780788    32A     -0.772224    33A     -0.756258  
      34A     -0.740435    35A     -0.723959    36A     -0.706750  
      37A     -0.706071    38A     -0.668010    39A     -0.653054  
      40A     -0.634388    41A     -0.608732    42A     -0.572640  
      43A     -0.537765    44A     -0.468622    45A     -0.442703  

    Virtual:                                                              

      46A     -0.106355    47A     -0.084844    48A     -0.064278  
      49A     -0.062986    50A     -0.059661    51A     -0.049582  
      52A     -0.042509    53A     -0.040848    54A     -0.035300  
      55A     -0.029357    56A     -0.025970    57A     -0.022570  
      58A     -0.018192    59A     -0.011420    60A     -0.006156  
      61A     -0.005036    62A      0.004947    63A      0.005850  
      64A      0.008725    65A      0.013575    66A      0.017262  
      67A      0.019838    68A      0.023778    69A      0.025947  
      70A      0.028803    71A      0.032841    72A      0.036904  
      73A      0.038586    74A      0.040740    75A      0.044968  
      76A      0.051460    77A      0.052518    78A      0.057312  
      79A      0.061107    80A      0.064770    81A      0.068907  
      82A      0.071871    83A      0.073193    84A      0.078039  
      85A      0.082763    86A      0.086587    87A      0.089082  
      88A      0.093887    89A      0.097274    90A      0.108196  
      91A      0.110476    92A      0.114408    93A      0.118251  
      94A      0.122542    95A      0.124936    96A      0.130042  
      97A      0.131506    98A      0.136936    99A      0.139328  
     100A      0.144407   101A      0.154028   102A      0.158157  
     103A      0.161623   104A      0.164418   105A      0.166828  
     106A      0.167982   107A      0.170037   108A      0.172961  
     109A      0.180153   110A      0.181989   111A      0.187731  
     112A      0.189037   113A      0.192861   114A      0.196047  
     115A      0.201097   116A      0.206723   117A      0.209603  
     118A      0.213501   119A      0.214549   120A      0.224758  
     121A      0.226445   122A      0.229198   123A      0.231045  
     124A      0.231615   125A      0.232832   126A      0.239212  
     127A      0.241703   128A      0.246199   129A      0.251494  
     130A      0.254690   131A      0.259382   132A      0.266052  
     133A      0.276051   134A      0.279122   135A      0.279705  
     136A      0.286367   137A      0.288398   138A      0.292187  
     139A      0.300555   140A      0.304079   141A      0.306008  
     142A      0.311921   143A      0.315736   144A      0.321455  
     145A      0.323453   146A      0.324919   147A      0.327928  
     148A      0.333985   149A      0.336560   150A      0.338383  
     151A      0.342641   152A      0.345274   153A      0.351587  
     154A      0.353758   155A      0.355524   156A      0.359459  
     157A      0.363128   158A      0.368397   159A      0.370388  
     160A      0.375135   161A      0.377049   162A      0.378430  
     163A      0.383585   164A      0.386515   165A      0.393893  
     166A      0.395320   167A      0.398104   168A      0.402811  
     169A      0.405769   170A      0.407170   171A      0.411426  
     172A      0.414312   173A      0.416476   174A      0.420350  
     175A      0.421400   176A      0.424711   177A      0.431208  
     178A      0.435858   179A      0.438986   180A      0.442562  
     181A      0.452279   182A      0.455892   183A      0.458346  
     184A      0.467457   185A      0.471806   186A      0.474891  
     187A      0.482501   188A      0.489486   189A      0.492213  
     190A      0.497363   191A      0.507182   192A      0.510935  
     193A      0.518499   194A      0.525269   195A      0.531211  
     196A      0.534105   197A      0.540474   198A      0.543030  
     199A      0.549989   200A      0.558693   201A      0.567251  
     202A      0.570189   203A      0.575911   204A      0.578065  
     205A      0.583514   206A      0.588224   207A      0.590060  
     208A      0.597482   209A      0.605047   210A      0.606650  
     211A      0.619829   212A      0.624302   213A      0.626019  
     214A      0.627418   215A      0.633061   216A      0.638452  
     217A      0.642159   218A      0.647883   219A      0.656854  
     220A      0.658726   221A      0.667831   222A      0.672037  
     223A      0.678552   224A      0.688962   225A      0.698970  
     226A      0.702120   227A      0.710510   228A      0.711307  
     229A      0.718120   230A      0.720326   231A      0.726812  
     232A      0.733934   233A      0.734767   234A      0.740387  
     235A      0.744668   236A      0.752251   237A      0.756022  
     238A      0.758599   239A      0.765659   240A      0.767139  
     241A      0.772012   242A      0.779632   243A      0.783888  
     244A      0.790440   245A      0.794259   246A      0.799546  
     247A      0.801370   248A      0.807761   249A      0.808562  
     250A      0.818299   251A      0.822327   252A      0.825784  
     253A      0.829034   254A      0.834609   255A      0.840727  
     256A      0.843387   257A      0.850298   258A      0.851234  
     259A      0.858965   260A      0.860415   261A      0.864303  
     262A      0.870134   263A      0.874768   264A      0.879432  
     265A      0.880790   266A      0.885423   267A      0.888312  
     268A      0.893945   269A      0.901426   270A      0.905624  
     271A      0.908570   272A      0.917515   273A      0.921677  
     274A      0.925480   275A      0.928947   276A      0.932241  
     277A      0.932636   278A      0.937484   279A      0.947377  
     280A      0.953087   281A      0.956903   282A      0.962151  
     283A      0.965776   284A      0.970670   285A      0.974052  
     286A      0.981427   287A      0.982773   288A      0.986591  
     289A      0.988371   290A      0.994531   291A      0.996937  
     292A      1.000968   293A      1.005763   294A      1.006905  
     295A      1.013367   296A      1.015457   297A      1.019791  
     298A      1.026355   299A      1.036647   300A      1.039422  
     301A      1.045716   302A      1.047808   303A      1.053282  
     304A      1.061274   305A      1.065223   306A      1.066081  
     307A      1.071763   308A      1.074492   309A      1.083126  
     310A      1.085025   311A      1.091247   312A      1.093332  
     313A      1.098530   314A      1.101620   315A      1.108986  
     316A      1.117685   317A      1.119149   318A      1.123076  
     319A      1.125210   320A      1.135464   321A      1.139081  
     322A      1.149298   323A      1.155261   324A      1.158897  
     325A      1.163235   326A      1.166392   327A      1.177505  
     328A      1.184085   329A      1.192167   330A      1.195166  
     331A      1.209631   332A      1.214084   333A      1.217569  
     334A      1.225717   335A      1.234012   336A      1.237802  
     337A      1.240227   338A      1.249268   339A      1.254490  
     340A      1.265982   341A      1.271793   342A      1.276978  
     343A      1.286488   344A      1.293960   345A      1.297583  
     346A      1.301438   347A      1.307318   348A      1.313456  
     349A      1.320422   350A      1.329683   351A      1.338490  
     352A      1.344097   353A      1.352930   354A      1.361543  
     355A      1.365989   356A      1.378321   357A      1.382657  
     358A      1.383912   359A      1.394645   360A      1.401239  
     361A      1.407543   362A      1.410106   363A      1.416383  
     364A      1.418320   365A      1.425798   366A      1.440921  
     367A      1.446273   368A      1.453891   369A      1.457130  
     370A      1.472095   371A      1.482446   372A      1.483545  
     373A      1.492534   374A      1.508508   375A      1.511328  
     376A      1.517039   377A      1.522543   378A      1.535297  
     379A      1.539276   380A      1.547437   381A      1.556107  
     382A      1.562915   383A      1.568432   384A      1.580776  
     385A      1.584963   386A      1.589030   387A      1.595697  
     388A      1.601339   389A      1.616685   390A      1.633602  
     391A      1.638835   392A      1.650378   393A      1.655787  
     394A      1.667177   395A      1.672536   396A      1.674947  
     397A      1.682574   398A      1.698404   399A      1.701191  
     400A      1.708876   401A      1.715314   402A      1.720209  
     403A      1.724292   404A      1.731669   405A      1.733692  
     406A      1.745280   407A      1.760734   408A      1.761716  
     409A      1.767931   410A      1.779150   411A      1.789352  
     412A      1.790949   413A      1.805218   414A      1.812928  
     415A      1.827815   416A      1.833016   417A      1.833962  
     418A      1.843004   419A      1.850446   420A      1.862687  
     421A      1.867114   422A      1.875459   423A      1.879975  
     424A      1.888263   425A      1.890894   426A      1.904516  
     427A      1.907808   428A      1.916267   429A      1.917535  
     430A      1.931108   431A      1.932480   432A      1.938754  
     433A      1.947957   434A      1.953790   435A      1.957402  
     436A      1.961626   437A      1.974680   438A      1.982926  
     439A      1.987585   440A      1.999218   441A      2.005028  
     442A      2.011151   443A      2.015418   444A      2.025387  
     445A      2.032103   446A      2.045132   447A      2.053336  
     448A      2.059291   449A      2.068131   450A      2.082751  
     451A      2.084982   452A      2.092132   453A      2.098539  
     454A      2.117346   455A      2.133092   456A      2.142362  
     457A      2.149486   458A      2.166045   459A      2.187679  
     460A      2.198098   461A      2.202687   462A      2.204613  
     463A      2.211436   464A      2.218719   465A      2.228697  
     466A      2.236449   467A      2.247170   468A      2.254486  
     469A      2.259663   470A      2.271956   471A      2.282815  
     472A      2.293457   473A      2.297857   474A      2.306479  
     475A      2.323934   476A      2.331324   477A      2.344563  
     478A      2.351665   479A      2.363497   480A      2.366435  
     481A      2.391040   482A      2.396631   483A      2.403593  
     484A      2.412164   485A      2.418603   486A      2.424181  
     487A      2.433294   488A      2.442474   489A      2.460058  
     490A      2.479034   491A      2.500122   492A      2.506910  
     493A      2.516154   494A      2.544716   495A      2.545580  
     496A      2.565671   497A      2.569400   498A      2.576035  
     499A      2.593319   500A      2.613692   501A      2.621068  
     502A      2.635194   503A      2.647242   504A      2.670517  
     505A      2.677445   506A      2.711640   507A      2.726154  
     508A      2.728557   509A      2.738830   510A      2.761344  
     511A      2.790672   512A      2.792300   513A      2.811164  
     514A      2.846334   515A      2.852829   516A      2.879389  
     517A      2.921426   518A      2.927339   519A      2.932166  
     520A      2.955549   521A      2.970806   522A      2.979782  
     523A      2.994926   524A      3.008202   525A      3.034544  
     526A      3.058332   527A      3.066776   528A      3.076876  
     529A      3.083339   530A      3.104239   531A      3.141003  
     532A      3.142363   533A      3.168458   534A      3.193085  
     535A      3.194516   536A      3.201558   537A      3.210816  
     538A      3.221473   539A      3.224636   540A      3.231306  
     541A      3.244691   542A      3.255347   543A      3.262794  
     544A      3.272649   545A      3.280428   546A      3.283000  
     547A      3.299323   548A      3.320313   549A      3.331346  
     550A      3.346330   551A      3.359222   552A      3.359657  
     553A      3.373833   554A      3.382013   555A      3.388721  
     556A      3.394707   557A      3.396139   558A      3.409863  
     559A      3.416016   560A      3.417874   561A      3.423106  
     562A      3.435024   563A      3.445602   564A      3.449970  
     565A      3.466224   566A      3.470609   567A      3.474327  
     568A      3.489979   569A      3.503268   570A      3.510187  
     571A      3.514811   572A      3.533828   573A      3.545657  
     574A      3.556013   575A      3.561964   576A      3.566926  
     577A      3.574747   578A      3.598023   579A      3.601197  
     580A      3.616056   581A      3.624535   582A      3.628940  
     583A      3.634257   584A      3.653947   585A      3.656612  
     586A      3.661097   587A      3.665530   588A      3.683796  
     589A      3.698072   590A      3.704371   591A      3.712565  
     592A      3.725012   593A      3.731119   594A      3.740136  
     595A      3.744252   596A      3.754563   597A      3.763936  
     598A      3.768378   599A      3.782241   600A      3.784729  
     601A      3.793032   602A      3.798629   603A      3.822300  
     604A      3.834782   605A      3.837634   606A      3.841965  
     607A      3.852124   608A      3.859065   609A      3.864523  
     610A      3.870560   611A      3.876121   612A      3.880320  
     613A      3.892232   614A      3.893380   615A      3.901769  
     616A      3.910188   617A      3.938155   618A      3.943999  
     619A      3.949190   620A      3.955751   621A      3.968190  
     622A      3.981448   623A      3.992837   624A      3.999210  
     625A      4.019000   626A      4.028185   627A      4.038739  
     628A      4.044711   629A      4.056608   630A      4.057885  
     631A      4.064848   632A      4.078266   633A      4.086342  
     634A      4.087072   635A      4.104424   636A      4.108538  
     637A      4.113175   638A      4.125844   639A      4.136080  
     640A      4.141283   641A      4.146203   642A      4.159921  
     643A      4.164580   644A      4.174677   645A      4.192144  
     646A      4.193830   647A      4.199869   648A      4.211819  
     649A      4.222737   650A      4.229453   651A      4.235919  
     652A      4.240730   653A      4.248079   654A      4.256434  
     655A      4.267444   656A      4.274989   657A      4.287424  
     658A      4.292935   659A      4.299614   660A      4.304642  
     661A      4.320291   662A      4.324342   663A      4.338819  
     664A      4.346940   665A      4.366855   666A      4.367511  
     667A      4.373973   668A      4.374348   669A      4.378814  
     670A      4.400110   671A      4.406548   672A      4.421956  
     673A      4.442514   674A      4.449862   675A      4.452922  
     676A      4.459643   677A      4.478384   678A      4.498743  
     679A      4.507811   680A      4.529165   681A      4.541791  
     682A      4.558760   683A      4.578703   684A      4.583336  
     685A      4.585718   686A      4.603004   687A      4.614951  
     688A      4.636402   689A      4.646343   690A      4.652386  
     691A      4.660043   692A      4.669928   693A      4.682637  
     694A      4.705388   695A      4.727476   696A      4.737251  
     697A      4.745738   698A      4.747851   699A      4.757924  
     700A      4.768872   701A      4.780624   702A      4.789390  
     703A      4.810286   704A      4.830402   705A      4.834519  
     706A      4.844968   707A      4.849210   708A      4.869467  
     709A      4.891039   710A      4.897909   711A      4.905797  
     712A      4.917098   713A      4.932674   714A      4.946224  
     715A      4.950582   716A      4.963129   717A      4.969078  
     718A      4.980249   719A      4.993620   720A      5.002160  
     721A      5.008626   722A      5.020099   723A      5.023499  
     724A      5.036604   725A      5.041275   726A      5.059384  
     727A      5.088625   728A      5.098068   729A      5.107042  
     730A      5.137917   731A      5.146571   732A      5.153822  
     733A      5.182295   734A      5.189459   735A      5.198747  
     736A      5.203372   737A      5.211467   738A      5.244958  
     739A      5.266578   740A      5.280566   741A      5.287089  
     742A      5.298674   743A      5.310667   744A      5.326986  
     745A      5.350051   746A      5.363926   747A      5.384986  
     748A      5.393892   749A      5.414676   750A      5.447310  
     751A      5.448736   752A      5.479721   753A      5.510753  
     754A      5.531155   755A      5.538822   756A      5.557873  
     757A      5.573919   758A      5.594718   759A      5.613198  
     760A      5.616829   761A      5.629193   762A      5.674081  
     763A      5.692391   764A      5.699264   765A      5.712037  
     766A      5.734353   767A      5.779625   768A      5.819755  
     769A      5.842240   770A      5.860993   771A      5.932612  
     772A      5.940165   773A      5.986217   774A      5.994341  
     775A      6.020777   776A      6.046548   777A      6.100181  
     778A      6.121596   779A      6.158037   780A      6.190692  
     781A      6.246575   782A      6.286782   783A      6.299005  
     784A      6.348102   785A      6.379748   786A      6.394154  
     787A      6.414009   788A      6.478702   789A      6.489664  
     790A      6.548217   791A      6.577645   792A      6.612817  
     793A      6.671151   794A      6.751483   795A      6.779748  
     796A      6.795728   797A      6.822621   798A      6.831129  
     799A      6.838373   800A      6.845933   801A      6.968121  
     802A      6.980634   803A      7.025966   804A      7.171628  
     805A      7.208652   806A      7.311945   807A      7.433158  
     808A      7.465429   809A      7.543709   810A      7.547388  
     811A      7.563589   812A      7.704436   813A      7.822285  
     814A      8.188472   815A      8.500511   816A     16.002325  
     817A     16.262013   818A     16.647092   819A     16.728194  
     820A     16.956600   821A     18.788503   822A     19.091215  
     823A     19.449767   824A     19.774235   825A     19.985610  
     826A     20.010404   827A     20.544369   828A     21.743820  

    Final Occupation by Irrep:
              A 
    DOCC [    45 ]

  Energy converged.

  @DF-RHF Final Energy:  -551.67316018496183

   => Energetics <=

    Nuclear Repulsion Energy =            713.1959203309055511
    One-Electron Energy =               -2149.3778576279637491
    Two-Electron Energy =                 884.5087771120962543
    DFT Exchange-Correlation Energy =       0.0000000000000000
    Empirical Dispersion Energy =           0.0000000000000000
    PCM Polarization Energy =               0.0000000000000000
    EFP Energy =                            0.0000000000000000
    Total Energy =                       -551.6731601849618301



Properties will be evaluated at   0.000000,   0.000000,   0.000000 Bohr

Properties computed using the SCF density matrix

  Nuclear Dipole Moment: (a.u.)
     X:     3.1303      Y:    -1.0415      Z:    -1.1242

  Electronic Dipole Moment: (a.u.)
     X:     0.3204      Y:    -0.3449      Z:    -0.4645

  Dipole Moment: (a.u.)
     X:     3.4507      Y:    -1.3864      Z:    -1.5887     Total:     4.0440

  Dipole Moment: (Debye)
     X:     8.7709      Y:    -3.5239      Z:    -4.0380     Total:    10.2787


*** tstop() called on gpu-3-8.local at Sun Nov 12 09:11:24 2017
Module time:
	user time   =    1114.03 seconds =      18.57 minutes
	system time =      50.57 seconds =       0.84 minutes
	total time  =        516 seconds =       8.60 minutes
Total time:
	user time   =    1114.04 seconds =      18.57 minutes
	system time =      50.57 seconds =       0.84 minutes
	total time  =        516 seconds =       8.60 minutes

  //>>>>>>>>>>>>>>>>>>>>>>>>>>>>>>>>>>>//
  //               DFMP2               //
  //<<<<<<<<<<<<<<<<<<<<<<<<<<<<<<<<<<<//

   => Loading Basis Set <=

    Name: (AUG-CC-PVTZ AUX)
    Role: RIFIT
    Keyword: DF_BASIS_MP2
    atoms 1-11  entry C          line   147 file /cbio/jclab/home/chayas/anaconda/envs/py35/share/psi4/basis/aug-cc-pvtz-ri.gbs 
    atoms 12    entry N          line   205 file /cbio/jclab/home/chayas/anaconda/envs/py35/share/psi4/basis/aug-cc-pvtz-ri.gbs 
    atoms 13    entry O          line   263 file /cbio/jclab/home/chayas/anaconda/envs/py35/share/psi4/basis/aug-cc-pvtz-ri.gbs 
    atoms 14-23 entry H          line    29 file /cbio/jclab/home/chayas/anaconda/envs/py35/share/psi4/basis/aug-cc-pvtz-ri.gbs 

	 --------------------------------------------------------
	                          DF-MP2                         
	      2nd-Order Density-Fitted Moller-Plesset Theory     
	              RMP2 Wavefunction,   8 Threads             
	                                                         
	        Rob Parrish, Justin Turney, Andy Simmonett,      
	           Ed Hohenstein, and C. David Sherrill          
	 --------------------------------------------------------

   => Auxiliary Basis Set <=

  Basis Set: (AUG-CC-PVTZ AUX)
    Blend: AUG-CC-PVTZ-RI
    Number of shells: 504
    Number of basis function: 1838
    Number of Cartesian functions: 2318
    Spherical Harmonics?: true
    Max angular momentum: 4

	 --------------------------------------------------------
	                 NBF =   828, NAUX =  1838
	 --------------------------------------------------------
	   CLASS    FOCC     OCC    AOCC    AVIR     VIR    FVIR
	   PAIRS       0      45      45     783     783       0
	 --------------------------------------------------------


         ------------------------------------------------------------
                                     CPHF                           
                                  Rob Parrish                       
         ------------------------------------------------------------

  ==> Geometry <==

    Molecular point group: c1
    Full point group: C1

    Geometry (in Angstrom), charge = 1, multiplicity = 1:

       Center              X                  Y                   Z               Mass       
    ------------   -----------------  -----------------  -----------------  -----------------
           C         -1.272698024700     0.716470980037    -0.577801205125    12.000000000000
           C         -0.279698024700     0.100470980037     1.536198794875    12.000000000000
           C         -2.350698024700     1.289470980037     0.095198794875    12.000000000000
           C         -1.357698024700     0.673470980037     2.210198794875    12.000000000000
           C          1.282301975300     0.033470980037    -1.787801205125    12.000000000000
           C          1.558301975300    -1.552529019963     0.003198794875    12.000000000000
           C          2.358301975300    -0.556529019963    -2.435801205125    12.000000000000
           C          2.628301975300    -2.102529019963    -0.689801205125    12.000000000000
           C         -0.236698024700     0.121470980037     0.142198794875    12.000000000000
           C          0.882301975300    -0.472529019963    -0.555801205125    12.000000000000
           C         -2.393698024700     1.268470980037     1.489198794875    12.000000000000
           N          2.992301975300    -1.595529019963    -1.874801205125    14.003074004780
           O         -3.445698024700     1.828470980037     2.146198794875    15.994914619560
           H         -1.253698024700     0.740470980037    -1.664801205125     1.007825032070
           H          0.520301975300    -0.359529019963     2.112198794875     1.007825032070
           H         -3.154698024700     1.751470980037    -0.471801205125     1.007825032070
           H         -1.385698024700     0.654470980037     3.296198794875     1.007825032070
           H          0.773301975300     0.875470980037    -2.247801205125     1.007825032070
           H          1.267301975300    -1.968529019963     0.963198794875     1.007825032070
           H          2.739301975300    -0.229529019963    -3.393801205125     1.007825032070
           H          3.210301975300    -2.940529019963    -0.331801205125     1.007825032070
           H          3.780301975300    -2.014529019963    -2.367801205125     1.007825032070
           H         -3.130698024700     2.365470980037     2.890198794875     1.007825032070

  Nuclear repulsion =  713.195920330905551
  Reference energy  = -551.673160184961830

  ==> Basis Set <==

  Basis Set: AUG-CC-PVTZ
    Blend: AUG-CC-PVTZ
    Number of shells: 272
    Number of basis function: 828
    Number of Cartesian functions: 965
    Spherical Harmonics?: true
    Max angular momentum: 3

  ==> CGRSolver (by Rob Parrish) <==

   Number of roots    =         1
   Preconditioning    =    JACOBI
   Convergence cutoff =     1E-06
   Maximum iterations =       100

  ==> CPHFRHamiltonian (by Rob Parrish) <== 

  ==> DFJK: Density-Fitted J/K Matrices <==

    J tasked:                  Yes
    K tasked:                  Yes
    wK tasked:                  No
    OpenMP threads:              8
    Integrals threads:           8
    Memory (MB):              3576
    Algorithm:                Disk
    Integral Cache:           NONE
    Schwarz Cutoff:          1E-12
    Fitting Condition:       1E-12

   => Auxiliary Basis Set <=

  Basis Set: (AUG-CC-PVTZ AUX)
    Blend: AUG-CC-PVTZ-JKFIT
    Number of shells: 530
    Number of basis function: 1812
    Number of Cartesian functions: 2253
    Spherical Harmonics?: true
    Max angular momentum: 4

  ==> CPHF Iterations <==

  => Iterations <=

             Iter  Converged  Remaining    Residual
  CGR           1          0          1   1.081E-01
  CGR           2          0          1   4.973E-02
  CGR           3          0          1   2.874E-02
  CGR           4          0          1   9.309E-03
  CGR           5          0          1   4.265E-03
  CGR           6          0          1   2.149E-03
  CGR           7          0          1   6.979E-04
  CGR           8          0          1   2.825E-04
  CGR           9          0          1   1.299E-04
  CGR          10          0          1   4.352E-05
  CGR          11          0          1   1.289E-05
  CGR          12          0          1   5.073E-06
  CGR          13          0          1   1.595E-06
  CGR          14          1          0   5.069E-07

    CGRSolver converged.

  ==> DFCorrGrad: Density-Fitted Correlated Gradients <==

    OpenMP threads:              8
    Integrals threads:           8
    Memory (MB):              3576
    Schwarz Cutoff:          0E+00
    Fitting Condition:       1E-12

   => Auxiliary Basis Set <=

  Basis Set: (AUG-CC-PVTZ AUX)
    Blend: AUG-CC-PVTZ-JKFIT
    Number of shells: 530
    Number of basis function: 1812
    Number of Cartesian functions: 2253
    Spherical Harmonics?: true
    Max angular momentum: 4

	-----------------------------------------------------------
	 ==================> DF-MP2 Energies <==================== 
	-----------------------------------------------------------
	 Reference Energy          =    -551.6731601849618301 [Eh]
	 Singles Energy            =      -0.0000000000000002 [Eh]
	 Same-Spin Energy          =      -0.5964090751738018 [Eh]
	 Opposite-Spin Energy      =      -1.8250231520795950 [Eh]
	 Correlation Energy        =      -2.4214322272533972 [Eh]
	 Total Energy              =    -554.0945924122152064 [Eh]
	-----------------------------------------------------------
	 ================> DF-SCS-MP2 Energies <================== 
	-----------------------------------------------------------
	 SCS Same-Spin Scale       =       0.3333333333333333 [-]
	 SCS Opposite-Spin Scale   =       1.2000000000000000 [-]
	 SCS Same-Spin Energy      =      -0.1988030250579339 [Eh]
	 SCS Opposite-Spin Energy  =      -2.1900277824955139 [Eh]
	 SCS Correlation Energy    =      -2.3888308075534481 [Eh]
	 SCS Total Energy          =    -554.0619909925152342 [Eh]
	-----------------------------------------------------------


  -Total Gradient:
     Atom            X                  Y                   Z
    ------   -----------------  -----------------  -----------------
       1        0.008886585291    -0.007301260889    -0.005211089563
       2        0.009862022349    -0.001285580438    -0.008772047805
       3       -0.000064197799     0.003139784009     0.006767786205
       4       -0.010892769734     0.005287955094     0.004373312481
       5       -0.015355682183     0.009033853784     0.013416454500
       6       -0.018929279305     0.008388063695     0.008427438863
       7        0.008343692745    -0.010249325389     0.004686634109
       8        0.005439492150     0.003346407305    -0.013696701341
       9       -0.001727914665     0.000869038961     0.000930804533
      10        0.013718048950    -0.006684341033    -0.008821771026
      11       -0.004646998348    -0.003937601376    -0.007857786138
      12       -0.001576502551     0.000441425318     0.001325343341
      13       -0.001468517585    -0.005650348900     0.006204399532
      14        0.001635345836     0.001139552566    -0.005941709488
      15        0.003767783294    -0.004278828246     0.002749853496
      16       -0.002971936375     0.001926560654    -0.005291258567
      17        0.001102853208    -0.000721065762     0.005007777992
      18       -0.005026091462     0.004344104969    -0.002887822516
      19       -0.001567646089    -0.000714163543     0.006995350350
      20        0.001881783459    -0.000446397065    -0.002558912858
      21        0.002410208353    -0.001677901989    -0.000088047997
      22        0.005094046631    -0.002700993237    -0.003201406345
      23        0.002085673827     0.007731061501     0.003443398247


*** tstop() called on gpu-3-8.local at Sun Nov 12 09:45:34 2017
Module time:
	user time   =    5411.49 seconds =      90.19 minutes
	system time =     107.28 seconds =       1.79 minutes
	total time  =       2566 seconds =      42.77 minutes
Total time:
	user time   =    5411.50 seconds =      90.19 minutes
	system time =     107.28 seconds =       1.79 minutes
	total time  =       2566 seconds =      42.77 minutes

			-----------------------------------------
			 OPTKING 2.0: for geometry optimizations 
			  - R.A. King,  Bethel University        
			-----------------------------------------

	Internal coordinates to be generated automatically.
	Detected frag 1 with atoms:  1 2 3 4 5 6 7 8 9 10 11 12 13 14 15 16 17 18 19 20
	 21 22 23
	---Fragment 1 Bond Connectivity---
	 1 : 3 9 14
	 2 : 4 9 15
	 3 : 1 11 16
	 4 : 2 11 17
	 5 : 7 10 18
	 6 : 8 10 19
	 7 : 5 12 20
	 8 : 6 12 21
	 9 : 1 2 10
	 10 : 5 6 9
	 11 : 3 4 13
	 12 : 7 8 22
	 13 : 11 23
	 14 : 1
	 15 : 2
	 16 : 3
	 17 : 4
	 18 : 5
	 19 : 6
	 20 : 7
	 21 : 8
	 22 : 12
	 23 : 13

	Assuming in current code that numbering for constraints corresponds to unified fragment.
	Fixed dihedral atom list: 
	     3    11    13    23
	---Fragment 1 Geometry and Gradient---
	 C          -2.4050507165        1.3539339344       -1.0918860369
	 C          -0.5285526666        0.1898626366        2.9029950080
	 C          -4.4421754878        2.4367470086        0.1798996505
	 C          -2.5656774378        1.2726757107        4.1766704215
	 C           2.4231995530        0.0632509857       -3.3784546577
	 C           2.9447639657       -2.9338546611        0.0060448463
	 C           4.4565448720       -1.0516874327       -4.6029971918
	 C           4.9667709278       -3.9732040342       -1.3035353638
	 C          -0.4472944429        0.2295468854        0.2687167787
	 C           1.6673090998       -0.8929504376       -1.0503120620
	 C          -4.5234337115        2.3970627598        2.8141778797
	 N           5.6546312402       -3.0151128848       -3.5428608313
	 O          -6.5114256033        3.4553093942        4.0557279490
	 H          -2.3691459200        1.3992873616       -3.1460183434
	 H           0.9832282397       -0.6794113846        3.9914772605
	 H          -5.9615152986        3.3098004820       -0.8915750669
	 H          -2.6185897696        1.2367709142        6.2289130019
	 H           1.4613289513        1.6544003896       -4.2477286789
	 H           2.3948536610       -3.7199807324        1.8201819338
	 H           5.1765305286       -0.4337469873       -6.4133548271
	 H           6.0665915372       -5.5567945335       -0.6270134082
	 H           7.1437354329       -3.8069081345       -4.4744958148
	 H          -5.9161618714        4.4700923276        5.4616841919
	             0.0088865853       -0.0073012609       -0.0052110896
	             0.0098620223       -0.0012855804       -0.0087720478
	            -0.0000641978        0.0031397840        0.0067677862
	            -0.0108927697        0.0052879551        0.0043733125
	            -0.0153556822        0.0090338538        0.0134164545
	            -0.0189292793        0.0083880637        0.0084274389
	             0.0083436927       -0.0102493254        0.0046866341
	             0.0054394922        0.0033464073       -0.0136967013
	            -0.0017279147        0.0008690390        0.0009308045
	             0.0137180490       -0.0066843410       -0.0088217710
	            -0.0046469983       -0.0039376014       -0.0078577861
	            -0.0015765026        0.0004414253        0.0013253433
	            -0.0014685176       -0.0056503489        0.0062043995
	             0.0016353458        0.0011395526       -0.0059417095
	             0.0037677833       -0.0042788282        0.0027498535
	            -0.0029719364        0.0019265607       -0.0052912586
	             0.0011028532       -0.0007210658        0.0050077780
	            -0.0050260915        0.0043441050       -0.0028878225
	            -0.0015676461       -0.0007141635        0.0069953504
	             0.0018817835       -0.0004463971       -0.0025589129
	             0.0024102084       -0.0016779020       -0.0000880480
	             0.0050940466       -0.0027009932       -0.0032014063
	             0.0020856738        0.0077310615        0.0034433982

	Previous optimization step data not found.  Starting new optimization.

	---Fragment 1 Intrafragment Coordinates---
	 - Coordinate -           - BOHR/RAD -       - ANG/DEG -
	 R(1,3)           =         2.634350	       1.394038
	 R(1,9)           =         2.635962	       1.394891
	 R(1,14)          =         2.054947	       1.087431
	 R(2,4)           =         2.635263	       1.394521
	 R(2,9)           =         2.635830	       1.394821
	 R(2,15)          =         2.055702	       1.087831
	 R(3,11)          =         2.635830	       1.394821
	 R(3,16)          =         2.053941	       1.086899
	 R(4,11)          =         2.636938	       1.395407
	 R(4,17)          =         2.053239	       1.086527
	 R(5,7)           =         2.622420	       1.387725
	 R(5,10)          =         2.627915	       1.390633
	 R(5,18)          =         2.052459	       1.086115
	 R(6,8)           =         2.623692	       1.388398
	 R(6,10)          =         2.629272	       1.391351
	 R(6,19)          =         2.052191	       1.085973
	 R(7,12)          =         2.532655	       1.340223
	 R(7,20)          =         2.043924	       1.081598
	 R(8,12)          =         2.530942	       1.339317
	 R(8,21)          =         2.043293	       1.081264
	 R(9,10)          =         2.733384	       1.446444
	 R(11,13)         =         2.571662	       1.360865
	 R(12,22)         =         1.926737	       1.019585
	 R(13,23)         =         1.833258	       0.970119
	 B(1,3,11)        =         2.094553	     120.009056
	 B(1,3,16)        =         2.088505	     119.662516
	 B(1,9,2)         =         2.093692	     119.959722
	 B(1,9,10)        =         2.095161	     120.043881
	 B(2,4,11)        =         2.093699	     119.960108
	 B(2,4,17)        =         2.089577	     119.723926
	 B(2,9,10)        =         2.094332	     119.996376
	 B(3,1,9)         =         2.094940	     120.031219
	 B(3,1,14)        =         2.079469	     119.144799
	 B(3,11,4)        =         2.094306	     119.994870
	 B(3,11,13)       =         2.094549	     120.008801
	 B(4,2,9)         =         2.095181	     120.045019
	 B(4,2,15)        =         2.078675	     119.099297
	 B(4,11,13)       =         2.094331	     119.996326
	 B(5,7,12)        =         2.095473	     120.061759
	 B(5,7,20)        =         2.162990	     123.930212
	 B(5,10,6)        =         2.092808	     119.909049
	 B(5,10,9)        =         2.095104	     120.040644
	 B(6,8,12)        =         2.095689	     120.074121
	 B(6,8,21)        =         2.161055	     123.819347
	 B(6,10,9)        =         2.095271	     120.050189
	 B(7,5,10)        =         2.073747	     118.816947
	 B(7,5,18)        =         2.088865	     119.683141
	 B(7,12,8)        =         2.135611	     122.361511
	 B(7,12,22)       =         2.073499	     118.802740
	 B(8,6,10)        =         2.073041	     118.776513
	 B(8,6,19)        =         2.089782	     119.735704
	 B(8,12,22)       =         2.074075	     118.835741
	 B(9,1,14)        =         2.108776	     120.823969
	 B(9,2,15)        =         2.109330	     120.855683
	 B(10,5,18)       =         2.120573	     121.499869
	 B(10,6,19)       =         2.120361	     121.487761
	 B(11,3,16)       =         2.100127	     120.328425
	 B(11,4,17)       =         2.099910	     120.315955
	 B(11,13,23)      =         1.925198	     110.305714
	 B(12,7,20)       =         2.024722	     116.007998
	 B(12,8,21)       =         2.026441	     116.106509
	 D(1,3,11,4)      =        -0.000325	      -0.018609
	 D(1,3,11,13)     =         3.140978	     179.964785
	 D(1,9,2,4)       =         0.000325	       0.018608
	 D(1,9,2,15)      =        -3.141497	    -179.994534
	 D(1,9,10,5)      =         0.522161	      29.917626
	 D(1,9,10,6)      =        -2.617252	    -149.957477
	 D(2,4,11,3)      =         0.000301	       0.017261
	 D(2,4,11,13)     =        -3.141002	    -179.966135
	 D(2,9,1,3)       =        -0.000348	      -0.019945
	 D(2,9,1,14)      =        -3.141221	    -179.978731
	 D(2,9,10,5)      =        -2.618515	    -150.029870
	 D(2,9,10,6)      =         0.525257	      30.095026
	 D(3,1,9,10)      =        -3.141025	    -179.967461
	 D(3,11,4,17)     =         3.141223	     179.978848
	 D(3,11,13,23)    =        -2.356709	    -135.029457
	 D(4,2,9,10)      =         3.141002	     179.966149
	 D(4,11,3,16)     =         3.141593	     180.000000
	 D(4,11,13,23)    =         0.784594	      44.953937
	 D(5,7,12,8)      =        -0.000900	      -0.051587
	 D(5,7,12,22)     =         3.141281	     179.982140
	 D(5,10,6,8)      =         0.001757	       0.100696
	 D(5,10,6,19)     =        -3.140779	    -179.953357
	 D(6,8,12,7)      =         0.001479	       0.084766
	 D(6,8,12,22)     =        -3.140702	    -179.948971
	 D(6,10,5,7)      =        -0.001201	      -0.068795
	 D(6,10,5,18)     =        -3.141485	    -179.993816
	 D(7,5,10,9)      =        -3.140617	    -179.944076
	 D(7,12,8,21)     =        -3.141052	    -179.969035
	 D(8,6,10,9)      =         3.141173	     179.975965
	 D(8,12,7,20)     =         3.139609	     179.886353
	 D(9,1,3,11)      =         0.000348	       0.019955
	 D(9,1,3,16)      =        -3.141571	    -179.998735
	 D(9,2,4,11)      =        -0.000301	      -0.017270
	 D(9,2,4,17)      =        -3.141228	    -179.979086
	 D(9,10,5,18)     =         0.002285	       0.130903
	 D(9,10,6,19)     =        -0.001363	      -0.078088
	 D(10,5,7,12)     =         0.000747	       0.042772
	 D(10,5,7,20)     =        -3.139673	    -179.890006
	 D(10,6,8,12)     =        -0.001882	      -0.107847
	 D(10,6,8,21)     =         3.140725	     179.950304
	 D(10,9,1,14)     =         0.001287	       0.073752
	 D(10,9,2,15)     =        -0.000820	      -0.046992
	 D(11,3,1,14)     =         3.141234	     179.979432
	 D(11,4,2,15)     =         3.141517	     179.995641
	 D(12,7,5,18)     =         3.141055	     179.969186
	 D(12,8,6,19)     =         3.140637	     179.945236
	 D(13,11,3,16)    =        -0.000286	      -0.016400
	 D(13,11,4,17)    =        -0.000079	      -0.004548
	 D(14,1,3,16)     =        -0.000685	      -0.039257
	 D(15,2,4,17)     =         0.000590	       0.033826
	 D(18,5,7,20)     =         0.000635	       0.036408
	 D(19,6,8,21)     =         0.000059	       0.003387
	 D(20,7,12,22)    =        -0.001395	      -0.079920
	 D(21,8,12,22)    =        -0.000048	      -0.002772

	Current energy   :      -554.0945924122

	Generating empirical Hessian (Schlegel '84) for each fragment.
	Adding user-defined constraint: Fragment 1; Coordinate 76:
		Value =    -2.356709; Fixed value    =    -2.356194
		Force =     0.000257; Force constant =     0.500000
	Removing off-diagonal coupling between coordinate 76 and others.
	Taking RFO optimization step.
	Going to follow RFO solution 1.
	Using RFO vector 1.

	Determining step-restricting scale parameter for RS-RFO.
	Maximum step size allowed    0.10000

	 Iter      |step|        alpha        rfo_root  
	------------------------------------------------
	    0     0.20446       1.00000           1
	    1     0.15299       4.40296           1
	    2     0.12418      11.29464           1
	    3     0.10745      21.15279           1
	    4     0.10094      27.22587           1
	    5     0.10002      28.22444           1
	    6     0.10000      28.24372           1
	------------------------------------------------
	Norm of target step-size    0.10000
	Projected energy change by RFO approximation:        -0.0045074840

	Back-transformation to cartesian coordinates...
	Could not converge backtransformation.
	Using first guess instead.

	--- Internal Coordinate Step in ANG or DEG, aJ/ANG or AJ/DEG ---
	 ---------------------------------------------------------------------------
	   Coordinate                Previous        Force       Change         New 
	   ----------                --------       ------       ------       ------
	    1 R(1,3)          =      1.394038    -0.089833    -0.009913     1.384125
	    2 R(1,9)          =      1.394891     0.016988     0.002093     1.396984
	    3 R(1,14)         =      1.087431    -0.049375    -0.006700     1.080731
	    4 R(2,4)          =      1.394521    -0.094187    -0.010332     1.384189
	    5 R(2,9)          =      1.394821     0.013169     0.001666     1.396487
	    6 R(2,15)         =      1.087831    -0.049731    -0.006783     1.081048
	    7 R(3,11)         =      1.394821    -0.055970    -0.006357     1.388464
	    8 R(3,16)         =      1.086899    -0.047599    -0.006437     1.080462
	    9 R(4,11)         =      1.395407    -0.019021    -0.002251     1.393156
	   10 R(4,17)         =      1.086527    -0.041108    -0.005603     1.080924
	   11 R(5,7)          =      1.387725    -0.114166    -0.012276     1.375449
	   12 R(5,10)         =      1.390633     0.069413     0.007760     1.398393
	   13 R(5,18)         =      1.086115    -0.057229    -0.007744     1.078371
	   14 R(6,8)          =      1.388398    -0.117491    -0.012701     1.375697
	   15 R(6,10)         =      1.391351     0.063962     0.007244     1.398595
	   16 R(6,19)         =      1.085973    -0.056661    -0.007645     1.078328
	   17 R(7,12)         =      1.340223     0.019393     0.001751     1.341974
	   18 R(7,20)         =      1.081598    -0.023023    -0.003067     1.078531
	   19 R(8,12)         =      1.339317     0.024456     0.002218     1.341535
	   20 R(8,21)         =      1.081264    -0.021161    -0.002824     1.078440
	   21 R(9,10)         =      1.446444     0.060210     0.007660     1.454105
	   22 R(11,13)        =      1.360865    -0.041498    -0.003743     1.357122
	   23 R(12,22)        =      1.019585    -0.054334    -0.006206     1.013379
	   24 R(13,23)        =      0.970119    -0.062594    -0.006041     0.964077
	   25 B(1,3,11)       =    120.009056    -0.000011    -0.081258   119.927799
	   26 B(1,3,16)       =    119.662516     0.000214     0.609779   120.272295
	   27 B(1,9,2)        =    119.959722    -0.000443    -0.855707   119.104015
	   28 B(1,9,10)       =    120.043881     0.000214     0.413806   120.457688
	   29 B(2,4,11)       =    119.960108     0.000065     0.108236   120.068344
	   30 B(2,4,17)       =    119.723926     0.000076     0.240222   119.964148
	   31 B(2,9,10)       =    119.996376     0.000228     0.441915   120.438291
	   32 B(3,1,9)        =    120.031219     0.000242     0.549132   120.580351
	   33 B(3,1,14)       =    119.144799    -0.000188    -0.459500   118.685300
	   34 B(3,11,4)       =    119.994870     0.000029    -0.012527   119.982344
	   35 B(3,11,13)      =    120.008801    -0.000710    -1.421916   118.586885
	   36 B(4,2,9)        =    120.045019     0.000118     0.292025   120.337044
	   37 B(4,2,15)       =    119.099297    -0.000095    -0.247383   118.851914
	   38 B(4,11,13)      =    119.996326     0.000681     1.433950   121.430276
	   39 B(5,7,12)       =    120.061759    -0.000227    -0.546553   119.515206
	   40 B(5,7,20)       =    123.930212    -0.000007    -0.052659   123.877553
	   41 B(5,10,6)       =    119.909049    -0.000826    -1.677028   118.232020
	   42 B(5,10,9)       =    120.040644     0.000414     0.838950   120.879595
	   43 B(6,8,12)       =    120.074121    -0.000223    -0.542099   119.532021
	   44 B(6,8,21)       =    123.819347     0.000005    -0.016402   123.802945
	   45 B(6,10,9)       =    120.050189     0.000413     0.838091   120.888281
	   46 B(7,5,10)       =    118.816947     0.000522     1.155376   119.972323
	   47 B(7,5,18)       =    119.683141    -0.000347    -0.817262   118.865879
	   48 B(7,12,8)       =    122.361511     0.000221     0.437794   122.799305
	   49 B(7,12,22)      =    118.802740    -0.000109    -0.216114   118.586625
	   50 B(8,6,10)       =    118.776513     0.000533     1.172538   119.949051
	   51 B(8,6,19)       =    119.735704    -0.000357    -0.840610   118.895094
	   52 B(8,12,22)      =    118.835741    -0.000112    -0.221674   118.614067
	   53 B(9,1,14)       =    120.823969    -0.000055    -0.091096   120.732873
	   54 B(9,2,15)       =    120.855683    -0.000022    -0.045762   120.809920
	   55 B(10,5,18)      =    121.499869    -0.000175    -0.339364   121.160505
	   56 B(10,6,19)      =    121.487761    -0.000176    -0.332738   121.155024
	   57 B(11,3,16)      =    120.328425    -0.000203    -0.528669   119.799756
	   58 B(11,4,17)      =    120.315955    -0.000140    -0.348461   119.967493
	   59 B(11,13,23)     =    110.305714    -0.000088    -0.235279   110.070435
	   60 B(12,7,20)      =    116.007998     0.000234     0.598873   116.606870
	   61 B(12,8,21)      =    116.106509     0.000218     0.558134   116.664643
	   62 D(1,3,11,4)     =     -0.018609    -0.000003     0.005750    -0.012858
	   63 D(1,3,11,13)    =    179.964785     0.000015     0.274594   180.239379
	   64 D(1,9,2,4)      =      0.018608    -0.000002    -0.044880    -0.026272
	   65 D(1,9,2,15)     =   -179.994534     0.000014     0.357998  -179.636536
	   66 D(1,9,10,5)     =     29.917626     0.000010     0.241427    30.159053
	   67 D(1,9,10,6)     =   -149.957477     0.000010     0.236207  -149.721270
	   68 D(2,4,11,3)     =      0.017261    -0.000001    -0.095280    -0.078019
	   69 D(2,4,11,13)    =   -179.966135    -0.000019    -0.371458  -180.337593
	   70 D(2,9,1,3)      =     -0.019945    -0.000001    -0.045109    -0.065054
	   71 D(2,9,1,14)     =   -179.978731     0.000016     0.361596  -179.617135
	   72 D(2,9,10,5)     =   -150.029870     0.000008     0.219667  -149.810204
	   73 D(2,9,10,6)     =     30.095026     0.000008     0.214446    30.309472
	   74 D(3,1,9,10)     =   -179.967461    -0.000003    -0.067257  -180.034718
	   75 D(3,11,4,17)    =    179.978848     0.000002    -0.012510   179.966338
	   76 D(3,11,13,23)   =   -135.029457    -0.000030    -0.231198  -135.260654
	   77 D(4,2,9,10)     =    179.966149    -0.000001    -0.022751   179.943398
	   78 D(4,11,3,16)    =    180.000000    -0.000009    -0.153555   179.846445
	   79 D(4,11,13,23)   =     44.953937    -0.000012     0.041461    44.995398
	   80 D(5,7,12,8)     =     -0.051587     0.000001     0.015799    -0.035788
	   81 D(5,7,12,22)    =    179.982140    -0.000000     0.000809   179.982949
	   82 D(5,10,6,8)     =      0.100696    -0.000001    -0.016219     0.084476
	   83 D(5,10,6,19)    =   -179.953357     0.000016     0.373240  -179.580117
	   84 D(6,8,12,7)     =      0.084766    -0.000000    -0.008304     0.076461
	   85 D(6,8,12,22)    =   -179.948971     0.000000     0.006691  -179.942281
	   86 D(6,10,5,7)     =     -0.068795     0.000001     0.024390    -0.044405
	   87 D(6,10,5,18)    =   -179.993816     0.000015     0.367714  -179.626102
	   88 D(7,5,10,9)     =   -179.944076     0.000001     0.016241  -179.927835
	   89 D(7,12,8,21)    =   -179.969035    -0.000007    -0.173281  -180.142316
	   90 D(8,6,10,9)     =    179.975965    -0.000000    -0.008068   179.967896
	   91 D(8,12,7,20)    =    179.886353    -0.000006    -0.134978   179.751375
	   92 D(9,1,3,11)     =      0.019955     0.000004     0.064662     0.084616
	   93 D(9,1,3,16)     =   -179.998735     0.000010     0.224720  -179.774014
	   94 D(9,2,4,11)     =     -0.017270     0.000004     0.114752     0.097482
	   95 D(9,2,4,17)     =   -179.979086     0.000001     0.032212  -179.946874
	   96 D(9,10,5,18)    =      0.130903     0.000015     0.359564     0.490467
	   97 D(9,10,6,19)    =     -0.078088     0.000016     0.381391     0.303303
	   98 D(10,5,7,12)    =      0.042772    -0.000001    -0.023125     0.019647
	   99 D(10,5,7,20)    =   -179.890006     0.000006     0.138864  -179.751142
	  100 D(10,6,8,12)    =     -0.107847     0.000000     0.007592    -0.100255
	  101 D(10,6,8,21)    =    179.950304     0.000008     0.184724   180.135028
	  102 D(10,9,1,14)    =      0.073752     0.000014     0.339448     0.413201
	  103 D(10,9,2,15)    =     -0.046992     0.000015     0.380126     0.333134
	  104 D(11,3,1,14)    =    179.979432    -0.000013    -0.333692   179.645740
	  105 D(11,4,2,15)    =    179.995641    -0.000012    -0.280331   179.715310
	  106 D(12,7,5,18)    =    179.969186    -0.000015    -0.358273   179.610913
	  107 D(12,8,6,19)    =    179.945236    -0.000016    -0.373337   179.571899
	  108 D(13,11,3,16)   =     -0.016400     0.000009     0.115082     0.098683
	  109 D(13,11,4,17)   =     -0.004548    -0.000016    -0.288688    -0.293236
	  110 D(14,1,3,16)    =     -0.039257    -0.000007    -0.173633    -0.212890
	  111 D(15,2,4,17)    =      0.033826    -0.000015    -0.362871    -0.329046
	  112 D(18,5,7,20)    =      0.036408    -0.000008    -0.196285    -0.159877
	  113 D(19,6,8,21)    =      0.003387    -0.000008    -0.196205    -0.192818
	  114 D(20,7,12,22)   =     -0.079920    -0.000006    -0.149967    -0.229888
	  115 D(21,8,12,22)   =     -0.002772    -0.000007    -0.158286    -0.161058
	 ---------------------------------------------------------------------------
	Successfully symmetrized geometry.
	 Forces used to impose fixed constraints are not included.
	  Forces zeroed: 76 

  ==> Convergence Check <==

  Measures of convergence in internal coordinates in au.
  Criteria marked as inactive (o), active & met (*), and active & unmet ( ).
  --------------------------------------------------------------------------------------------- ~
   Step     Total Energy     Delta E     MAX Force     RMS Force      MAX Disp      RMS Disp    ~
  --------------------------------------------------------------------------------------------- ~
    Convergence Criteria    1.00e-06 *    3.00e-04 *             o    1.20e-03 *             o  ~
  --------------------------------------------------------------------------------------------- ~
      1    -554.09459241   -5.54e+02      1.43e-02      4.09e-03 o    2.93e-02      9.32e-03 o  ~
  ---------------------------------------------------------------------------------------------

	Writing optimization data to binary file.
	Structure for next step:
	Cartesian Geometry (in Angstrom)
	    C    -1.2829786491   0.7219176333  -0.5586490988
	    C    -0.2871793340   0.1086883190   1.5465512321
	    C    -2.3534582800   1.2906018366   0.1095375711
	    C    -1.3565780565   0.6789315550   2.2152727557
	    C     1.3008837777   0.0243426681  -1.7925096242
	    C     1.5750285470  -1.5618272674  -0.0118296094
	    C     2.3645212538  -0.5559048368  -2.4435462214
	    C     2.6343102403  -2.1123563346  -0.6954827716
	    C    -0.2385842746   0.1242484167   0.1509967079
	    C     0.8843680244  -0.4730602124  -0.5537167851
	    C    -2.3933548701   1.2709428278   1.4972891488
	    N     2.9947960147  -1.5986948138  -1.8811968111
	    O    -3.4581389855   1.8320442012   2.1243301688
	    H    -1.2752734999   0.7433774271  -1.6391394266
	    H     0.5088134327  -0.3411908931   2.1233265663
	    H    -3.1603265402   1.7483190669  -0.4444080718
	    H    -1.3876178365   0.6642439029   3.2956512091
	    H     0.8060718595   0.8657081182  -2.2509297641
	    H     1.2896572964  -1.9872142994   0.9370645270
	    H     2.7404081220  -0.2215686442  -3.3975682199
	    H     3.2081354931  -2.9522828795  -0.3373195508
	    H     3.7765014881  -2.0155669432  -2.3732244794
	    H    -3.1590597916   2.3731336924   2.8640728294
			--------------------------
			 OPTKING Finished Execution 
			--------------------------

    Structure for next step:
    Molecular point group: c1
    Full point group: C1

    Geometry (in Angstrom), charge = 1, multiplicity = 1:

    C           -1.283914023942     0.722015178636    -0.558479760447
    C           -0.288114708825     0.108785864383     1.546720570524
    C           -2.354393654804     1.290699381939     0.109706909439
    C           -1.357513431326     0.679029100329     2.215442094085
    C            1.299948402843     0.024440213459    -1.792340285855
    C            1.574093172169    -1.561729722105    -0.011660271070
    C            2.363585878937    -0.555807291508    -2.443376882998
    C            2.633374865440    -2.112258789217    -0.695313433273
    C           -0.239519649449     0.124345962073     0.151166046301
    C            0.883432649523    -0.472962667063    -0.553547446699
    C           -2.394290244902     1.271040373111     1.497458487223
    N            2.993860639801    -1.598597268509    -1.881027472733
    O           -3.459074360396     1.832141746565     2.124499507159
    H           -1.276208874722     0.743474972447    -1.638970088177
    H            0.507878057804    -0.341093347754     2.123495904715
    H           -3.161261915030     1.748416612194    -0.444238733436
    H           -1.388553211331     0.664341448254     3.295820547524
    H            0.805136484626     0.865805663532    -2.250760425726
    H            1.288721921593    -1.987116754023     0.937233865329
    H            2.739472747161    -0.221471098881    -3.397398881513
    H            3.207200118263    -2.952185334193    -0.337150212420
    H            3.775566113283    -2.015469397830    -2.373055141019
    H           -3.159995166402     2.373231237755     2.864242167804

gradient() will perform analytic gradient computation.

*** tstart() called on gpu-3-8.local
*** at Sun Nov 12 09:45:35 2017

    SCF Algorithm Type (re)set to DF.

*** tstart() called on gpu-3-8.local
*** at Sun Nov 12 09:45:35 2017

   => Loading Basis Set <=

    Name: AUG-CC-PVTZ
    Role: ORBITAL
    Keyword: BASIS
    atoms 1-11  entry C          line   221 file /cbio/jclab/home/chayas/anaconda/envs/py35/share/psi4/basis/aug-cc-pvtz.gbs 
    atoms 12    entry N          line   267 file /cbio/jclab/home/chayas/anaconda/envs/py35/share/psi4/basis/aug-cc-pvtz.gbs 
    atoms 13    entry O          line   313 file /cbio/jclab/home/chayas/anaconda/envs/py35/share/psi4/basis/aug-cc-pvtz.gbs 
    atoms 14-23 entry H          line    34 file /cbio/jclab/home/chayas/anaconda/envs/py35/share/psi4/basis/aug-cc-pvtz.gbs 


         ---------------------------------------------------------
                                   SCF
            by Justin Turney, Rob Parrish, and Andy Simmonett
                              RHF Reference
                        8 Threads,   4768 MiB Core
         ---------------------------------------------------------

  ==> Geometry <==

    Molecular point group: c1
    Full point group: C1

    Geometry (in Angstrom), charge = 1, multiplicity = 1:

       Center              X                  Y                   Z               Mass       
    ------------   -----------------  -----------------  -----------------  -----------------
           C         -1.283914023942     0.722015178636    -0.558479760447    12.000000000000
           C         -0.288114708825     0.108785864383     1.546720570524    12.000000000000
           C         -2.354393654804     1.290699381939     0.109706909439    12.000000000000
           C         -1.357513431326     0.679029100329     2.215442094085    12.000000000000
           C          1.299948402843     0.024440213459    -1.792340285855    12.000000000000
           C          1.574093172169    -1.561729722105    -0.011660271070    12.000000000000
           C          2.363585878937    -0.555807291508    -2.443376882998    12.000000000000
           C          2.633374865440    -2.112258789217    -0.695313433273    12.000000000000
           C         -0.239519649449     0.124345962073     0.151166046301    12.000000000000
           C          0.883432649523    -0.472962667063    -0.553547446699    12.000000000000
           C         -2.394290244902     1.271040373111     1.497458487223    12.000000000000
           N          2.993860639801    -1.598597268509    -1.881027472733    14.003074004780
           O         -3.459074360396     1.832141746565     2.124499507159    15.994914619560
           H         -1.276208874722     0.743474972447    -1.638970088177     1.007825032070
           H          0.507878057804    -0.341093347754     2.123495904715     1.007825032070
           H         -3.161261915030     1.748416612194    -0.444238733436     1.007825032070
           H         -1.388553211331     0.664341448254     3.295820547524     1.007825032070
           H          0.805136484626     0.865805663532    -2.250760425726     1.007825032070
           H          1.288721921593    -1.987116754023     0.937233865329     1.007825032070
           H          2.739472747161    -0.221471098881    -3.397398881513     1.007825032070
           H          3.207200118263    -2.952185334193    -0.337150212420     1.007825032070
           H          3.775566113283    -2.015469397830    -2.373055141019     1.007825032070
           H         -3.159995166402     2.373231237755     2.864242167804     1.007825032070

  Running in c1 symmetry.

  Rotational constants: A =      0.09647  B =      0.01328  C =      0.01188 [cm^-1]
  Rotational constants: A =   2892.10873  B =    398.05666  C =    356.04118 [MHz]
  Nuclear repulsion =  713.144789474353615

  Charge       = 1
  Multiplicity = 1
  Electrons    = 90
  Nalpha       = 45
  Nbeta        = 45

  ==> Algorithm <==

  SCF Algorithm Type is DF.
  DIIS enabled.
  MOM disabled.
  Fractional occupation disabled.
  Guess Type is READ.
  Energy threshold   = 1.00e-10
  Density threshold  = 1.00e-10
  Integral threshold = 0.00e+00

  ==> Primary Basis <==

  Basis Set: AUG-CC-PVTZ
    Blend: AUG-CC-PVTZ
    Number of shells: 272
    Number of basis function: 828
    Number of Cartesian functions: 965
    Spherical Harmonics?: true
    Max angular momentum: 3

   => Loading Basis Set <=

    Name: (AUG-CC-PVTZ AUX)
    Role: JKFIT
    Keyword: DF_BASIS_SCF
    atoms 1-11  entry C          line   161 file /cbio/jclab/home/chayas/anaconda/envs/py35/share/psi4/basis/aug-cc-pvtz-jkfit.gbs 
    atoms 12    entry N          line   223 file /cbio/jclab/home/chayas/anaconda/envs/py35/share/psi4/basis/aug-cc-pvtz-jkfit.gbs 
    atoms 13    entry O          line   285 file /cbio/jclab/home/chayas/anaconda/envs/py35/share/psi4/basis/aug-cc-pvtz-jkfit.gbs 
    atoms 14-23 entry H          line    69 file /cbio/jclab/home/chayas/anaconda/envs/py35/share/psi4/basis/aug-cc-pvtz-jkfit.gbs 

  Reading orbitals from file 180, no projection.

  ==> Pre-Iterations <==

   -------------------------------------------------------
    Irrep   Nso     Nmo     Nalpha   Nbeta   Ndocc  Nsocc
   -------------------------------------------------------
     A        828     828       0       0       0       0
   -------------------------------------------------------
    Total     828     828      45      45      45       0
   -------------------------------------------------------

  ==> Integral Setup <==

  ==> DFJK: Density-Fitted J/K Matrices <==

    J tasked:                  Yes
    K tasked:                  Yes
    wK tasked:                  No
    OpenMP threads:              8
    Integrals threads:           8
    Memory (MB):              3576
    Algorithm:                Disk
    Integral Cache:           NONE
    Schwarz Cutoff:          1E-12
    Fitting Condition:       1E-12

   => Auxiliary Basis Set <=

  Basis Set: (AUG-CC-PVTZ AUX)
    Blend: AUG-CC-PVTZ-JKFIT
    Number of shells: 530
    Number of basis function: 1812
    Number of Cartesian functions: 2253
    Spherical Harmonics?: true
    Max angular momentum: 4

  Minimum eigenvalue in the overlap matrix is 5.8207398749E-07.
  Using Symmetric Orthogonalization.

  SCF Guess: Orbitals guess was supplied from a previous computation.

  ==> Iterations <==

                           Total Energy        Delta E     RMS |[F,P]|

   @DF-RHF iter   0:  -551.79012034404593   -5.51790e+02   4.97938e-04 
   @DF-RHF iter   1:  -551.67751519373746    1.12605e-01   1.00416e-04 
   @DF-RHF iter   2:  -551.67792225104859   -4.07057e-04   7.25537e-05 DIIS
   @DF-RHF iter   3:  -551.67827891885872   -3.56668e-04   1.06347e-05 DIIS
   @DF-RHF iter   4:  -551.67828701532687   -8.09647e-06   3.60851e-06 DIIS
   @DF-RHF iter   5:  -551.67828889383100   -1.87850e-06   1.31702e-06 DIIS
   @DF-RHF iter   6:  -551.67828921001035   -3.16179e-07   6.37147e-07 DIIS
   @DF-RHF iter   7:  -551.67828931807060   -1.08060e-07   3.10763e-07 DIIS
   @DF-RHF iter   8:  -551.67828935509726   -3.70267e-08   1.26290e-07 DIIS
   @DF-RHF iter   9:  -551.67828936125534   -6.15807e-09   3.62012e-08 DIIS
   @DF-RHF iter  10:  -551.67828936176249   -5.07157e-10   1.96459e-08 DIIS
   @DF-RHF iter  11:  -551.67828936183298   -7.04858e-11   4.74363e-09 DIIS
   @DF-RHF iter  12:  -551.67828936181002    2.29647e-11   1.80146e-09 DIIS
   @DF-RHF iter  13:  -551.67828936181024   -2.27374e-13   7.82339e-10 DIIS
   @DF-RHF iter  14:  -551.67828936182093   -1.06866e-11   3.49343e-10 DIIS
   @DF-RHF iter  15:  -551.67828936182707   -6.13909e-12   1.81207e-10 DIIS
   @DF-RHF iter  16:  -551.67828936182286    4.20641e-12   5.95260e-11 DIIS

  ==> Post-Iterations <==

    Orbital Energies (a.u.)
    -----------------------

    Doubly Occupied:                                                      

       1A    -20.695946     2A    -15.831140     3A    -11.482291  
       4A    -11.482225     5A    -11.450533     6A    -11.428522  
       7A    -11.412484     8A    -11.412385     9A    -11.377800  
      10A    -11.376331    11A    -11.374950    12A    -11.354783  
      13A    -11.350724    14A     -1.516817    15A     -1.510095  
      16A     -1.319260    17A     -1.266327    18A     -1.239857  
      19A     -1.155845    20A     -1.153754    21A     -1.066043  
      22A     -1.056886    23A     -0.974145    24A     -0.963529  
      25A     -0.952115    26A     -0.869833    27A     -0.861425  
      28A     -0.854878    29A     -0.820628    30A     -0.801691  
      31A     -0.781742    32A     -0.772604    33A     -0.757531  
      34A     -0.742524    35A     -0.724066    36A     -0.709537  
      37A     -0.705350    38A     -0.669116    39A     -0.656385  
      40A     -0.634199    41A     -0.609373    42A     -0.572391  
      43A     -0.540264    44A     -0.471002    45A     -0.443046  

    Virtual:                                                              

      46A     -0.107939    47A     -0.084177    48A     -0.062773  
      49A     -0.061278    50A     -0.059056    51A     -0.049635  
      52A     -0.042478    53A     -0.040758    54A     -0.035034  
      55A     -0.029175    56A     -0.025738    57A     -0.022420  
      58A     -0.018207    59A     -0.010448    60A     -0.005836  
      61A     -0.004560    62A      0.004954    63A      0.006241  
      64A      0.008880    65A      0.013641    66A      0.017259  
      67A      0.019746    68A      0.023972    69A      0.025900  
      70A      0.029048    71A      0.032743    72A      0.037064  
      73A      0.038263    74A      0.040914    75A      0.044911  
      76A      0.051417    77A      0.052634    78A      0.057342  
      79A      0.061198    80A      0.064805    81A      0.069260  
      82A      0.071802    83A      0.073055    84A      0.078328  
      85A      0.082765    86A      0.086606    87A      0.089204  
      88A      0.094166    89A      0.097113    90A      0.108454  
      91A      0.110573    92A      0.114566    93A      0.118057  
      94A      0.122925    95A      0.125334    96A      0.130165  
      97A      0.132631    98A      0.137127    99A      0.139538  
     100A      0.144487   101A      0.154458   102A      0.158166  
     103A      0.161319   104A      0.164467   105A      0.167006  
     106A      0.168729   107A      0.169873   108A      0.172759  
     109A      0.180967   110A      0.182382   111A      0.187517  
     112A      0.189152   113A      0.193173   114A      0.196183  
     115A      0.201167   116A      0.207045   117A      0.209879  
     118A      0.213776   119A      0.214048   120A      0.225462  
     121A      0.226723   122A      0.229193   123A      0.231379  
     124A      0.232061   125A      0.233114   126A      0.240060  
     127A      0.243312   128A      0.246486   129A      0.251307  
     130A      0.254690   131A      0.259609   132A      0.265812  
     133A      0.276403   134A      0.279591   135A      0.280319  
     136A      0.286121   137A      0.288783   138A      0.292352  
     139A      0.301224   140A      0.304036   141A      0.306290  
     142A      0.310950   143A      0.315370   144A      0.321741  
     145A      0.324222   146A      0.325396   147A      0.328016  
     148A      0.333557   149A      0.336768   150A      0.338190  
     151A      0.343038   152A      0.345496   153A      0.352346  
     154A      0.354219   155A      0.355217   156A      0.359842  
     157A      0.362825   158A      0.368419   159A      0.370417  
     160A      0.375723   161A      0.377323   162A      0.379285  
     163A      0.384022   164A      0.386649   165A      0.393920  
     166A      0.395562   167A      0.397982   168A      0.403340  
     169A      0.405950   170A      0.408394   171A      0.411414  
     172A      0.414946   173A      0.417091   174A      0.420970  
     175A      0.422127   176A      0.424484   177A      0.431584  
     178A      0.435188   179A      0.438572   180A      0.441871  
     181A      0.453519   182A      0.455552   183A      0.458180  
     184A      0.466631   185A      0.471941   186A      0.475461  
     187A      0.481347   188A      0.488753   189A      0.491537  
     190A      0.497992   191A      0.508234   192A      0.509731  
     193A      0.517696   194A      0.525135   195A      0.530947  
     196A      0.534979   197A      0.539991   198A      0.544088  
     199A      0.549323   200A      0.558670   201A      0.567965  
     202A      0.571775   203A      0.576037   204A      0.578974  
     205A      0.584587   206A      0.588615   207A      0.589943  
     208A      0.597657   209A      0.605229   210A      0.607264  
     211A      0.620201   212A      0.622509   213A      0.626385  
     214A      0.627493   215A      0.634860   216A      0.638871  
     217A      0.641400   218A      0.647900   219A      0.657503  
     220A      0.658900   221A      0.667146   222A      0.673242  
     223A      0.678852   224A      0.689260   225A      0.698832  
     226A      0.701692   227A      0.711078   228A      0.711854  
     229A      0.719849   230A      0.720825   231A      0.727208  
     232A      0.733819   233A      0.735080   234A      0.739698  
     235A      0.743382   236A      0.753550   237A      0.757229  
     238A      0.759120   239A      0.766116   240A      0.767517  
     241A      0.771939   242A      0.779465   243A      0.783944  
     244A      0.790308   245A      0.793320   246A      0.799593  
     247A      0.800639   248A      0.808321   249A      0.808872  
     250A      0.818270   251A      0.822411   252A      0.824479  
[...]
	 B(8,12,22)       =         2.072941	     118.770764
	 B(9,1,14)        =         2.103140	     120.501044
	 B(9,2,15)        =         2.103191	     120.503992
	 B(10,5,18)       =         2.108104	     120.785469
	 B(10,6,19)       =         2.107976	     120.778101
	 B(11,3,16)       =         2.073039	     118.776391
	 B(11,4,17)       =         2.089024	     119.692237
	 B(11,13,23)      =         1.931017	     110.639106
	 B(12,7,20)       =         2.040798	     116.929107
	 B(12,8,21)       =         2.040807	     116.929630
	 D(1,3,11,4)      =         0.012946	       0.741734
	 D(1,3,11,13)     =        -3.117380	    -178.612715
	 D(1,9,2,4)       =         0.002540	       0.145525
	 D(1,9,2,15)      =        -3.099142	    -177.567754
	 D(1,9,10,5)      =         0.474466	      27.184927
	 D(1,9,10,6)      =        -2.664924	    -152.688890
	 D(2,4,11,3)      =        -0.015291	      -0.876091
	 D(2,4,11,13)     =         3.114485	     178.446833
	 D(2,9,1,3)       =        -0.004910	      -0.281337
	 D(2,9,1,14)      =        -3.111095	    -178.252589
	 D(2,9,10,5)      =        -2.666894	    -152.801761
	 D(2,9,10,6)      =         0.476901	      27.324421
	 D(3,1,9,10)      =         3.136911	     179.731737
	 D(3,11,4,17)     =         3.130684	     179.374952
	 D(3,11,13,23)    =        -2.359722	    -135.202133
	 D(4,2,9,10)      =        -3.139281	    -179.867548
	 D(4,11,3,16)     =         3.139514	     179.880880
	 D(4,11,13,23)    =         0.793440	      45.460753
	 D(5,7,12,8)      =         0.000295	       0.016875
	 D(5,7,12,22)     =         3.141270	     179.981535
	 D(5,10,6,8)      =         0.000600	       0.034352
	 D(5,10,6,19)     =        -3.107409	    -178.041402
	 D(6,8,12,7)      =         0.000919	       0.052673
	 D(6,8,12,22)     =        -3.140057	    -179.911986
	 D(6,10,5,7)      =         0.000616	       0.035269
	 D(6,10,5,18)     =        -3.109226	    -178.145505
	 D(7,5,10,9)      =        -3.138874	    -179.844251
	 D(7,12,8,21)     =         3.130143	     179.343976
	 D(8,6,10,9)      =         3.140090	     179.913901
	 D(8,12,7,20)     =         3.130736	     179.377932
	 D(9,1,3,11)      =        -0.002818	      -0.161450
	 D(9,1,3,16)      =        -3.129016	    -179.279391
	 D(9,2,4,11)      =         0.007528	       0.431312
	 D(9,2,4,17)      =        -3.138475	    -179.821355
	 D(9,10,5,18)     =         0.034470	       1.974975
	 D(9,10,6,19)     =         0.032082	       1.838148
	 D(10,5,7,12)     =        -0.001072	      -0.061393
	 D(10,5,7,20)     =        -3.130725	    -179.377341
	 D(10,6,8,12)     =        -0.001364	      -0.078144
	 D(10,6,8,21)     =        -3.129714	    -179.319377
	 D(10,9,1,14)     =         0.030726	       1.760485
	 D(10,9,2,15)     =         0.042223	       2.419174
	 D(11,3,1,14)     =         3.103956	     177.843596
	 D(11,4,2,15)     =         3.109876	     178.182797
	 D(12,7,5,18)     =         3.109544	     178.163744
	 D(12,8,6,19)     =         3.107461	     178.044428
	 D(13,11,3,16)    =         0.009188	       0.526431
	 D(13,11,4,17)    =        -0.022726	      -1.302124
	 D(14,1,3,16)     =        -0.022242	      -1.274345
	 D(15,2,4,17)     =        -0.036126	      -2.069870
	 D(18,5,7,20)     =        -0.020110	      -1.152204
	 D(19,6,8,21)     =        -0.020888	      -1.196804
	 D(20,7,12,22)    =        -0.011474	      -0.657407
	 D(21,8,12,22)    =        -0.010833	      -0.620684

	Current energy   :      -554.0977371213

	Energy change for the previous step:
		Projected    :         0.0000359481
		Actual       :        -0.0000160519

	Performing BFGS update.
	Previous computed or guess Hessian on step 1.
	Steps to be used in Hessian update: 11 10
	Adding user-defined constraint: Fragment 1; Coordinate 76:
		Value =    -2.359722; Fixed value    =    -2.356190
		Force =     0.002738; Force constant =     0.775000
	Removing off-diagonal coupling between coordinate 76 and others.
	Taking RFO optimization step.
	Going to follow RFO solution 1.
	Rejecting RFO root 1 because normalization gives large value.
	Using RFO vector 2.
	Norm of target step-size    0.00204
	Projected energy change by RFO approximation:        -0.0000006661

	Back-transformation to cartesian coordinates...
	Successfully converged to displaced geometry.

	--- Internal Coordinate Step in ANG or DEG, aJ/ANG or AJ/DEG ---
	 ---------------------------------------------------------------------------
	   Coordinate                Previous        Force       Change         New 
	   ----------                --------       ------       ------       ------
	    1 R(1,3)          =      1.379611    -0.000139    -0.000024     1.379586
	    2 R(1,9)          =      1.398660     0.000422     0.000032     1.398693
	    3 R(1,14)         =      1.079478    -0.000036    -0.000005     1.079473
	    4 R(2,4)          =      1.380521     0.000348     0.000014     1.380535
	    5 R(2,9)          =      1.398159     0.000177     0.000000     1.398159
	    6 R(2,15)         =      1.079569    -0.000076    -0.000022     1.079547
	    7 R(3,11)         =      1.391278     0.000267     0.000020     1.391298
	    8 R(3,16)         =      1.078454     0.000204     0.000024     1.078478
	    9 R(4,11)         =      1.392437    -0.000241    -0.000026     1.392411
	   10 R(4,17)         =      1.079490     0.000127    -0.000006     1.079485
	   11 R(5,7)          =      1.371712     0.000394     0.000014     1.371725
	   12 R(5,10)         =      1.401356    -0.000178    -0.000010     1.401347
	   13 R(5,18)         =      1.077376    -0.000019    -0.000007     1.077369
	   14 R(6,8)          =      1.371744     0.000419     0.000015     1.371758
	   15 R(6,10)         =      1.401306    -0.000098    -0.000003     1.401303
	   16 R(6,19)         =      1.077404    -0.000038    -0.000008     1.077396
	   17 R(7,12)         =      1.343345    -0.000607    -0.000036     1.343309
	   18 R(7,20)         =      1.077251     0.000035     0.000001     1.077251
	   19 R(8,12)         =      1.343293    -0.000588    -0.000031     1.343262
	   20 R(8,21)         =      1.077235     0.000018    -0.000002     1.077233
	   21 R(9,10)         =      1.445986     0.000018    -0.000027     1.445960
	   22 R(11,13)        =      1.354232    -0.000267    -0.000036     1.354196
	   23 R(12,22)        =      1.011735     0.000255     0.000014     1.011748
	   24 R(13,23)        =      0.962856     0.000184     0.000001     0.962857
	   25 B(1,3,11)       =    120.025826     0.000002     0.003496   120.029322
	   26 B(1,3,16)       =    121.192046     0.000000     0.003467   121.195513
	   27 B(1,9,2)        =    118.790361    -0.000004    -0.006644   118.783716
	   28 B(1,9,10)       =    120.611784     0.000002     0.002434   120.614218
	   29 B(2,4,11)       =    119.975654    -0.000000    -0.000682   119.974972
	   30 B(2,4,17)       =    120.331629    -0.000000    -0.000354   120.331276
	   31 B(2,9,10)       =    120.597854     0.000003     0.004211   120.602065
	   32 B(3,1,9)        =    120.657038     0.000001     0.001451   120.658489
	   33 B(3,1,14)       =    118.811534    -0.000002    -0.003630   118.807904
	   34 B(3,11,4)       =    119.897761    -0.000002    -0.003149   119.894612
	   35 B(3,11,13)      =    117.690217     0.000005     0.007656   117.697874
	   36 B(4,2,9)        =    120.647853     0.000003     0.005672   120.653525
	   37 B(4,2,15)       =    118.809550    -0.000003    -0.006472   118.803078
	   38 B(4,11,13)      =    122.408715    -0.000004    -0.004543   122.404172
	   39 B(5,7,12)       =    119.452572     0.000004     0.005370   119.457942
	   40 B(5,7,20)       =    123.615000    -0.000002    -0.004403   123.610597
	   41 B(5,10,6)       =    116.834269    -0.000003    -0.006087   116.828182
	   42 B(5,10,9)       =    121.594092     0.000001     0.002455   121.596547
	   43 B(6,8,12)       =    119.446872     0.000004     0.005399   119.452271
	   44 B(6,8,21)       =    123.619412    -0.000002    -0.004377   123.615036
	   45 B(6,10,9)       =    121.571526     0.000002     0.003629   121.575155
	   46 B(7,5,10)       =    120.899842    -0.000000     0.001942   120.901783
	   47 B(7,5,18)       =    118.290511    -0.000003    -0.010497   118.280013
	   48 B(7,12,8)       =    122.459972    -0.000004    -0.008177   122.451795
	   49 B(7,12,22)      =    118.769255     0.000002     0.004077   118.773332
	   50 B(8,6,10)       =    120.906417    -0.000000     0.001555   120.907972
	   51 B(8,6,19)       =    118.288432    -0.000003    -0.009840   118.278592
	   52 B(8,12,22)      =    118.770764     0.000002     0.004098   118.774862
	   53 B(9,1,14)       =    120.501044     0.000001     0.002291   120.503335
	   54 B(9,2,15)       =    120.503992     0.000000     0.000922   120.504914
	   55 B(10,5,18)      =    120.785469     0.000003     0.008563   120.794032
	   56 B(10,6,19)      =    120.778101     0.000003     0.008215   120.786315
	   57 B(11,3,16)      =    118.776391    -0.000003    -0.006987   118.769404
	   58 B(11,4,17)      =    119.692237     0.000001     0.000994   119.693231
	   59 B(11,13,23)     =    110.639106     0.000002     0.004664   110.643770
	   60 B(12,7,20)      =    116.929107    -0.000002    -0.000924   116.928183
	   61 B(12,8,21)      =    116.929630    -0.000002    -0.000960   116.928669
	   62 D(1,3,11,4)     =      0.741734    -0.000001    -0.008600     0.733134
	   63 D(1,3,11,13)    =   -178.612715     0.000002    -0.005090  -178.617805
	   64 D(1,9,2,4)      =      0.145525    -0.000000    -0.002061     0.143464
	   65 D(1,9,2,15)     =   -177.567754    -0.000000    -0.005531  -177.573285
	   66 D(1,9,10,5)     =     27.184927    -0.000000    -0.049415    27.135512
	   67 D(1,9,10,6)     =   -152.688890    -0.000000    -0.047921  -152.736812
	   68 D(2,4,11,3)     =     -0.876091     0.000001     0.011564    -0.864527
	   69 D(2,4,11,13)    =    178.446833    -0.000002     0.007964   178.454797
	   70 D(2,9,1,3)      =     -0.281337     0.000000     0.005025    -0.276313
	   71 D(2,9,1,14)     =   -178.252589     0.000000     0.001363  -178.251226
	   72 D(2,9,10,5)     =   -152.801761    -0.000000    -0.051287  -152.853048
	   73 D(2,9,10,6)     =     27.324421    -0.000000    -0.049793    27.274629
	   74 D(3,1,9,10)     =    179.731737    -0.000000     0.003186   179.734922
	   75 D(3,11,4,17)    =    179.374952     0.000001     0.022215   179.397167
	   76 D(3,11,13,23)   =   -135.202133    -0.000008    -0.019807  -135.221940
	   77 D(4,2,9,10)     =   -179.867548    -0.000000    -0.000222  -179.867770
	   78 D(4,11,3,16)    =    179.880880    -0.000001    -0.010363   179.870517
	   79 D(4,11,13,23)   =     45.460753    -0.000005    -0.016214    45.444538
	   80 D(5,7,12,8)     =      0.016875     0.000000     0.001891     0.018766
	   81 D(5,7,12,22)    =    179.981535    -0.000000    -0.000554   179.980981
	   82 D(5,10,6,8)     =      0.034352    -0.000000     0.000623     0.034974
	   83 D(5,10,6,19)    =   -178.041402     0.000000     0.003295  -178.038107
	   84 D(6,8,12,7)     =      0.052673    -0.000000    -0.003136     0.049537
	   85 D(6,8,12,22)    =   -179.911986    -0.000000    -0.000691  -179.912677
	   86 D(6,10,5,7)     =      0.035269    -0.000000    -0.001873     0.033396
	   87 D(6,10,5,18)    =   -178.145505     0.000000    -0.001958  -178.147463
	   88 D(7,5,10,9)     =   -179.844251    -0.000000    -0.000458  -179.844709
	   89 D(7,12,8,21)    =    179.343976     0.000000     0.002252   179.346228
	   90 D(8,6,10,9)     =    179.913901    -0.000000    -0.000794   179.913107
	   91 D(8,12,7,20)    =    179.377932     0.000000     0.005995   179.383928
	   92 D(9,1,3,11)     =     -0.161450     0.000001     0.000295    -0.161155
	   93 D(9,1,3,16)     =   -179.279391     0.000000     0.002192  -179.277199
	   94 D(9,2,4,11)     =      0.431312    -0.000000    -0.006176     0.425135
	   95 D(9,2,4,17)     =   -179.821355    -0.000000    -0.016892  -179.838248
	   96 D(9,10,5,18)    =      1.974975     0.000000    -0.000543     1.974432
	   97 D(9,10,6,19)    =      1.838148     0.000000     0.001878     1.840026
	   98 D(10,5,7,12)    =     -0.061393     0.000000     0.000691    -0.060702
	   99 D(10,5,7,20)    =   -179.377341    -0.000000    -0.003732  -179.381073
	  100 D(10,6,8,12)    =     -0.078144     0.000000     0.001802    -0.076342
	  101 D(10,6,8,21)    =   -179.319377    -0.000000    -0.003998  -179.323375
	  102 D(10,9,1,14)    =      1.760485     0.000000    -0.000476     1.760009
	  103 D(10,9,2,15)    =      2.419174    -0.000000    -0.003692     2.415482
	  104 D(11,3,1,14)    =    177.843596     0.000000     0.004012   177.847608
	  105 D(11,4,2,15)    =    178.182797    -0.000000    -0.002604   178.180193
	  106 D(12,7,5,18)    =    178.163744     0.000000     0.001107   178.164851
	  107 D(12,8,6,19)    =    178.044428     0.000000    -0.000470   178.043958
	  108 D(13,11,3,16)   =      0.526431     0.000002    -0.006852     0.519579
	  109 D(13,11,4,17)   =     -1.302124    -0.000002     0.018615    -1.283509
	  110 D(14,1,3,16)    =     -1.274345     0.000000     0.005909    -1.268436
	  111 D(15,2,4,17)    =     -2.069870    -0.000000    -0.013319    -2.083190
	  112 D(18,5,7,20)    =     -1.152204    -0.000000    -0.003316    -1.155520
	  113 D(19,6,8,21)    =     -1.196804    -0.000000    -0.006271    -1.203075
	  114 D(20,7,12,22)   =     -0.657407     0.000000     0.003550    -0.653858
	  115 D(21,8,12,22)   =     -0.620684     0.000000     0.004697    -0.615987
	 ---------------------------------------------------------------------------
	Successfully symmetrized geometry.
	 Forces used to impose fixed constraints are not included.
	  Forces zeroed: 76 

  ==> Convergence Check <==

  Measures of convergence in internal coordinates in au.
  Criteria marked as inactive (o), active & met (*), and active & unmet ( ).
  ---------------------------------------------------------------------------------------------
   Step     Total Energy     Delta E     MAX Force     RMS Force      MAX Disp      RMS Disp   
  ---------------------------------------------------------------------------------------------
    Convergence Criteria    1.00e-06 *    3.00e-04 *             o    1.20e-03 *             o
  ---------------------------------------------------------------------------------------------
     12    -554.09773712   -1.61e-05      2.80e-04 *    4.23e-05 o    8.95e-04 *    1.91e-04 o  ~
  ---------------------------------------------------------------------------------------------


  **** Optimization is complete! (in 12 steps) ****

  ==> Optimization Summary <==

  Measures of convergence in internal coordinates in au.
  --------------------------------------------------------------------------------------------------------------- ~
   Step         Total Energy             Delta E       MAX Force       RMS Force        MAX Disp        RMS Disp  ~
  --------------------------------------------------------------------------------------------------------------- ~
      1    -554.094592412215   -554.094592412215      0.01426078      0.00408986      0.02926967      0.00931660  ~
      2    -554.097228607700     -0.002636195484      0.00403111      0.00114444      0.02119578      0.00933135  ~
      3    -554.097717863459     -0.000489255760      0.00134001      0.00027906      0.02155804      0.00561804  ~
      4    -554.097764818195     -0.000046954736      0.00047369      0.00009279      0.01102605      0.00214370  ~
      5    -554.097766884793     -0.000002066598      0.00046882      0.00006343      0.00460865      0.00088022  ~
      6    -554.097765934300      0.000000950493      0.00050080      0.00006157      0.00115822      0.00023898  ~
      7    -554.097762239567      0.000003694733      0.00043762      0.00005472      0.00148412      0.00031613  ~
      8    -554.097759650330      0.000002589237      0.00040771      0.00005058      0.03436809      0.00932520  ~
      9    -554.097607445328      0.000152205002      0.00202976      0.00050220      0.04073311      0.00878658  ~
     10    -554.097729467075     -0.000122021747      0.00040600      0.00013681      0.02010091      0.00516258  ~
     11    -554.097721069398      0.000008397676      0.00099579      0.00018163      0.01184400      0.00246850  ~
     12    -554.097737121256     -0.000016051858      0.00044129      0.00005898      0.00089512      0.00019054  ~
  --------------------------------------------------------------------------------------------------------------- ~

	Writing optimization data to binary file.
	Final energy is   -554.0977371212560
	Final (previous) structure:
	Cartesian Geometry (in Angstrom)
	    C    -1.2769827482   0.7564574357  -0.5349278404
	    C    -0.2900526639   0.0750546237   1.5522638755
	    C    -2.3413058174   1.3090503828   0.1471152454
	    C    -1.3527597121   0.6298120772   2.2369060091
	    C     1.2733387891   0.0226700359  -1.8158662542
	    C     1.6066583371  -1.5289336247  -0.0321118854
	    C     2.3286802402  -0.5440707926  -2.4841865273
	    C     2.6583755774  -2.0736172466  -0.7241314490
	    C    -0.2359214918   0.1280947627   0.1561600439
	    C     0.8762906766  -0.4558305778  -0.5600041732
	    C    -2.3886066460   1.2418438795   1.5359640350
	    N     2.9900089045  -1.5708922640  -1.9248486393
	    O    -3.4688246482   1.7742439909   2.1553372937
	    H    -1.2773703211   0.7886539668  -1.6139252306
	    H     0.5171412179  -0.3684132071   2.1155074034
	    H    -3.1542171416   1.7854179321  -0.3775869891
	    H    -1.3879418145   0.5884767038   3.3150306285
	    H     0.7753580021   0.8643280974  -2.2679345956
	    H     1.3365667387  -1.9670897014   0.9143922934
	    H     2.6767619137  -0.2054192224  -3.4457597329
	    H     3.2421951323  -2.9046595110  -0.3650231659
	    H     3.7665843570  -1.9812813704  -2.4269625501
	    H    -3.1992047767   2.3006566094   2.9151315268
	Saving final (previous) structure.
			--------------------------
			 OPTKING Finished Execution 
			--------------------------

    Final optimized geometry and variables:
    Molecular point group: c1
    Full point group: C1

    Geometry (in Angstrom), charge = 1, multiplicity = 1:

    C           -1.276982748244     0.756457435671    -0.534927840427
    C           -0.290052663895     0.075054623742     1.552263875517
    C           -2.341305817356     1.309050382802     0.147115245429
    C           -1.352759712068     0.629812077215     2.236906009114
    C            1.273338789065     0.022670035869    -1.815866254218
    C            1.606658337054    -1.528933624702    -0.032111885403
    C            2.328680240161    -0.544070792634    -2.484186527255
    C            2.658375577414    -2.073617246557    -0.724131449010
    C           -0.235921491809     0.128094762655     0.156160043853
    C            0.876290676624    -0.455830577776    -0.560004173223
    C           -2.388606646018     1.241843879517     1.535964035046
    N            2.990008904512    -1.570892263966    -1.924848639306
    O           -3.468824648206     1.774243990924     2.155337293654
    H           -1.277370321080     0.788653966798    -1.613925230601
    H            0.517141217940    -0.368413207120     2.115507403410
    H           -3.154217141559     1.785417932139    -0.377586989144
    H           -1.387941814465     0.588476703766     3.315030628488
    H            0.775358002131     0.864328097397    -2.267934595567
    H            1.336566738684    -1.967089701411     0.914392293410
    H            2.676761913729    -0.205419222376    -3.445759732868
    H            3.242195132290    -2.904659510957    -0.365023165869
    H            3.766584357042    -1.981281370370    -2.426962550131
    H           -3.199204776734     2.300656609418     2.915131526810

	Cleaning optimization helper files.

*** Psi4 exiting successfully. Buy a developer a beer!
