
    -----------------------------------------------------------------------
          Psi4: An Open-Source Ab Initio Electronic Structure Package
                               Psi4 1.1 release

                         Git: Rev {HEAD} add49b9 


    R. M. Parrish, L. A. Burns, D. G. A. Smith, A. C. Simmonett,
    A. E. DePrince III, E. G. Hohenstein, U. Bozkaya, A. Yu. Sokolov,
    R. Di Remigio, R. M. Richard, J. F. Gonthier, A. M. James,
    H. R. McAlexander, A. Kumar, M. Saitow, X. Wang, B. P. Pritchard,
    P. Verma, H. F. Schaefer III, K. Patkowski, R. A. King, E. F. Valeev,
    F. A. Evangelista, J. M. Turney, T. D. Crawford, and C. D. Sherrill,
    J. Chem. Theory Comput. in press (2017).
    (doi: 10.1021/acs.jctc.7b00174)

    -----------------------------------------------------------------------


    Psi4 started on: Saturday, 11 November 2017 06:16PM

    Process ID:  21680
    PSIDATADIR: /cbio/jclab/home/chayas/anaconda/envs/py35/share/psi4
    Memory:     500.0 MiB
    Threads:    8
    
  ==> Input File <==

--------------------------------------------------------------------------

memory 5 Gb

molecule phepyrFOH_cation {
  symmetry C1
  1 1 
  C      1.885   -1.036   -0.112
  C      0.807   -0.463   0.561
  C      5.008   -1.412   -0.673
  C      4.143   -3.609   -0.194
  C      1.800   -1.079   2.676
  C      6.068   -2.009   -1.341
  C      5.224   -4.150   -0.874
  C      2.921   -1.631   0.608
  C      4.038   -2.225   -0.095
  C      0.764   -0.484   1.955
  C      2.878   -1.652   2.002
  N      6.144   -3.345   -1.422
  O      -0.289   0.076   2.612
  F      3.866   -2.220   2.709
  H      1.904   -1.012   -1.199
  H      0.002   -0.002   -0.006
  H      4.952   -0.330   -0.611
  H      3.400   -4.267   0.247
  H      1.772   -1.099   3.762
  H      6.866   -1.458   -1.819
  H      5.387   -5.212   -1.001
  H      6.930   -3.763   -1.918
  H      -0.175   -0.018   3.571
  units Angstrom
}

dih_string = "1 8 9 3 75"
set optking fixed_dihedral = $dih_string

optimize('MP2/aug-cc-PVTZ')
--------------------------------------------------------------------------

  Memory set to   4.657 GiB by Python driver.
gradient() will perform analytic gradient computation.

*** tstart() called on gpu-2-11.local
*** at Sat Nov 11 18:16:21 2017

    SCF Algorithm Type (re)set to DF.

*** tstart() called on gpu-2-11.local
*** at Sat Nov 11 18:16:21 2017

   => Loading Basis Set <=

    Name: AUG-CC-PVTZ
    Role: ORBITAL
    Keyword: BASIS
    atoms 1-11  entry C          line   221 file /cbio/jclab/home/chayas/anaconda/envs/py35/share/psi4/basis/aug-cc-pvtz.gbs 
    atoms 12    entry N          line   267 file /cbio/jclab/home/chayas/anaconda/envs/py35/share/psi4/basis/aug-cc-pvtz.gbs 
    atoms 13    entry O          line   313 file /cbio/jclab/home/chayas/anaconda/envs/py35/share/psi4/basis/aug-cc-pvtz.gbs 
    atoms 14    entry F          line   359 file /cbio/jclab/home/chayas/anaconda/envs/py35/share/psi4/basis/aug-cc-pvtz.gbs 
    atoms 15-23 entry H          line    34 file /cbio/jclab/home/chayas/anaconda/envs/py35/share/psi4/basis/aug-cc-pvtz.gbs 


         ---------------------------------------------------------
                                   SCF
            by Justin Turney, Rob Parrish, and Andy Simmonett
                              RHF Reference
                        8 Threads,   4768 MiB Core
         ---------------------------------------------------------

  ==> Geometry <==

    Molecular point group: c1
    Full point group: C1

    Geometry (in Angstrom), charge = 1, multiplicity = 1:

       Center              X                  Y                   Z               Mass       
    ------------   -----------------  -----------------  -----------------  -----------------
           C         -1.337935311892     0.763874458470    -0.788199299300    12.000000000000
           C         -2.415935311892     1.336874458470    -0.115199299300    12.000000000000
           C          1.785064688108     0.387874458470    -1.349199299300    12.000000000000
           C          0.920064688108    -1.809125541530    -0.870199299300    12.000000000000
           C         -1.422935311892     0.720874458470     1.999800700700    12.000000000000
           C          2.845064688108    -0.209125541530    -2.017199299300    12.000000000000
           C          2.001064688108    -2.350125541530    -1.550199299300    12.000000000000
           C         -0.301935311892     0.168874458470    -0.068199299300    12.000000000000
           C          0.815064688108    -0.425125541530    -0.771199299300    12.000000000000
           C         -2.458935311892     1.315874458470     1.278800700700    12.000000000000
           C         -0.344935311892     0.147874458470     1.325800700700    12.000000000000
           N          2.921064688108    -1.545125541530    -2.098199299300    14.003074004780
           O         -3.511935311892     1.875874458470     1.935800700700    15.994914619560
           F          0.643064688108    -0.420125541530     2.032800700700    18.998403224000
           H         -1.318935311892     0.787874458470    -1.875199299300     1.007825032070
           H         -3.220935311892     1.797874458470    -0.682199299300     1.007825032070
           H          1.729064688108     1.469874458470    -1.287199299300     1.007825032070
           H          0.177064688108    -2.467125541530    -0.429199299300     1.007825032070
           H         -1.450935311892     0.700874458470     3.085800700700     1.007825032070
           H          3.643064688108     0.341874458470    -2.495199299300     1.007825032070
           H          2.164064688108    -3.412125541530    -1.677199299300     1.007825032070
           H          3.707064688108    -1.963125541530    -2.594199299300     1.007825032070
           H         -3.397935311892     1.781874458470     2.894800700700     1.007825032070

  Running in c1 symmetry.

  Rotational constants: A =      0.06290  B =      0.01269  C =      0.01167 [cm^-1]
  Rotational constants: A =   1885.75602  B =    380.31944  C =    349.77766 [MHz]
  Nuclear repulsion =  828.665581304019724

  Charge       = 1
  Multiplicity = 1
  Electrons    = 98
  Nalpha       = 49
  Nbeta        = 49

  ==> Algorithm <==

  SCF Algorithm Type is DF.
  DIIS enabled.
  MOM disabled.
  Fractional occupation disabled.
  Guess Type is SAD.
  Energy threshold   = 1.00e-10
  Density threshold  = 1.00e-10
  Integral threshold = 0.00e+00

  ==> Primary Basis <==

  Basis Set: AUG-CC-PVTZ
    Blend: AUG-CC-PVTZ
    Number of shells: 277
    Number of basis function: 851
    Number of Cartesian functions: 995
    Spherical Harmonics?: true
    Max angular momentum: 3

   => Loading Basis Set <=

    Name: (AUG-CC-PVTZ AUX)
    Role: JKFIT
    Keyword: DF_BASIS_SCF
    atoms 1-11  entry C          line   161 file /cbio/jclab/home/chayas/anaconda/envs/py35/share/psi4/basis/aug-cc-pvtz-jkfit.gbs 
    atoms 12    entry N          line   223 file /cbio/jclab/home/chayas/anaconda/envs/py35/share/psi4/basis/aug-cc-pvtz-jkfit.gbs 
    atoms 13    entry O          line   285 file /cbio/jclab/home/chayas/anaconda/envs/py35/share/psi4/basis/aug-cc-pvtz-jkfit.gbs 
    atoms 14    entry F          line   347 file /cbio/jclab/home/chayas/anaconda/envs/py35/share/psi4/basis/aug-cc-pvtz-jkfit.gbs 
    atoms 15-23 entry H          line    69 file /cbio/jclab/home/chayas/anaconda/envs/py35/share/psi4/basis/aug-cc-pvtz-jkfit.gbs 

  ==> Pre-Iterations <==

   -------------------------------------------------------
    Irrep   Nso     Nmo     Nalpha   Nbeta   Ndocc  Nsocc
   -------------------------------------------------------
     A        851     851       0       0       0       0
   -------------------------------------------------------
    Total     851     851      49      49      49       0
   -------------------------------------------------------

  ==> Integral Setup <==

  ==> DFJK: Density-Fitted J/K Matrices <==

    J tasked:                  Yes
    K tasked:                  Yes
    wK tasked:                  No
    OpenMP threads:              8
    Integrals threads:           8
    Memory (MB):              3576
    Algorithm:                Disk
    Integral Cache:           NONE
    Schwarz Cutoff:          1E-12
    Fitting Condition:       1E-12

   => Auxiliary Basis Set <=

  Basis Set: (AUG-CC-PVTZ AUX)
    Blend: AUG-CC-PVTZ-JKFIT
    Number of shells: 546
    Number of basis function: 1870
    Number of Cartesian functions: 2329
    Spherical Harmonics?: true
    Max angular momentum: 4

  Minimum eigenvalue in the overlap matrix is 6.9443353066E-07.
  Using Symmetric Orthogonalization.

  SCF Guess: Superposition of Atomic Densities via on-the-fly atomic UHF.

  ==> Iterations <==

                           Total Energy        Delta E     RMS |[F,P]|

   @DF-RHF iter   0:  -651.92158493230988   -6.51922e+02   2.16300e-02 
   @DF-RHF iter   1:  -650.05625518521174    1.86533e+00   2.86207e-03 
   @DF-RHF iter   2:  -650.43974971460034   -3.83495e-01   1.46184e-03 DIIS
   @DF-RHF iter   3:  -650.53602709816471   -9.62774e-02   4.81009e-04 DIIS
   @DF-RHF iter   4:  -650.55379333994472   -1.77662e-02   1.87805e-04 DIIS
   @DF-RHF iter   5:  -650.55648768028459   -2.69434e-03   6.00118e-05 DIIS
   @DF-RHF iter   6:  -650.55689998761875   -4.12307e-04   2.07297e-05 DIIS
   @DF-RHF iter   7:  -650.55698058718951   -8.05996e-05   8.54084e-06 DIIS
   @DF-RHF iter   8:  -650.55699314117521   -1.25540e-05   2.58031e-06 DIIS
   @DF-RHF iter   9:  -650.55699530322875   -2.16205e-06   1.56938e-06 DIIS
   @DF-RHF iter  10:  -650.55699587271988   -5.69491e-07   6.70181e-07 DIIS
   @DF-RHF iter  11:  -650.55699598099704   -1.08277e-07   1.98289e-07 DIIS
   @DF-RHF iter  12:  -650.55699598798401   -6.98697e-09   6.65271e-08 DIIS
   @DF-RHF iter  13:  -650.55699598865920   -6.75186e-10   2.44023e-08 DIIS
   @DF-RHF iter  14:  -650.55699598878869   -1.29489e-10   8.25037e-09 DIIS
   @DF-RHF iter  15:  -650.55699598876106    2.76259e-11   3.49656e-09 DIIS
   @DF-RHF iter  16:  -650.55699598877140   -1.03455e-11   1.90654e-09 DIIS
   @DF-RHF iter  17:  -650.55699598876697    4.43379e-12   8.46168e-10 DIIS
   @DF-RHF iter  18:  -650.55699598878641   -1.94404e-11   3.45503e-10 DIIS
   @DF-RHF iter  19:  -650.55699598877493    1.14824e-11   1.27118e-10 DIIS
   @DF-RHF iter  20:  -650.55699598877777   -2.84217e-12   5.44966e-11 DIIS

  ==> Post-Iterations <==

    Orbital Energies (a.u.)
    -----------------------

    Doubly Occupied:                                                      

       1A    -26.441795     2A    -20.702290     3A    -15.847172  
       4A    -11.492337     5A    -11.491462     6A    -11.466441  
       7A    -11.453158     8A    -11.434438     9A    -11.423817  
      10A    -11.423218    11A    -11.381828    12A    -11.376244  
      13A    -11.359256    14A    -11.351896    15A     -1.759764  
      16A     -1.521287    17A     -1.517094    18A     -1.325371  
      19A     -1.269974    20A     -1.245243    21A     -1.162979  
      22A     -1.149376    23A     -1.074279    24A     -1.062216  
      25A     -0.989036    26A     -0.971012    27A     -0.962249  
      28A     -0.886399    29A     -0.877054    30A     -0.860232  
      31A     -0.854102    32A     -0.825697    33A     -0.822977  
      34A     -0.804848    35A     -0.801919    36A     -0.782620  
      37A     -0.755738    38A     -0.746930    39A     -0.726683  
      40A     -0.719284    41A     -0.702679    42A     -0.686557  
      43A     -0.651966    44A     -0.642535    45A     -0.610840  
      46A     -0.581103    47A     -0.542539    48A     -0.468364  
      49A     -0.445350  

    Virtual:                                                              

      50A     -0.105224    51A     -0.087758    52A     -0.070389  
      53A     -0.063399    54A     -0.059439    55A     -0.051267  
      56A     -0.041459    57A     -0.039948    58A     -0.035215  
      59A     -0.030742    60A     -0.024712    61A     -0.016297  
      62A     -0.011308    63A     -0.010906    64A     -0.006335  
      65A     -0.003363    66A      0.000514    67A      0.008678  
      68A      0.010712    69A      0.013421    70A      0.015998  
      71A      0.017506    72A      0.023859    73A      0.026824  
      74A      0.028689    75A      0.031685    76A      0.032523  
      77A      0.037579    78A      0.039796    79A      0.041322  
      80A      0.044680    81A      0.052067    82A      0.056893  
      83A      0.060482    84A      0.062857    85A      0.066927  
      86A      0.068824    87A      0.076837    88A      0.081708  
      89A      0.086652    90A      0.087812    91A      0.092190  
      92A      0.094547    93A      0.098779    94A      0.101135  
      95A      0.105604    96A      0.116574    97A      0.116969  
      98A      0.126707    99A      0.130399   100A      0.134043  
     101A      0.136214   102A      0.139925   103A      0.143297  
     104A      0.145110   105A      0.150682   106A      0.151745  
     107A      0.160572   108A      0.162088   109A      0.163774  
     110A      0.168390   111A      0.170323   112A      0.173262  
     113A      0.174268   114A      0.182356   115A      0.184979  
     116A      0.189197   117A      0.194306   118A      0.195365  
     119A      0.200271   120A      0.204849   121A      0.207678  
     122A      0.213054   123A      0.214729   124A      0.219415  
     125A      0.224508   126A      0.226215   127A      0.229395  
     128A      0.231633   129A      0.236315   130A      0.243258  
     131A      0.245353   132A      0.248661   133A      0.254544  
     134A      0.255718   135A      0.258016   136A      0.263286  
     137A      0.274484   138A      0.275499   139A      0.279553  
     140A      0.280427   141A      0.283504   142A      0.291140  
     143A      0.293749   144A      0.299560   145A      0.301463  
     146A      0.310189   147A      0.314759   148A      0.318234  
     149A      0.322577   150A      0.325571   151A      0.327107  
     152A      0.330863   153A      0.332920   154A      0.335833  
     155A      0.336593   156A      0.340919   157A      0.344158  
     158A      0.349574   159A      0.351082   160A      0.356636  
     161A      0.358302   162A      0.363347   163A      0.368757  
     164A      0.371607   165A      0.372460   166A      0.375986  
     167A      0.378313   168A      0.384356   169A      0.386235  
     170A      0.392372   171A      0.398756   172A      0.399744  
     173A      0.402369   174A      0.408375   175A      0.410464  
     176A      0.413255   177A      0.416123   178A      0.422476  
     179A      0.426375   180A      0.427822   181A      0.430038  
     182A      0.437092   183A      0.441403   184A      0.446723  
     185A      0.448180   186A      0.453107   187A      0.455989  
     188A      0.465672   189A      0.471087   190A      0.476241  
     191A      0.483277   192A      0.488860   193A      0.492069  
     194A      0.493999   195A      0.498885   196A      0.503074  
     197A      0.515794   198A      0.521836   199A      0.528123  
     200A      0.530321   201A      0.539680   202A      0.544285  
     203A      0.551974   204A      0.560908   205A      0.567165  
     206A      0.570526   207A      0.577200   208A      0.578116  
     209A      0.580556   210A      0.587992   211A      0.592207  
     212A      0.597831   213A      0.602857   214A      0.606341  
     215A      0.610661   216A      0.615659   217A      0.619642  
     218A      0.622024   219A      0.632522   220A      0.634567  
     221A      0.636839   222A      0.641512   223A      0.643680  
     224A      0.650795   225A      0.657467   226A      0.666477  
     227A      0.674605   228A      0.677907   229A      0.688047  
     230A      0.692584   231A      0.695951   232A      0.706156  
     233A      0.709579   234A      0.720437   235A      0.722761  
     236A      0.733086   237A      0.736904   238A      0.741380  
     239A      0.746016   240A      0.751305   241A      0.753255  
     242A      0.757839   243A      0.768757   244A      0.770169  
     245A      0.772751   246A      0.775737   247A      0.777611  
     248A      0.782311   249A      0.785198   250A      0.788828  
     251A      0.792829   252A      0.797211   253A      0.803704  
     254A      0.807390   255A      0.812157   256A      0.818562  
     257A      0.824108   258A      0.829474   259A      0.832886  
     260A      0.837198   261A      0.840449   262A      0.842796  
     263A      0.848567   264A      0.853286   265A      0.861694  
     266A      0.866432   267A      0.869134   268A      0.874256  
     269A      0.876998   270A      0.889769   271A      0.892347  
     272A      0.894161   273A      0.901328   274A      0.906335  
     275A      0.908670   276A      0.915714   277A      0.923099  
     278A      0.923549   279A      0.932074   280A      0.934707  
     281A      0.938714   282A      0.942693   283A      0.949760  
     284A      0.952402   285A      0.954905   286A      0.956121  
     287A      0.962570   288A      0.970805   289A      0.973808  
     290A      0.976505   291A      0.979299   292A      0.981609  
     293A      0.986869   294A      0.991064   295A      0.999483  
     296A      1.004428   297A      1.014152   298A      1.014581  
     299A      1.017050   300A      1.022199   301A      1.030932  
     302A      1.034186   303A      1.036369   304A      1.039273  
     305A      1.042365   306A      1.047633   307A      1.054676  
     308A      1.057991   309A      1.064054   310A      1.066351  
     311A      1.070284   312A      1.078920   313A      1.081629  
     314A      1.087625   315A      1.092765   316A      1.098535  
     317A      1.105743   318A      1.108365   319A      1.112528  
     320A      1.120383   321A      1.124122   322A      1.130050  
     323A      1.131667   324A      1.139382   325A      1.144133  
     326A      1.147315   327A      1.153272   328A      1.160979  
     329A      1.164716   330A      1.172342   331A      1.182058  
     332A      1.192341   333A      1.201937   334A      1.208592  
     335A      1.212495   336A      1.222228   337A      1.229710  
     338A      1.234014   339A      1.236072   340A      1.243527  
     341A      1.248420   342A      1.253901   343A      1.259210  
     344A      1.262138   345A      1.269793   346A      1.278348  
     347A      1.282303   348A      1.286020   349A      1.288406  
     350A      1.303048   351A      1.305213   352A      1.310359  
     353A      1.317853   354A      1.329433   355A      1.336158  
     356A      1.345868   357A      1.351950   358A      1.354087  
     359A      1.366122   360A      1.373956   361A      1.382250  
     362A      1.389493   363A      1.399177   364A      1.401279  
     365A      1.408038   366A      1.416169   367A      1.424065  
     368A      1.427489   369A      1.430755   370A      1.433528  
     371A      1.452649   372A      1.454514   373A      1.456991  
     374A      1.465492   375A      1.474517   376A      1.477268  
     377A      1.492647   378A      1.498350   379A      1.502322  
     380A      1.510114   381A      1.511013   382A      1.523180  
     383A      1.528784   384A      1.537257   385A      1.539020  
     386A      1.540489   387A      1.547649   388A      1.567398  
     389A      1.572602   390A      1.577896   391A      1.588453  
     392A      1.598755   393A      1.608340   394A      1.618525  
     395A      1.621986   396A      1.634975   397A      1.638582  
     398A      1.647093   399A      1.652588   400A      1.656946  
     401A      1.667496   402A      1.671885   403A      1.678876  
     404A      1.686341   405A      1.691394   406A      1.708958  
     407A      1.712282   408A      1.717975   409A      1.722277  
     410A      1.740182   411A      1.741425   412A      1.743621  
     413A      1.747321   414A      1.762984   415A      1.771895  
     416A      1.785223   417A      1.788866   418A      1.794606  
     419A      1.803243   420A      1.815736   421A      1.817331  
     422A      1.819774   423A      1.826112   424A      1.838423  
     425A      1.843254   426A      1.852570   427A      1.862824  
     428A      1.865279   429A      1.877650   430A      1.884685  
     431A      1.892472   432A      1.896157   433A      1.903121  
     434A      1.914352   435A      1.919374   436A      1.932397  
     437A      1.934437   438A      1.938411   439A      1.950796  
     440A      1.961253   441A      1.967995   442A      1.975619  
     443A      1.985395   444A      1.990573   445A      1.998999  
     446A      2.007720   447A      2.013683   448A      2.019482  
     449A      2.022889   450A      2.042248   451A      2.045568  
     452A      2.053293   453A      2.055710   454A      2.066621  
     455A      2.080534   456A      2.084879   457A      2.087032  
     458A      2.105095   459A      2.107880   460A      2.117908  
     461A      2.134783   462A      2.149104   463A      2.150821  
     464A      2.171569   465A      2.181491   466A      2.190275  
     467A      2.198383   468A      2.200212   469A      2.217098  
     470A      2.225300   471A      2.232934   472A      2.241999  
     473A      2.251116   474A      2.257771   475A      2.264511  
     476A      2.267299   477A      2.281543   478A      2.292630  
     479A      2.300248   480A      2.315110   481A      2.323713  
     482A      2.336512   483A      2.348273   484A      2.359054  
     485A      2.372079   486A      2.392757   487A      2.400810  
     488A      2.407700   489A      2.416946   490A      2.420563  
     491A      2.426229   492A      2.443424   493A      2.466522  
     494A      2.478092   495A      2.489284   496A      2.495984  
     497A      2.506834   498A      2.514173   499A      2.524884  
     500A      2.532330   501A      2.547191   502A      2.564277  
     503A      2.583039   504A      2.589625   505A      2.608954  
     506A      2.618393   507A      2.632060   508A      2.640948  
     509A      2.667477   510A      2.705949   511A      2.712676  
     512A      2.721693   513A      2.746467   514A      2.756554  
     515A      2.763819   516A      2.789056   517A      2.804038  
     518A      2.825332   519A      2.838546   520A      2.859454  
     521A      2.898590   522A      2.915485   523A      2.922995  
     524A      2.928430   525A      2.945813   526A      2.950491  
     527A      2.952346   528A      2.963225   529A      3.014745  
     530A      3.021182   531A      3.024120   532A      3.045068  
     533A      3.052261   534A      3.067320   535A      3.073394  
     536A      3.081444   537A      3.081965   538A      3.101344  
     539A      3.122569   540A      3.131976   541A      3.145746  
     542A      3.157093   543A      3.167846   544A      3.175218  
     545A      3.198279   546A      3.207388   547A      3.218606  
     548A      3.234489   549A      3.237943   550A      3.246399  
     551A      3.256640   552A      3.261480   553A      3.272435  
     554A      3.294823   555A      3.297975   556A      3.307534  
     557A      3.319896   558A      3.321740   559A      3.326209  
     560A      3.346180   561A      3.349213   562A      3.358329  
     563A      3.364713   564A      3.370898   565A      3.380406  
     566A      3.385156   567A      3.392395   568A      3.397120  
     569A      3.408703   570A      3.414687   571A      3.424981  
     572A      3.437974   573A      3.441900   574A      3.452550  
     575A      3.461071   576A      3.472852   577A      3.479808  
     578A      3.494271   579A      3.495212   580A      3.508169  
     581A      3.519494   582A      3.520755   583A      3.531686  
     584A      3.542756   585A      3.555585   586A      3.565937  
     587A      3.572743   588A      3.587802   589A      3.595512  
     590A      3.601604   591A      3.613801   592A      3.616927  
     593A      3.631185   594A      3.637309   595A      3.643323  
     596A      3.654179   597A      3.662514   598A      3.670521  
     599A      3.679976   600A      3.689484   601A      3.694710  
     602A      3.711531   603A      3.712275   604A      3.717229  
     605A      3.729269   606A      3.737306   607A      3.744072  
     608A      3.751408   609A      3.759480   610A      3.766639  
     611A      3.777552   612A      3.789435   613A      3.797126  
     614A      3.804376   615A      3.808672   616A      3.818469  
     617A      3.824929   618A      3.829492   619A      3.842794  
     620A      3.849810   621A      3.863171   622A      3.868326  
     623A      3.889190   624A      3.893981   625A      3.898959  
     626A      3.909394   627A      3.913216   628A      3.923715  
     629A      3.930023   630A      3.949038   631A      3.956511  
     632A      3.965562   633A      3.980389   634A      3.984983  
     635A      3.992078   636A      4.001739   637A      4.007906  
     638A      4.013098   639A      4.030094   640A      4.035939  
     641A      4.038254   642A      4.042823   643A      4.055325  
     644A      4.066010   645A      4.071501   646A      4.079610  
     647A      4.088055   648A      4.093653   649A      4.099003  
     650A      4.113946   651A      4.126392   652A      4.127679  
     653A      4.132153   654A      4.158747   655A      4.163117  
     656A      4.170312   657A      4.176896   658A      4.190180  
     659A      4.199706   660A      4.213610   661A      4.219105  
     662A      4.225665   663A      4.231791   664A      4.244355  
     665A      4.250668   666A      4.257816   667A      4.267987  
     668A      4.282796   669A      4.288290   670A      4.291233  
     671A      4.301863   672A      4.302967   673A      4.307799  
     674A      4.320512   675A      4.325637   676A      4.342196  
     677A      4.348443   678A      4.359296   679A      4.366562  
     680A      4.372278   681A      4.381461   682A      4.407087  
     683A      4.413562   684A      4.420632   685A      4.426616  
     686A      4.438494   687A      4.453811   688A      4.461713  
     689A      4.468962   690A      4.482043   691A      4.488137  
     692A      4.493812   693A      4.518308   694A      4.554633  
     695A      4.569961   696A      4.584027   697A      4.594259  
     698A      4.601337   699A      4.607953   700A      4.624180  
     701A      4.630994   702A      4.642466   703A      4.652130  
     704A      4.677648   705A      4.680512   706A      4.686204  
     707A      4.712586   708A      4.726393   709A      4.734462  
     710A      4.750884   711A      4.758444   712A      4.771338  
     713A      4.790834   714A      4.803919   715A      4.808260  
     716A      4.812525   717A      4.824155   718A      4.834009  
     719A      4.853287   720A      4.859940   721A      4.902241  
     722A      4.908154   723A      4.911602   724A      4.914835  
     725A      4.932292   726A      4.933196   727A      4.941865  
     728A      4.958724   729A      4.974112   730A      4.988867  
     731A      4.993044   732A      5.007981   733A      5.019553  
     734A      5.025878   735A      5.036331   736A      5.040038  
     737A      5.049003   738A      5.055286   739A      5.084648  
     740A      5.087255   741A      5.123776   742A      5.154865  
     743A      5.166113   744A      5.173019   745A      5.195322  
     746A      5.198326   747A      5.203743   748A      5.213238  
     749A      5.240515   750A      5.252797   751A      5.266271  
     752A      5.282830   753A      5.315034   754A      5.318682  
     755A      5.337762   756A      5.362162   757A      5.362576  
     758A      5.387668   759A      5.397714   760A      5.418148  
     761A      5.450986   762A      5.461916   763A      5.475386  
     764A      5.498313   765A      5.516768   766A      5.562616  
     767A      5.582905   768A      5.601069   769A      5.605109  
     770A      5.627359   771A      5.650719   772A      5.665151  
     773A      5.691621   774A      5.702327   775A      5.732034  
     776A      5.757212   777A      5.776338   778A      5.826446  
     779A      5.830125   780A      5.891706   781A      5.917639  
     782A      5.934063   783A      5.969858   784A      5.983315  
     785A      5.994027   786A      6.044821   787A      6.059249  
     788A      6.141056   789A      6.160114   790A      6.198147  
     791A      6.213077   792A      6.268644   793A      6.291945  
     794A      6.333833   795A      6.364273   796A      6.402943  
     797A      6.421766   798A      6.470587   799A      6.518434  
     800A      6.551841   801A      6.600031   802A      6.625610  
     803A      6.648079   804A      6.728322   805A      6.741841  
     806A      6.794289   807A      6.828571   808A      6.853591  
     809A      6.901139   810A      6.904671   811A      6.950051  
     812A      6.959362   813A      7.077705   814A      7.161690  
     815A      7.291797   816A      7.321902   817A      7.367368  
     818A      7.436667   819A      7.538421   820A      7.584090  
     821A      7.591414   822A      7.652531   823A      7.905478  
     824A      8.286417   825A      8.540002   826A      8.874248  
     827A      8.927925   828A      9.156337   829A      9.172118  
     830A      9.287843   831A      9.400102   832A      9.418451  
     833A      9.476560   834A      9.532715   835A      9.594102  
     836A      9.908016   837A      9.963863   838A     15.864494  
     839A     16.019533   840A     16.420456   841A     16.511089  
     842A     16.703356   843A     16.908367   844A     18.744362  
     845A     19.111924   846A     19.602074   847A     19.700211  
     848A     20.098024   849A     20.112738   850A     20.343084  
     851A     21.738256  

    Final Occupation by Irrep:
              A 
    DOCC [    49 ]

  Energy converged.

  @DF-RHF Final Energy:  -650.55699598877777

   => Energetics <=

    Nuclear Repulsion Energy =            828.6655813040197245
    One-Electron Energy =               -2517.5418566492458012
    Two-Electron Energy =                1038.3192793564483054
    DFT Exchange-Correlation Energy =       0.0000000000000000
    Empirical Dispersion Energy =           0.0000000000000000
    PCM Polarization Energy =               0.0000000000000000
    EFP Energy =                            0.0000000000000000
    Total Energy =                       -650.5569959887777713



Properties will be evaluated at   0.000000,   0.000000,   0.000000 Bohr

Properties computed using the SCF density matrix

  Nuclear Dipole Moment: (a.u.)
     X:     1.2725      Y:    -0.4921      Z:    -6.6457

  Electronic Dipole Moment: (a.u.)
     X:     1.8396      Y:    -1.1517      Z:     4.1992

  Dipole Moment: (a.u.)
     X:     3.1121      Y:    -1.6438      Z:    -2.4465     Total:     4.2863

  Dipole Moment: (Debye)
     X:     7.9102      Y:    -4.1782      Z:    -6.2183     Total:    10.8948


*** tstop() called on gpu-2-11.local at Sat Nov 11 18:26:03 2017
Module time:
	user time   =    1655.07 seconds =      27.58 minutes
	system time =      57.31 seconds =       0.96 minutes
	total time  =        582 seconds =       9.70 minutes
Total time:
	user time   =    1655.08 seconds =      27.58 minutes
	system time =      57.31 seconds =       0.96 minutes
	total time  =        582 seconds =       9.70 minutes

  //>>>>>>>>>>>>>>>>>>>>>>>>>>>>>>>>>>>//
  //               DFMP2               //
  //<<<<<<<<<<<<<<<<<<<<<<<<<<<<<<<<<<<//

   => Loading Basis Set <=

    Name: (AUG-CC-PVTZ AUX)
    Role: RIFIT
    Keyword: DF_BASIS_MP2
    atoms 1-11  entry C          line   147 file /cbio/jclab/home/chayas/anaconda/envs/py35/share/psi4/basis/aug-cc-pvtz-ri.gbs 
    atoms 12    entry N          line   205 file /cbio/jclab/home/chayas/anaconda/envs/py35/share/psi4/basis/aug-cc-pvtz-ri.gbs 
    atoms 13    entry O          line   263 file /cbio/jclab/home/chayas/anaconda/envs/py35/share/psi4/basis/aug-cc-pvtz-ri.gbs 
    atoms 14    entry F          line   321 file /cbio/jclab/home/chayas/anaconda/envs/py35/share/psi4/basis/aug-cc-pvtz-ri.gbs 
    atoms 15-23 entry H          line    29 file /cbio/jclab/home/chayas/anaconda/envs/py35/share/psi4/basis/aug-cc-pvtz-ri.gbs 

	 --------------------------------------------------------
	                          DF-MP2                         
	      2nd-Order Density-Fitted Moller-Plesset Theory     
	              RMP2 Wavefunction,   8 Threads             
	                                                         
	        Rob Parrish, Justin Turney, Andy Simmonett,      
	           Ed Hohenstein, and C. David Sherrill          
	 --------------------------------------------------------

   => Auxiliary Basis Set <=

  Basis Set: (AUG-CC-PVTZ AUX)
    Blend: AUG-CC-PVTZ-RI
    Number of shells: 518
    Number of basis function: 1898
    Number of Cartesian functions: 2399
    Spherical Harmonics?: true
    Max angular momentum: 4

	 --------------------------------------------------------
	                 NBF =   851, NAUX =  1898
	 --------------------------------------------------------
	   CLASS    FOCC     OCC    AOCC    AVIR     VIR    FVIR
	   PAIRS       0      49      49     802     802       0
	 --------------------------------------------------------


         ------------------------------------------------------------
                                     CPHF                           
                                  Rob Parrish                       
         ------------------------------------------------------------

  ==> Geometry <==

    Molecular point group: c1
    Full point group: C1

    Geometry (in Angstrom), charge = 1, multiplicity = 1:

       Center              X                  Y                   Z               Mass       
    ------------   -----------------  -----------------  -----------------  -----------------
           C         -1.337935311892     0.763874458470    -0.788199299300    12.000000000000
           C         -2.415935311892     1.336874458470    -0.115199299300    12.000000000000
           C          1.785064688108     0.387874458470    -1.349199299300    12.000000000000
           C          0.920064688108    -1.809125541530    -0.870199299300    12.000000000000
           C         -1.422935311892     0.720874458470     1.999800700700    12.000000000000
           C          2.845064688108    -0.209125541530    -2.017199299300    12.000000000000
           C          2.001064688108    -2.350125541530    -1.550199299300    12.000000000000
           C         -0.301935311892     0.168874458470    -0.068199299300    12.000000000000
           C          0.815064688108    -0.425125541530    -0.771199299300    12.000000000000
           C         -2.458935311892     1.315874458470     1.278800700700    12.000000000000
           C         -0.344935311892     0.147874458470     1.325800700700    12.000000000000
           N          2.921064688108    -1.545125541530    -2.098199299300    14.003074004780
           O         -3.511935311892     1.875874458470     1.935800700700    15.994914619560
           F          0.643064688108    -0.420125541530     2.032800700700    18.998403224000
           H         -1.318935311892     0.787874458470    -1.875199299300     1.007825032070
           H         -3.220935311892     1.797874458470    -0.682199299300     1.007825032070
           H          1.729064688108     1.469874458470    -1.287199299300     1.007825032070
           H          0.177064688108    -2.467125541530    -0.429199299300     1.007825032070
           H         -1.450935311892     0.700874458470     3.085800700700     1.007825032070
           H          3.643064688108     0.341874458470    -2.495199299300     1.007825032070
           H          2.164064688108    -3.412125541530    -1.677199299300     1.007825032070
           H          3.707064688108    -1.963125541530    -2.594199299300     1.007825032070
           H         -3.397935311892     1.781874458470     2.894800700700     1.007825032070

  Nuclear repulsion =  828.665581304019724
  Reference energy  = -650.556995988777771

  ==> Basis Set <==

  Basis Set: AUG-CC-PVTZ
    Blend: AUG-CC-PVTZ
    Number of shells: 277
    Number of basis function: 851
    Number of Cartesian functions: 995
    Spherical Harmonics?: true
    Max angular momentum: 3

  ==> CGRSolver (by Rob Parrish) <==

   Number of roots    =         1
   Preconditioning    =    JACOBI
   Convergence cutoff =     1E-06
   Maximum iterations =       100

  ==> CPHFRHamiltonian (by Rob Parrish) <== 

  ==> DFJK: Density-Fitted J/K Matrices <==

    J tasked:                  Yes
    K tasked:                  Yes
    wK tasked:                  No
    OpenMP threads:              8
    Integrals threads:           8
    Memory (MB):              3576
    Algorithm:                Disk
    Integral Cache:           NONE
    Schwarz Cutoff:          1E-12
    Fitting Condition:       1E-12

   => Auxiliary Basis Set <=

  Basis Set: (AUG-CC-PVTZ AUX)
    Blend: AUG-CC-PVTZ-JKFIT
    Number of shells: 546
    Number of basis function: 1870
    Number of Cartesian functions: 2329
    Spherical Harmonics?: true
    Max angular momentum: 4

  ==> CPHF Iterations <==

  => Iterations <=

             Iter  Converged  Remaining    Residual
  CGR           1          0          1   1.187E-01
  CGR           2          0          1   4.677E-02
  CGR           3          0          1   2.742E-02
  CGR           4          0          1   8.914E-03
  CGR           5          0          1   3.565E-03
  CGR           6          0          1   1.396E-03
  CGR           7          0          1   4.441E-04
  CGR           8          0          1   1.843E-04
  CGR           9          0          1   8.212E-05
  CGR          10          0          1   3.537E-05
  CGR          11          0          1   1.494E-05
  CGR          12          0          1   4.838E-06
  CGR          13          0          1   1.780E-06
  CGR          14          1          0   6.551E-07

    CGRSolver converged.

  ==> DFCorrGrad: Density-Fitted Correlated Gradients <==

    OpenMP threads:              8
    Integrals threads:           8
    Memory (MB):              3576
    Schwarz Cutoff:          0E+00
    Fitting Condition:       1E-12

   => Auxiliary Basis Set <=

  Basis Set: (AUG-CC-PVTZ AUX)
    Blend: AUG-CC-PVTZ-JKFIT
    Number of shells: 546
    Number of basis function: 1870
    Number of Cartesian functions: 2329
    Spherical Harmonics?: true
    Max angular momentum: 4

	-----------------------------------------------------------
	 ==================> DF-MP2 Energies <==================== 
	-----------------------------------------------------------
	 Reference Energy          =    -650.5569959887777713 [Eh]
	 Singles Energy            =      -0.0000000000000001 [Eh]
	 Same-Spin Energy          =      -0.6688472437892737 [Eh]
	 Opposite-Spin Energy      =      -2.0140007260015849 [Eh]
	 Correlation Energy        =      -2.6828479697908585 [Eh]
	 Total Energy              =    -653.2398439585685992 [Eh]
	-----------------------------------------------------------
	 ================> DF-SCS-MP2 Energies <================== 
	-----------------------------------------------------------
	 SCS Same-Spin Scale       =       0.3333333333333333 [-]
	 SCS Opposite-Spin Scale   =       1.2000000000000000 [-]
	 SCS Same-Spin Energy      =      -0.2229490812630912 [Eh]
	 SCS Opposite-Spin Energy  =      -2.4168008712019016 [Eh]
	 SCS Correlation Energy    =      -2.6397499524649928 [Eh]
	 SCS Total Energy          =    -653.1967459412427388 [Eh]
	-----------------------------------------------------------


  -Total Gradient:
     Atom            X                  Y                   Z
    ------   -----------------  -----------------  -----------------
       1        0.009011413522    -0.007787354419    -0.010509066994
       2        0.002129968186    -0.001116929557     0.005831375545
       3       -0.010163464024     0.007759001929     0.008681894849
       4       -0.012463251264     0.005040394164     0.005501577847
       5       -0.009820449353     0.005162471097     0.002382220967
       6       -0.000692334312    -0.010259583132     0.001355933526
       7        0.005885527241     0.009097540621    -0.003772413660
       8        0.000677903362    -0.000362509412    -0.006091667485
       9       -0.000678001303     0.000346400106    -0.002029144758
      10       -0.001174482018     0.001102273878    -0.010938147624
      11        0.023382588645    -0.009884234418     0.001206540837
      12        0.002419127658    -0.002467094624    -0.001804030170
      13       -0.005582827765     0.002887625163     0.007079175412
      14       -0.000295969491     0.000021847805     0.004897346715
      15       -0.001445280044     0.001207798748    -0.005739946528
      16       -0.003492343770     0.002343582327    -0.005040091247
      17       -0.000015957162     0.005347682158    -0.000376716396
      18       -0.003804695126    -0.003969476408     0.002199761210
      19       -0.001786771514     0.000487185036     0.004759265823
      20        0.002188437035     0.000223446708    -0.001627240385
      21        0.001635525074    -0.002661402205    -0.000905423395
      22        0.004145742653    -0.002242106642    -0.002768269653
      23       -0.000060406231    -0.000276558931     0.007707065567


*** tstop() called on gpu-2-11.local at Sat Nov 11 19:07:54 2017
Module time:
	user time   =    7985.57 seconds =     133.09 minutes
	system time =     127.09 seconds =       2.12 minutes
	total time  =       3093 seconds =      51.55 minutes
Total time:
	user time   =    7985.58 seconds =     133.09 minutes
	system time =     127.09 seconds =       2.12 minutes
	total time  =       3093 seconds =      51.55 minutes

			-----------------------------------------
			 OPTKING 2.0: for geometry optimizations 
			  - R.A. King,  Bethel University        
			-----------------------------------------

	Internal coordinates to be generated automatically.
	Detected frag 1 with atoms:  1 2 3 4 5 6 7 8 9 10 11 12 13 14 15 16 17 18 19 20
	 21 22 23
	---Fragment 1 Bond Connectivity---
	 1 : 2 8 15
	 2 : 1 10 16
	 3 : 6 9 17
	 4 : 7 9 18
	 5 : 10 11 19
	 6 : 3 12 20
	 7 : 4 12 21
	 8 : 1 9 11
	 9 : 3 4 8
	 10 : 2 5 13
	 11 : 5 8 14
	 12 : 6 7 22
	 13 : 10 23
	 14 : 11
	 15 : 1
	 16 : 2
	 17 : 3
	 18 : 4
	 19 : 5
	 20 : 6
	 21 : 7
	 22 : 12
	 23 : 13

	Assuming in current code that numbering for constraints corresponds to unified fragment.
	Fixed dihedral atom list: 
	     1     8     9     3
	---Fragment 1 Geometry and Gradient---
	 C          -2.5283313230        1.4435135264       -1.4894808138
	 C          -4.5654560942        2.5263266006       -0.2176951264
	 C           3.3732833900        0.7329765004       -2.5496171744
	 C           1.7386702851       -3.4187518135       -1.6444383567
	 C          -2.6889580443        1.3622553027        3.7790756447
	 C           5.3763930909       -0.3951900009       -3.8119542311
	 C           3.7814642347       -4.4410936514       -2.9294521271
	 C          -0.5705750493        0.3191264773       -0.1288779981
	 C           1.5402490411       -0.8033708456       -1.4573554696
	 C          -4.6467143180        2.4866423518        2.4165831029
	 C          -0.6518332730        0.2794422286        2.5054002311
	 N           5.5200122770       -2.9198641144       -3.9650220479
	 O          -6.6365959359        3.5448889862        3.6581331722
	 F           1.2152161463       -0.7939222149        3.8414366071
	 H          -2.4924265265        1.4888669536       -3.5436131203
	 H          -6.0866856312        3.3974903478       -1.2891698437
	 H           3.2674587266        2.7776601762       -2.4324541541
	 H           0.3346037683       -4.6621916089       -0.8110691321
	 H          -2.7418703760        1.3244607800        5.8313182250
	 H           6.8843945449        0.6460490983       -4.7152433226
	 H           4.0894895944       -6.4479828045       -3.1694473459
	 H           7.0053370174       -3.7097696380       -4.9023262098
	 H          -6.4211671567        3.3672547297        5.4703805336
	             0.0090114135       -0.0077873544       -0.0105090670
	             0.0021299682       -0.0011169296        0.0058313755
	            -0.0101634640        0.0077590019        0.0086818948
	            -0.0124632513        0.0050403942        0.0055015778
	            -0.0098204494        0.0051624711        0.0023822210
	            -0.0006923343       -0.0102595831        0.0013559335
	             0.0058855272        0.0090975406       -0.0037724137
	             0.0006779034       -0.0003625094       -0.0060916675
	            -0.0006780013        0.0003464001       -0.0020291448
	            -0.0011744820        0.0011022739       -0.0109381476
	             0.0233825886       -0.0098842344        0.0012065408
	             0.0024191277       -0.0024670946       -0.0018040302
	            -0.0055828278        0.0028876252        0.0070791754
	            -0.0002959695        0.0000218478        0.0048973467
	            -0.0014452800        0.0012077987       -0.0057399465
	            -0.0034923438        0.0023435823       -0.0050400912
	            -0.0000159572        0.0053476822       -0.0003767164
	            -0.0038046951       -0.0039694764        0.0021997612
	            -0.0017867715        0.0004871850        0.0047592658
	             0.0021884370        0.0002234467       -0.0016272404
	             0.0016355251       -0.0026614022       -0.0009054234
	             0.0041457427       -0.0022421066       -0.0027682697
	            -0.0000604062       -0.0002765589        0.0077070656

	Previous optimization step data not found.  Starting new optimization.

	---Fragment 1 Intrafragment Coordinates---
	 - Coordinate -           - BOHR/RAD -       - ANG/DEG -
	 R(1,2)           =         2.634350	       1.394038
	 R(1,8)           =         2.635962	       1.394891
	 R(1,15)          =         2.054947	       1.087431
	 R(2,10)          =         2.635830	       1.394821
	 R(2,16)          =         2.054537	       1.087214
	 R(3,6)           =         2.622728	       1.387888
	 R(3,9)           =         2.629337	       1.391385
	 R(3,17)          =         2.050770	       1.085221
	 R(4,7)           =         2.620964	       1.386954
	 R(4,9)           =         2.629561	       1.391504
	 R(4,18)          =         2.052328	       1.086045
	 R(5,10)          =         2.636938	       1.395407
	 R(5,11)          =         2.635263	       1.394521
	 R(5,19)          =         2.053272	       1.086545
	 R(6,12)          =         2.533384	       1.340609
	 R(6,20)          =         2.043081	       1.081152
	 R(7,12)          =         2.531619	       1.339675
	 R(7,21)          =         2.044525	       1.081916
	 R(8,9)           =         2.735038	       1.447320
	 R(8,11)          =         2.635830	       1.394821
	 R(10,13)         =         2.573123	       1.361638
	 R(11,14)         =         2.534359	       1.341125
	 R(12,22)         =         1.925793	       1.019086
	 R(13,23)         =         1.833631	       0.970316
	 B(1,2,10)        =         2.094553	     120.009056
	 B(1,2,16)        =         2.088723	     119.675016
	 B(1,8,9)         =         2.091569	     119.838095
	 B(1,8,11)        =         2.093692	     119.959722
	 B(2,1,8)         =         2.094940	     120.031219
	 B(2,1,15)        =         2.079469	     119.144799
	 B(2,10,5)        =         2.094306	     119.994870
	 B(2,10,13)       =         2.094247	     119.991510
	 B(3,6,12)        =         2.095607	     120.069445
	 B(3,6,20)        =         2.161926	     123.869217
	 B(3,9,4)         =         2.093239	     119.933773
	 B(3,9,8)         =         2.094402	     120.000408
	 B(4,7,12)        =         2.096025	     120.093372
	 B(4,7,21)        =         2.162600	     123.907850
	 B(4,9,8)         =         2.095544	     120.065817
	 B(5,10,13)       =         2.094633	     120.013619
	 B(5,11,8)        =         2.095181	     120.045019
	 B(5,11,14)       =         2.081414	     119.256220
	 B(6,3,9)         =         2.072645	     118.753787
	 B(6,3,17)        =         2.089532	     119.721357
	 B(6,12,7)        =         2.135517	     122.356086
	 B(6,12,22)       =         2.073610	     118.809099
	 B(7,4,9)         =         2.073337	     118.793485
	 B(7,4,18)        =         2.089754	     119.734081
	 B(7,12,22)       =         2.074059	     118.834812
	 B(8,1,15)        =         2.108776	     120.823969
	 B(8,11,14)       =         2.106591	     120.698759
	 B(9,3,17)        =         2.121009	     121.524836
	 B(9,4,18)        =         2.120094	     121.472416
	 B(9,8,11)        =         2.097924	     120.202184
	 B(10,2,16)       =         2.099909	     120.315896
	 B(10,5,11)       =         2.093699	     119.960108
	 B(10,5,19)       =         2.100355	     120.341451
	 B(10,13,23)      =         1.924294	     110.253909
	 B(11,5,19)       =         2.089132	     119.698439
	 B(12,6,20)       =         2.025652	     116.061328
	 B(12,7,21)       =         2.024560	     115.998769
	 D(1,2,10,5)      =        -0.000325	      -0.018609
	 D(1,2,10,13)     =         3.141388	     179.988267
	 D(1,8,9,3)       =         1.308672	      74.981392
	 D(1,8,9,4)       =        -1.832603	    -105.000404
	 D(1,8,11,5)      =         0.000325	       0.018608
	 D(1,8,11,14)     =        -3.141528	    -179.996269
	 D(2,1,8,9)       =         3.141277	     179.981897
	 D(2,1,8,11)      =        -0.000348	      -0.019945
	 D(2,10,5,11)     =         0.000301	       0.017261
	 D(2,10,5,19)     =        -3.141029	    -179.967685
	 D(2,10,13,23)    =         3.141285	     179.982383
	 D(3,6,12,7)      =        -0.001579	      -0.090465
	 D(3,6,12,22)     =         3.140350	     179.928796
	 D(3,9,4,7)       =        -0.000030	      -0.001717
	 D(3,9,4,18)      =        -3.140799	    -179.954551
	 D(3,9,8,11)      =        -1.832888	    -105.016762
	 D(4,7,12,6)      =         0.001262	       0.072281
	 D(4,7,12,22)     =        -3.140667	    -179.946985
	 D(4,9,3,6)       =        -0.000276	      -0.015797
	 D(4,9,3,17)      =        -3.140959	    -179.963678
	 D(4,9,8,11)      =         1.309022	      75.001442
	 D(5,10,2,16)     =         3.140149	     179.917291
	 D(5,10,13,23)    =        -0.000187	      -0.010740
	 D(5,11,8,9)      =        -3.141300	    -179.983240
	 D(6,3,9,8)       =        -3.141551	    -179.997617
	 D(6,12,7,21)     =        -3.140910	    -179.960882
	 D(7,4,9,8)       =         3.141245	     179.980092
	 D(7,12,6,20)     =         3.140645	     179.945722
	 D(8,1,2,10)      =         0.000348	       0.019955
	 D(8,1,2,16)      =        -3.140133	    -179.916358
	 D(8,9,3,17)      =         0.000951	       0.054501
	 D(8,9,4,18)      =         0.000476	       0.027257
	 D(8,11,5,10)     =        -0.000301	      -0.017270
	 D(8,11,5,19)     =         3.141030	     179.967774
	 D(9,3,6,12)      =         0.001057	       0.060587
	 D(9,3,6,20)      =        -3.141219	    -179.978565
	 D(9,4,7,12)      =        -0.000435	      -0.024931
	 D(9,4,7,21)      =        -3.141401	    -179.989016
	 D(9,8,1,15)      =         0.000403	       0.023110
	 D(9,8,11,14)     =         0.000033	       0.001883
	 D(10,2,1,15)     =         3.141234	     179.979432
	 D(10,5,11,14)    =         3.141547	     179.997392
	 D(11,5,10,13)    =        -3.141411	    -179.989616
	 D(11,8,1,15)     =        -3.141221	    -179.978731
	 D(12,6,3,17)     =        -3.141428	    -179.990569
	 D(12,7,4,18)     =         3.140349	     179.928742
	 D(13,10,2,16)    =        -0.001324	      -0.075833
	 D(13,10,5,19)    =         0.000444	       0.025437
	 D(14,11,5,19)    =        -0.000307	      -0.017564
	 D(15,1,2,16)     =         0.000753	       0.043120
	 D(17,3,6,20)     =        -0.000519	      -0.029721
	 D(18,4,7,21)     =        -0.000617	      -0.035343
	 D(20,6,12,22)    =        -0.000611	      -0.035016
	 D(21,7,12,22)    =         0.000346	       0.019851
	 R(4,14)          =         6.103979	       3.230087

	Current energy   :      -653.2398439586

	Generating empirical Hessian (Schlegel '84) for each fragment.
	Adding user-defined constraint: Fragment 1; Coordinate 64:
		Value =     1.308672; Fixed value    =     1.308997
		Force =     0.000162; Force constant =     0.500000
	Removing off-diagonal coupling between coordinate 64 and others.
	Taking RFO optimization step.
	Going to follow RFO solution 1.
	Using RFO vector 1.

	Determining step-restricting scale parameter for RS-RFO.
	Maximum step size allowed    0.10000

	 Iter      |step|        alpha        rfo_root  
	------------------------------------------------
	    0     0.18370       1.00000           1
	    1     0.14626       4.64784           1
	    2     0.12084      13.81387           1
	    3     0.10532      25.75882           1
	    4     0.10046      31.09952           1
	    5     0.10000      31.64706           1
	------------------------------------------------
	Norm of target step-size    0.10000
	Projected energy change by RFO approximation:        -0.0044579320

	Back-transformation to cartesian coordinates...
	Could not converge backtransformation.
	Using first guess instead.

	--- Internal Coordinate Step in ANG or DEG, aJ/ANG or AJ/DEG ---
	 ---------------------------------------------------------------------------
	   Coordinate                Previous        Force       Change         New 
	   ----------                --------       ------       ------       ------
	    1 R(1,2)          =      1.394038    -0.083622    -0.008741     1.385297
	    2 R(1,8)          =      1.394891    -0.015576    -0.001521     1.393370
	    3 R(1,15)         =      1.087431    -0.047283    -0.006142     1.081289
	    4 R(2,10)         =      1.394821    -0.061075    -0.006349     1.388472
	    5 R(2,16)         =      1.087214    -0.051146    -0.006576     1.080639
	    6 R(3,6)          =      1.387888    -0.084875    -0.008787     1.379101
	    7 R(3,9)          =      1.391385     0.019063     0.002011     1.393396
	    8 R(3,17)         =      1.085221    -0.043757    -0.005654     1.079567
	    9 R(4,7)          =      1.386954    -0.082237    -0.008444     1.378510
	   10 R(4,9)          =      1.391504     0.025430     0.002703     1.394207
	   11 R(4,18)         =      1.086045    -0.048617    -0.006294     1.079751
	   12 R(5,10)         =      1.395407    -0.031798    -0.003348     1.392060
	   13 R(5,11)         =      1.394521    -0.125139    -0.013166     1.381355
	   14 R(5,19)         =      1.086545    -0.039496    -0.005012     1.081533
	   15 R(6,12)         =      1.340609     0.005078     0.000480     1.341089
	   16 R(6,20)         =      1.081152    -0.020174    -0.002569     1.078582
	   17 R(7,12)         =      1.339675     0.013857     0.001304     1.340979
	   18 R(7,21)         =      1.081916    -0.024428    -0.003123     1.078793
	   19 R(8,9)          =      1.447320     0.120554     0.014602     1.461921
	   20 R(8,11)         =      1.394821    -0.067605    -0.007202     1.387619
	   21 R(10,13)        =      1.361638    -0.103581    -0.009513     1.352125
	   22 R(11,14)        =      1.341125    -0.016602    -0.001407     1.339719
	   23 R(12,22)        =      1.019086    -0.045021    -0.004916     1.014170
	   24 R(13,23)        =      0.970316    -0.062918    -0.005809     0.964507
	   25 B(1,2,10)       =    120.009056    -0.000148    -0.282799   119.726257
	   26 B(1,2,16)       =    119.675016     0.000240     0.555827   120.230843
	   27 B(1,8,9)        =    119.838095     0.000405     0.790642   120.628736
	   28 B(1,8,11)       =    119.959722    -0.000627    -1.210453   118.749269
	   29 B(2,1,8)        =    120.031219     0.000326     0.686302   120.717521
	   30 B(2,1,15)       =    119.144799    -0.000016     0.021213   119.166012
	   31 B(2,10,5)       =    119.994870     0.000058     0.123166   120.118037
	   32 B(2,10,13)      =    119.991510    -0.000929    -1.796697   118.194814
	   33 B(3,6,12)       =    120.069445    -0.000331    -0.707922   119.361522
	   34 B(3,6,20)       =    123.869217     0.000072     0.123565   123.992782
	   35 B(3,9,4)        =    119.933773    -0.000502    -0.973671   118.960101
	   36 B(3,9,8)        =    120.000408     0.000182     0.360281   120.360688
	   37 B(4,7,12)       =    120.093372    -0.000348    -0.725513   119.367859
	   38 B(4,7,21)       =    123.907850     0.000070     0.106634   124.014484
	   39 B(4,9,8)        =    120.065817     0.000320     0.613357   120.679174
	   40 B(5,10,13)      =    120.013619     0.000871     1.673530   121.687149
	   41 B(5,11,8)       =    120.045019     0.000615     1.165794   121.210813
	   42 B(5,11,14)      =    119.256220    -0.000022    -0.030059   119.226162
	   43 B(6,3,9)        =    118.753787     0.000426     0.860378   119.614165
	   44 B(6,3,17)       =    119.721357    -0.000168    -0.319374   119.401983
	   45 B(6,12,7)       =    122.356086     0.000353     0.721239   123.077325
	   46 B(6,12,22)      =    118.809099    -0.000177    -0.361564   118.447535
	   47 B(7,4,9)        =    118.793485     0.000402     0.825495   119.618980
	   48 B(7,4,18)       =    119.734081    -0.000162    -0.318081   119.416001
	   49 B(7,12,22)      =    118.834812    -0.000176    -0.359682   118.475130
	   50 B(8,1,15)       =    120.823969    -0.000309    -0.707684   120.116285
	   51 B(8,11,14)      =    120.698759    -0.000593    -1.135966   119.562794
	   52 B(9,3,17)       =    121.524836    -0.000258    -0.541050   120.983786
	   53 B(9,4,18)       =    121.472416    -0.000240    -0.507403   120.965013
	   54 B(9,8,11)       =    120.202184     0.000221     0.419663   120.621847
	   55 B(10,2,16)      =    120.315896    -0.000092    -0.273016   120.042881
	   56 B(10,5,11)      =    119.960108    -0.000223    -0.482183   119.477925
	   57 B(10,5,19)      =    120.341451     0.000247     0.577661   120.919112
	   58 B(10,13,23)     =    110.253909    -0.000150    -0.376042   109.877867
	   59 B(11,5,19)      =    119.698439    -0.000024    -0.095479   119.602960
	   60 B(12,6,20)      =    116.061328     0.000258     0.584313   116.645641
	   61 B(12,7,21)      =    115.998769     0.000277     0.618865   116.617634
	   62 D(1,2,10,5)     =     -0.018609    -0.000003    -0.059121    -0.077730
	   63 D(1,2,10,13)    =    179.988267    -0.000003    -0.064411   179.923856
	   64 D(1,8,9,3)      =     74.981392    -0.000017    -0.161113    74.820279
	   65 D(1,8,9,4)      =   -105.000404    -0.000017    -0.249115  -105.249519
	   66 D(1,8,11,5)     =      0.018608    -0.000004    -0.112950    -0.094342
	   67 D(1,8,11,14)    =   -179.996269     0.000006     0.078258  -179.918011
	   68 D(2,1,8,9)      =    179.981897    -0.000005    -0.149865   179.832032
	   69 D(2,1,8,11)     =     -0.019945    -0.000002    -0.008836    -0.028781
	   70 D(2,10,5,11)    =      0.017261    -0.000003    -0.060010    -0.042749
	   71 D(2,10,5,19)    =   -179.967685    -0.000003    -0.054775  -180.022460
	   72 D(2,10,13,23)   =    179.982383     0.000001     0.018987   180.001370
	   73 D(3,6,12,7)     =     -0.090465     0.000003     0.050966    -0.039499
	   74 D(3,6,12,22)    =    179.928796     0.000003     0.068933   179.997729
	   75 D(3,9,4,7)      =     -0.001717     0.000001    -0.021652    -0.023368
	   76 D(3,9,4,18)     =   -179.954551    -0.000000    -0.040900  -179.995451
	   77 D(3,9,8,11)     =   -105.016762    -0.000020    -0.304765  -105.321526
	   78 D(4,7,12,6)     =      0.072281    -0.000000     0.000557     0.072838
	   79 D(4,7,12,22)    =   -179.946985    -0.000001    -0.017414  -179.964400
	   80 D(4,9,3,6)      =     -0.015797     0.000002     0.071976     0.056180
	   81 D(4,9,3,17)     =   -179.963678     0.000004     0.114340  -179.849338
	   82 D(4,9,8,11)     =     75.001442    -0.000020    -0.392766    74.608676
	   83 D(5,10,2,16)    =    179.917291    -0.000002    -0.044521   179.872770
	   84 D(5,10,13,23)   =     -0.010740     0.000000     0.013722     0.002982
	   85 D(5,11,8,9)     =   -179.983240    -0.000000     0.028076  -179.955165
	   86 D(6,3,9,8)      =   -179.997617     0.000001    -0.014811  -180.012428
	   87 D(6,12,7,21)    =   -179.960882    -0.000002    -0.019461  -179.980343
	   88 D(7,4,9,8)      =    179.980092     0.000001     0.065373   180.045464
	   89 D(7,12,6,20)    =    179.945722    -0.000003    -0.066649   179.879073
	   90 D(8,1,2,10)     =      0.019955     0.000005     0.093967     0.113922
	   91 D(8,1,2,16)     =   -179.916358     0.000004     0.079874  -179.836484
	   92 D(8,9,3,17)     =      0.054501     0.000004     0.027553     0.082054
	   93 D(8,9,4,18)     =      0.027257    -0.000000     0.046124     0.073381
	   94 D(8,11,5,10)    =     -0.017270     0.000006     0.147361     0.130091
	   95 D(8,11,5,19)    =    179.967774     0.000006     0.142298   180.110072
	   96 D(9,3,6,12)     =      0.060587    -0.000004    -0.086983    -0.026396
	   97 D(9,3,6,20)     =   -179.978565     0.000002     0.039949  -179.938616
	   98 D(9,4,7,12)     =     -0.024931    -0.000002    -0.014609    -0.039540
	   99 D(9,4,7,21)     =   -179.989016    -0.000000     0.006836  -179.982180
	  100 D(9,8,1,15)     =      0.023110     0.000001    -0.034556    -0.011446
	  101 D(9,8,11,14)    =      0.001883     0.000009     0.219284     0.221167
	  102 D(10,2,1,15)    =    179.979432    -0.000001    -0.020563   179.958870
	  103 D(10,5,11,14)   =    179.997392    -0.000003    -0.043050   179.954342
	  104 D(11,5,10,13)   =   -179.989616    -0.000002    -0.054776  -180.044392
	  105 D(11,8,1,15)    =   -179.978731     0.000004     0.106473  -179.872259
	  106 D(12,6,3,17)    =   -179.990569    -0.000006    -0.128803  -180.119373
	  107 D(12,7,4,18)    =    179.928742    -0.000000     0.004237   179.932979
	  108 D(13,10,2,16)   =     -0.075833    -0.000002    -0.049811    -0.125644
	  109 D(13,10,5,19)   =      0.025437    -0.000002    -0.049540    -0.024103
	  110 D(14,11,5,19)   =     -0.017564    -0.000003    -0.048113    -0.065677
	  111 D(15,1,2,16)    =      0.043120    -0.000001    -0.034655     0.008464
	  112 D(17,3,6,20)    =     -0.029721     0.000000    -0.001871    -0.031592
	  113 D(18,4,7,21)    =     -0.035343     0.000001     0.025681    -0.009661
	  114 D(20,6,12,22)   =     -0.035016    -0.000002    -0.048682    -0.083698
	  115 D(21,7,12,22)   =      0.019851    -0.000002    -0.037433    -0.017581
	  116 R(4,14)         =      3.230087    -0.012237    -0.004701     3.225385
	 ---------------------------------------------------------------------------
	Successfully symmetrized geometry.
	 Forces used to impose fixed constraints are not included.
	  Forces zeroed: 64 

  ==> Convergence Check <==

  Measures of convergence in internal coordinates in au.
  Criteria marked as inactive (o), active & met (*), and active & unmet ( ).
  --------------------------------------------------------------------------------------------- ~
   Step     Total Energy     Delta E     MAX Force     RMS Force      MAX Disp      RMS Disp    ~
  --------------------------------------------------------------------------------------------- ~
    Convergence Criteria    1.00e-06 *    3.00e-04 *             o    1.20e-03 *             o  ~
  --------------------------------------------------------------------------------------------- ~
      1    -653.23984396   -6.53e+02      1.52e-02      4.34e-03 o    3.14e-02      9.27e-03 o  ~
  ---------------------------------------------------------------------------------------------

	Writing optimization data to binary file.
	Structure for next step:
	Cartesian Geometry (in Angstrom)
	    C    -1.3506045906   0.7742108160  -0.7681622021
	    C    -2.4214805457   1.3424281973  -0.0977885199
	    C     1.7947440393   0.3758559123  -1.3581872894
	    C     0.9362931931  -1.8146977166  -0.8773569440
	    C    -1.4225510651   0.7187145459   2.0042423155
	    C     2.8518433661  -0.2086351487  -2.0236426814
	    C     2.0088459029  -2.3593039444  -1.5506512298
	    C    -0.3086926623   0.1730160602  -0.0649805448
	    C     0.8186991106  -0.4292700403  -0.7745252286
	    C    -2.4575909258   1.3156370800   1.2899549356
	    C    -0.3627361296   0.1541452110   1.3214576751
	    N     2.9236479604  -1.5457403117  -2.0978959161
	    O    -3.5165534888   1.8807020677   1.9124837380
	    F     0.6311140311  -0.4181760274   2.0139578963
	    H    -1.3320663331   0.7995908246  -1.8489940584
	    H    -3.2266259155   1.8043145533  -0.6511257434
	    H     1.7373225139   1.4521191652  -1.2963480214
	    H     0.1986596844  -2.4690340224  -0.4373541935
	    H    -1.4372742678   0.6908393925   3.0853161415
	    H     3.6454821627   0.3455589683  -2.4994010383
	    H     2.1694565590  -3.4190107979  -1.6732072707
	    H     3.7068877043  -1.9608614155  -2.5905934132
	    H    -3.4193324769   1.7947091757   2.8682177092
			--------------------------
			 OPTKING Finished Execution 
			--------------------------

    Structure for next step:
    Molecular point group: c1
    Full point group: C1

    Geometry (in Angstrom), charge = 1, multiplicity = 1:

    C           -1.349462747048     0.774064615619    -0.766038604681
    C           -2.420338702213     1.342281996925    -0.095664922498
    C            1.795885882858     0.375709711928    -1.356063691992
    C            0.937435036629    -1.814843916906    -0.875233346574
    C           -1.421409221618     0.718568345527     2.006365912866
    C            2.852985209628    -0.208781349048    -2.021519084010
    C            2.009987746376    -2.359450144748    -1.548527632433
    C           -0.307550818728     0.172869859839    -0.062856947424
    C            0.819840954091    -0.429416240684    -0.772401631233
    C           -2.456449082237     1.315490879709     1.292078533052
    C           -0.361594286124     0.153999010675     1.323581272514
    N            2.924789803892    -1.545886512077    -2.095772318651
    O           -3.515411645293     1.880555867357     1.914607335431
    F            0.632255874610    -0.418322227785     2.016081493746
    H           -1.330924489526     0.799444624253    -1.846870461032
    H           -3.225484071971     1.804168352914    -0.649002145963
    H            1.738464357439     1.451972964862    -1.294224424033
    H            0.199801527966    -2.469180222774    -0.435230596062
    H           -1.436132424303     0.690693192157     3.087439738923
    H            3.646624006243     0.345412767960    -2.497277440899
    H            2.170598402488    -3.419156998270    -1.671083673241
    H            3.708029547832    -1.961007615799    -2.588469815799
    H           -3.418190633411     1.794562975408     2.870341306625

gradient() will perform analytic gradient computation.

*** tstart() called on gpu-2-11.local
*** at Sat Nov 11 19:07:56 2017

    SCF Algorithm Type (re)set to DF.

*** tstart() called on gpu-2-11.local
*** at Sat Nov 11 19:07:56 2017

   => Loading Basis Set <=

    Name: AUG-CC-PVTZ
    Role: ORBITAL
    Keyword: BASIS
    atoms 1-11  entry C          line   221 file /cbio/jclab/home/chayas/anaconda/envs/py35/share/psi4/basis/aug-cc-pvtz.gbs 
    atoms 12    entry N          line   267 file /cbio/jclab/home/chayas/anaconda/envs/py35/share/psi4/basis/aug-cc-pvtz.gbs 
    atoms 13    entry O          line   313 file /cbio/jclab/home/chayas/anaconda/envs/py35/share/psi4/basis/aug-cc-pvtz.gbs 
    atoms 14    entry F          line   359 file /cbio/jclab/home/chayas/anaconda/envs/py35/share/psi4/basis/aug-cc-pvtz.gbs 
    atoms 15-23 entry H          line    34 file /cbio/jclab/home/chayas/anaconda/envs/py35/share/psi4/basis/aug-cc-pvtz.gbs 


         ---------------------------------------------------------
                                   SCF
            by Justin Turney, Rob Parrish, and Andy Simmonett
                              RHF Reference
                        8 Threads,   4768 MiB Core
         ---------------------------------------------------------

  ==> Geometry <==

    Molecular point group: c1
    Full point group: C1

    Geometry (in Angstrom), charge = 1, multiplicity = 1:

       Center              X                  Y                   Z               Mass       
    ------------   -----------------  -----------------  -----------------  -----------------
           C         -1.349462747048     0.774064615619    -0.766038604681    12.000000000000
           C         -2.420338702213     1.342281996925    -0.095664922498    12.000000000000
           C          1.795885882858     0.375709711928    -1.356063691992    12.000000000000
           C          0.937435036629    -1.814843916906    -0.875233346574    12.000000000000
           C         -1.421409221618     0.718568345527     2.006365912866    12.000000000000
           C          2.852985209628    -0.208781349048    -2.021519084010    12.000000000000
           C          2.009987746376    -2.359450144748    -1.548527632433    12.000000000000
           C         -0.307550818728     0.172869859839    -0.062856947424    12.000000000000
           C          0.819840954091    -0.429416240684    -0.772401631233    12.000000000000
           C         -2.456449082237     1.315490879709     1.292078533052    12.000000000000
           C         -0.361594286124     0.153999010675     1.323581272514    12.000000000000
           N          2.924789803892    -1.545886512077    -2.095772318651    14.003074004780
           O         -3.515411645293     1.880555867357     1.914607335431    15.994914619560
           F          0.632255874610    -0.418322227785     2.016081493746    18.998403224000
           H         -1.330924489526     0.799444624253    -1.846870461032     1.007825032070
           H         -3.225484071971     1.804168352914    -0.649002145963     1.007825032070
           H          1.738464357439     1.451972964862    -1.294224424033     1.007825032070
           H          0.199801527966    -2.469180222774    -0.435230596062     1.007825032070
           H         -1.436132424303     0.690693192157     3.087439738923     1.007825032070
           H          3.646624006243     0.345412767960    -2.497277440899     1.007825032070
           H          2.170598402488    -3.419156998270    -1.671083673241     1.007825032070
           H          3.708029547832    -1.961007615799    -2.588469815799     1.007825032070
           H         -3.418190633411     1.794562975408     2.870341306625     1.007825032070

  Running in c1 symmetry.

  Rotational constants: A =      0.06355  B =      0.01264  C =      0.01165 [cm^-1]
  Rotational constants: A =   1905.14170  B =    378.99971  C =    349.13297 [MHz]
  Nuclear repulsion =  829.753477823545609

  Charge       = 1
  Multiplicity = 1
  Electrons    = 98
  Nalpha       = 49
  Nbeta        = 49

  ==> Algorithm <==

  SCF Algorithm Type is DF.
  DIIS enabled.
  MOM disabled.
  Fractional occupation disabled.
  Guess Type is READ.
  Energy threshold   = 1.00e-10
  Density threshold  = 1.00e-10
  Integral threshold = 0.00e+00

  ==> Primary Basis <==

  Basis Set: AUG-CC-PVTZ
    Blend: AUG-CC-PVTZ
    Number of shells: 277
    Number of basis function: 851
    Number of Cartesian functions: 995
    Spherical Harmonics?: true
    Max angular momentum: 3

   => Loading Basis Set <=

    Name: (AUG-CC-PVTZ AUX)
    Role: JKFIT
    Keyword: DF_BASIS_SCF
    atoms 1-11  entry C          line   161 file /cbio/jclab/home/chayas/anaconda/envs/py35/share/psi4/basis/aug-cc-pvtz-jkfit.gbs 
    atoms 12    entry N          line   223 file /cbio/jclab/home/chayas/anaconda/envs/py35/share/psi4/basis/aug-cc-pvtz-jkfit.gbs 
    atoms 13    entry O          line   285 file /cbio/jclab/home/chayas/anaconda/envs/py35/share/psi4/basis/aug-cc-pvtz-jkfit.gbs 
    atoms 14    entry F          line   347 file /cbio/jclab/home/chayas/anaconda/envs/py35/share/psi4/basis/aug-cc-pvtz-jkfit.gbs 
    atoms 15-23 entry H          line    69 file /cbio/jclab/home/chayas/anaconda/envs/py35/share/psi4/basis/aug-cc-pvtz-jkfit.gbs 

  Reading orbitals from file 180, no projection.

  ==> Pre-Iterations <==

   -------------------------------------------------------
    Irrep   Nso     Nmo     Nalpha   Nbeta   Ndocc  Nsocc
   -------------------------------------------------------
     A        851     851       0       0       0       0
   -------------------------------------------------------
    Total     851     851      49      49      49       0
   -------------------------------------------------------

  ==> Integral Setup <==

  ==> DFJK: Density-Fitted J/K Matrices <==

    J tasked:                  Yes
    K tasked:                  Yes
    wK tasked:                  No
    OpenMP threads:              8
    Integrals threads:           8
    Memory (MB):              3576
    Algorithm:                Disk
    Integral Cache:           NONE
    Schwarz Cutoff:          1E-12
    Fitting Condition:       1E-12

   => Auxiliary Basis Set <=

  Basis Set: (AUG-CC-PVTZ AUX)
    Blend: AUG-CC-PVTZ-JKFIT
    Number of shells: 546
    Number of basis function: 1870
    Number of Cartesian functions: 2329
    Spherical Harmonics?: true
    Max angular momentum: 4

  Minimum eigenvalue in the overlap matrix is 6.6770093970E-07.
  Using Symmetric Orthogonalization.

  SCF Guess: Orbitals guess was supplied from a previous computation.

  ==> Iterations <==

                           Total Energy        Delta E     RMS |[F,P]|

   @DF-RHF iter   0:  -650.59956145390174   -6.50600e+02   3.78870e-04 
   @DF-RHF iter   1:  -650.56224478112995    3.73167e-02   4.64947e-05 
   @DF-RHF iter   2:  -650.56242441207633   -1.79631e-04   3.29946e-05 DIIS
   @DF-RHF iter   3:  -650.56248783726733   -6.34252e-05   8.39112e-06 DIIS
   @DF-RHF iter   4:  -650.56249287225091   -5.03498e-06   3.35633e-06 DIIS
   @DF-RHF iter   5:  -650.56249421503833   -1.34279e-06   1.36862e-06 DIIS
   @DF-RHF iter   6:  -650.56249453082387   -3.15786e-07   6.96078e-07 DIIS
   @DF-RHF iter   7:  -650.56249463890651   -1.08083e-07   3.10338e-07 DIIS
   @DF-RHF iter   8:  -650.56249466776899   -2.88625e-08   9.72378e-08 DIIS
   @DF-RHF iter   9:  -650.56249467038788   -2.61889e-09   3.69298e-08 DIIS
   @DF-RHF iter  10:  -650.56249467055795   -1.70076e-10   1.31061e-08 DIIS
   @DF-RHF iter  11:  -650.56249467057683   -1.88720e-11   3.37403e-09 DIIS
   @DF-RHF iter  12:  -650.56249467060536   -2.85354e-11   1.40500e-09 DIIS
   @DF-RHF iter  13:  -650.56249467057557    2.97860e-11   5.09509e-10 DIIS
   @DF-RHF iter  14:  -650.56249467058319   -7.61702e-12   2.90337e-10 DIIS
   @DF-RHF iter  15:  -650.56249467061286   -2.96723e-11   1.37111e-10 DIIS
   @DF-RHF iter  16:  -650.56249467061889   -6.02540e-12   3.86510e-11 DIIS

  ==> Post-Iterations <==

    Orbital Energies (a.u.)
    -----------------------

    Doubly Occupied:                                                      

       1A    -26.439624     2A    -20.703270     3A    -15.845671  
       4A    -11.490961     5A    -11.490067     6A    -11.463199  
       7A    -11.455716     8A    -11.432624     9A    -11.421701  
      10A    -11.421287    11A    -11.378945    12A    -11.375206  
      13A    -11.356161    14A    -11.347103    15A     -1.759176  
      16A     -1.523768    17A     -1.520908    18A     -1.323565  
      19A     -1.273322    20A     -1.247708    21A     -1.163955  
      22A     -1.151863    23A     -1.073077    24A     -1.064366  
      25A     -0.991308    26A     -0.972142    27A     -0.962776  
      28A     -0.887896    29A     -0.877386    30A     -0.861940  
      31A     -0.854836    32A     -0.825164    33A     -0.822534  
      34A     -0.806365    35A     -0.803851    36A     -0.782453  
      37A     -0.756894    38A     -0.747480    39A     -0.727530  
      40A     -0.717462    41A     -0.706387    42A     -0.687990  
      43A     -0.655349    44A     -0.642931    45A     -0.612451  
      46A     -0.580923    47A     -0.544371    48A     -0.470063  
      49A     -0.445296  

    Virtual:                                                              

      50A     -0.106221    51A     -0.087303    52A     -0.068140  
      53A     -0.063244    54A     -0.059229    55A     -0.051147  
      56A     -0.041562    57A     -0.039773    58A     -0.035042  
      59A     -0.030536    60A     -0.024659    61A     -0.015695  
      62A     -0.011242    63A     -0.010661    64A     -0.005935  
      65A     -0.003007    66A      0.001648    67A      0.008905  
      68A      0.010833    69A      0.013598    70A      0.016419  
      71A      0.017905    72A      0.023991    73A      0.026839  
      74A      0.028933    75A      0.031688    76A      0.032794  
      77A      0.037857    78A      0.040093    79A      0.041347  
      80A      0.044598    81A      0.052454    82A      0.057188  
      83A      0.060286    84A      0.063076    85A      0.067192  
      86A      0.068980    87A      0.076767    88A      0.081840  
      89A      0.086795    90A      0.087946    91A      0.092133  
      92A      0.094569    93A      0.098868    94A      0.101562  
      95A      0.106380    96A      0.116869    97A      0.117461  
      98A      0.126773    99A      0.130393   100A      0.134257  
     101A      0.136331   102A      0.139874   103A      0.143656  
     104A      0.145285   105A      0.151022   106A      0.151744  
     107A      0.160985   108A      0.162157   109A      0.163958  
     110A      0.167889   111A      0.170681   112A      0.173021  
     113A      0.175305   114A      0.182340   115A      0.185040  
     116A      0.189492   117A      0.194695   118A      0.195726  
     119A      0.201019   120A      0.205097   121A      0.208596  
     122A      0.214172   123A      0.215787   124A      0.220407  
     125A      0.224170   126A      0.226755   127A      0.230055  
     128A      0.232706   129A      0.237017   130A      0.244321  
     131A      0.245463   132A      0.249109   133A      0.254687  
     134A      0.255712   135A      0.258558   136A      0.264382  
     137A      0.274236   138A      0.276569   139A      0.280099  
     140A      0.280634   141A      0.283696   142A      0.291355  
     143A      0.293550   144A      0.299872   145A      0.301523  
     146A      0.310029   147A      0.316434   148A      0.319292  
     149A      0.323468   150A      0.325702   151A      0.327775  
     152A      0.331029   153A      0.333906   154A      0.335749  
     155A      0.337858   156A      0.341739   157A      0.344456  
     158A      0.349995   159A      0.352248   160A      0.357441  
     161A      0.358590   162A      0.363289   163A      0.369098  
     164A      0.371411   165A      0.373223   166A      0.376274  
     167A      0.378442   168A      0.384499   169A      0.387109  
     170A      0.393268   171A      0.399924   172A      0.401383  
     173A      0.403649   174A      0.409338   175A      0.410920  
     176A      0.412957   177A      0.416556   178A      0.424629  
     179A      0.427335   180A      0.428738   181A      0.430863  
     182A      0.438166   183A      0.441202   184A      0.447168  
     185A      0.450225   186A      0.453231   187A      0.455981  
     188A      0.466260   189A      0.471910   190A      0.475202  
     191A      0.482889   192A      0.489753   193A      0.492003  
     194A      0.494559   195A      0.500029   196A      0.505322  
[...]
	 D(2,1,8,9)       =         3.069461	     175.867178
	 D(2,1,8,11)      =         0.037123	       2.126985
	 D(2,10,5,11)     =         0.001867	       0.106943
	 D(2,10,5,19)     =        -3.137912	    -179.789128
	 D(2,10,13,23)    =         3.139650	     179.888709
	 D(3,6,12,7)      =        -0.001156	      -0.066254
	 D(3,6,12,22)     =        -3.134196	    -179.576195
	 D(3,9,4,7)       =        -0.029449	      -1.687289
	 D(3,9,4,18)      =         3.116507	     178.562673
	 D(3,9,8,11)      =        -1.951173	    -111.793980
	 D(4,7,12,6)      =         0.006475	       0.370975
	 D(4,7,12,22)     =         3.139515	     179.880980
	 D(4,9,3,6)       =         0.034778	       1.992619
	 D(4,9,3,17)      =        -3.105599	    -177.937724
	 D(4,9,8,11)      =         1.111883	      63.706201
	 D(5,10,2,16)     =         3.119974	     178.761366
	 D(5,10,13,23)    =         0.003811	       0.218362
	 D(5,11,8,9)      =        -3.086628	    -176.850759
	 D(6,3,9,8)       =         3.099802	     177.605567
	 D(6,12,7,21)     =        -3.135034	    -179.624226
	 D(7,4,9,8)       =        -3.094826	    -177.320474
	 D(7,12,6,20)     =         3.123643	     178.971557
	 D(8,1,2,10)      =        -0.005229	      -0.299616
	 D(8,1,2,16)      =        -3.139941	    -179.905356
	 D(8,9,3,17)      =        -0.040575	      -2.324775
	 D(8,9,4,18)      =         0.051129	       2.929489
	 D(8,11,5,10)     =         0.032329	       1.852288
	 D(8,11,5,19)     =        -3.111030	    -178.248860
	 D(9,3,6,12)      =        -0.020016	      -1.146844
	 D(9,3,6,20)      =         3.139641	     179.888168
	 D(9,4,7,12)      =         0.009393	       0.538187
	 D(9,4,7,21)      =        -3.132290	    -179.466976
	 D(9,8,1,15)      =        -0.067822	      -3.885931
	 D(9,8,11,14)     =         0.070188	       4.021481
	 D(10,2,1,15)     =         3.132042	     179.452780
	 D(10,5,11,14)    =        -3.124612	    -179.027105
	 D(11,5,10,13)    =         3.137524	     179.766870
	 D(11,8,1,15)     =        -3.100161	    -177.626123
	 D(12,6,3,17)     =         3.120374	     178.784236
	 D(12,7,4,18)     =        -3.136517	    -179.709184
	 D(13,10,2,16)    =        -0.016042	      -0.919151
	 D(13,10,5,19)    =        -0.002255	      -0.129201
	 D(14,11,5,19)    =         0.015215	       0.871746
	 D(15,1,2,16)     =        -0.002670	      -0.152960
	 D(17,3,6,20)     =        -0.003155	      -0.180752
	 D(18,4,7,21)     =         0.004986	       0.285653
	 D(20,6,12,22)    =        -0.009397	      -0.538384
	 D(21,7,12,22)    =        -0.001994	      -0.114221
	 R(4,14)          =         5.743744	       3.039458

	Current energy   :      -653.2439186653

	Energy change for the previous step:
		Projected    :         0.0000157816
		Actual       :        -0.0000035239

	Performing BFGS update.
	Previous computed or guess Hessian on step 1.
	Steps to be used in Hessian update: 17 16
	Adding user-defined constraint: Fragment 1; Coordinate 64:
		Value =     1.301990; Fixed value    =     1.309000
		Force =     0.006484; Force constant =     0.925000
	Removing off-diagonal coupling between coordinate 64 and others.
	Taking RFO optimization step.
	Going to follow RFO solution 1.
	Rejecting RFO root 1 because normalization gives large value.
	Using RFO vector 2.
	Norm of target step-size    0.00409
	Projected energy change by RFO approximation:        -0.0000030568

	Back-transformation to cartesian coordinates...
	Successfully converged to displaced geometry.

	--- Internal Coordinate Step in ANG or DEG, aJ/ANG or AJ/DEG ---
	 ---------------------------------------------------------------------------
	   Coordinate                Previous        Force       Change         New 
	   ----------                --------       ------       ------       ------
	    1 R(1,2)          =      1.379628    -0.000168    -0.000010     1.379618
	    2 R(1,8)          =      1.395455    -0.000059    -0.000004     1.395451
	    3 R(1,15)         =      1.079874     0.000189     0.000021     1.079895
	    4 R(2,10)         =      1.392448     0.000956     0.000093     1.392542
	    5 R(2,16)         =      1.077855     0.000093     0.000011     1.077866
	    6 R(3,6)          =      1.376271     0.000170     0.000020     1.376291
	    7 R(3,9)          =      1.394416    -0.000247    -0.000026     1.394390
	    8 R(3,17)         =      1.078231     0.000237     0.000032     1.078263
	    9 R(4,7)          =      1.375436     0.000091     0.000016     1.375452
	   10 R(4,9)          =      1.395067     0.000162     0.000005     1.395072
	   11 R(4,18)         =      1.078022     0.000190     0.000013     1.078036
	   12 R(5,10)         =      1.390410     0.000515     0.000066     1.390476
	   13 R(5,11)         =      1.375991     0.000172     0.000027     1.376018
	   14 R(5,19)         =      1.079000     0.000075     0.000005     1.079005
	   15 R(6,12)         =      1.341486     0.000525     0.000054     1.341540
	   16 R(6,20)         =      1.077139     0.000071     0.000012     1.077151
	   17 R(7,12)         =      1.342137     0.000426     0.000031     1.342167
	   18 R(7,21)         =      1.077145     0.000172     0.000029     1.077175
	   19 R(8,9)          =      1.459213    -0.000837    -0.000113     1.459099
	   20 R(8,11)         =      1.386177     0.000004    -0.000044     1.386133
	   21 R(10,13)        =      1.346173     0.000069     0.000020     1.346193
	   22 R(11,14)        =      1.345794     0.001164     0.000072     1.345866
	   23 R(12,22)        =      1.012826     0.000148     0.000017     1.012843
	   24 R(13,23)        =      0.963227     0.000220     0.000018     0.963245
	   25 B(1,2,10)       =    119.972705     0.000001     0.001461   119.974166
	   26 B(1,2,16)       =    121.106485    -0.000000    -0.004041   121.102444
	   27 B(1,8,9)        =    122.301361    -0.000010    -0.034263   122.267098
	   28 B(1,8,11)       =    117.608698     0.000014     0.035760   117.644459
	   29 B(2,1,8)        =    120.902502    -0.000008    -0.020541   120.881961
	   30 B(2,1,15)       =    119.694116     0.000003     0.007313   119.701429
	   31 B(2,10,5)       =    120.121637     0.000002     0.004938   120.126575
	   32 B(2,10,13)      =    116.836182    -0.000000     0.000551   116.836733
	   33 B(3,6,12)       =    118.986076     0.000001     0.002993   118.989069
	   34 B(3,6,20)       =    124.044505    -0.000001    -0.005203   124.039302
	   35 B(3,9,4)        =    118.084998     0.000011     0.027729   118.112728
	   36 B(3,9,8)        =    121.104746    -0.000010    -0.026396   121.078351
	   37 B(4,7,12)       =    119.037479    -0.000000    -0.000207   119.037271
	   38 B(4,7,21)       =    124.037430    -0.000000    -0.002824   124.034606
	   39 B(4,9,8)        =    120.662719    -0.000002    -0.003903   120.658815
	   40 B(5,10,13)      =    123.041361    -0.000002    -0.005229   123.036132
	   41 B(5,11,8)       =    122.772275    -0.000008    -0.022009   122.750267
	   42 B(5,11,14)      =    119.039961     0.000000     0.001632   119.041594
	   43 B(6,3,9)        =    120.321289    -0.000007    -0.019780   120.301509
	   44 B(6,3,17)       =    119.307275     0.000003     0.009139   119.316414
	   45 B(6,12,7)       =    123.258946     0.000001     0.005225   123.264172
	   46 B(6,12,22)      =    118.376676    -0.000000    -0.000694   118.375982
	   47 B(7,4,9)        =    120.283567    -0.000006    -0.016702   120.266865
	   48 B(7,4,18)       =    119.337930     0.000002     0.004957   119.342887
	   49 B(7,12,22)      =    118.362626    -0.000001    -0.004749   118.357877
	   50 B(8,1,15)       =    119.402924     0.000005     0.012989   119.415913
	   51 B(8,11,14)      =    118.182135     0.000008     0.020146   118.202281
	   52 B(9,3,17)       =    120.371400     0.000004     0.010605   120.382005
	   53 B(9,4,18)       =    120.378037     0.000004     0.011803   120.389840
	   54 B(9,8,11)       =    119.794658    -0.000004     0.002586   119.797244
	   55 B(10,2,16)      =    118.919661    -0.000000     0.002546   118.922207
	   56 B(10,5,11)      =    118.564553    -0.000000     0.002456   118.567009
	   57 B(10,5,19)      =    122.024769     0.000002     0.006678   122.031447
	   58 B(10,13,23)     =    110.641304    -0.000000    -0.008215   110.633089
	   59 B(11,5,19)      =    119.410597    -0.000002    -0.009140   119.401458
	   60 B(12,6,20)      =    116.961817     0.000001     0.002450   116.964267
	   61 B(12,7,21)      =    116.925091     0.000001     0.003030   116.928121
	   62 D(1,2,10,5)     =     -0.852973     0.000000     0.019972    -0.833000
	   63 D(1,2,10,13)    =    179.466511    -0.000000    -0.035394   179.431117
	   64 D(1,8,9,3)      =     74.598531     0.000000    -0.008370    74.590161
	   65 D(1,8,9,4)      =   -109.901288    -0.000000    -0.046066  -109.947354
	   66 D(1,8,11,5)     =     -2.947190     0.000000     0.048206    -2.898984
	   67 D(1,8,11,14)    =    177.925050     0.000001     0.065850   177.990900
	   68 D(2,1,8,9)      =    175.867178    -0.000001    -0.016745   175.850433
	   69 D(2,1,8,11)     =      2.126985    -0.000000    -0.060403     2.066583
	   70 D(2,10,5,11)    =      0.106943    -0.000001    -0.032690     0.074253
	   71 D(2,10,5,19)    =   -179.789128    -0.000001    -0.029161  -179.818289
	   72 D(2,10,13,23)   =    179.888709     0.000001     0.048903   179.937612
	   73 D(3,6,12,7)     =     -0.066254     0.000000    -0.042446    -0.108700
	   74 D(3,6,12,22)    =   -179.576195     0.000000    -0.012860  -179.589054
	   75 D(3,9,4,7)      =     -1.687289    -0.000000    -0.022384    -1.709674
	   76 D(3,9,4,18)     =    178.562673    -0.000000    -0.038308   178.524365
	   77 D(3,9,8,11)     =   -111.793980     0.000000     0.038137  -111.755843
	   78 D(4,7,12,6)     =      0.370975    -0.000000     0.040750     0.411725
	   79 D(4,7,12,22)    =    179.880980    -0.000000     0.011187   179.892168
	   80 D(4,9,3,6)      =      1.992619     0.000000     0.020540     2.013158
	   81 D(4,9,3,17)     =   -177.937724     0.000000     0.049366  -177.888358
	   82 D(4,9,8,11)     =     63.706201    -0.000000     0.000441    63.706642
	   83 D(5,10,2,16)    =    178.761366     0.000000     0.014333   178.775699
	   84 D(5,10,13,23)   =      0.218362    -0.000000    -0.008255     0.210107
	   85 D(5,11,8,9)     =   -176.850759     0.000001     0.008150  -176.842609
	   86 D(6,3,9,8)      =    177.605567    -0.000001    -0.017532   177.588035
	   87 D(6,12,7,21)    =   -179.624226     0.000000     0.025134  -179.599092
	   88 D(7,4,9,8)      =   -177.320474     0.000001     0.016560  -177.303914
	   89 D(7,12,6,20)    =    178.971557    -0.000000    -0.027178   178.944379
	   90 D(8,1,2,10)     =     -0.299616     0.000000     0.028276    -0.271340
	   91 D(8,1,2,16)     =   -179.905356     0.000000     0.034014  -179.871342
	   92 D(8,9,3,17)     =     -2.324775    -0.000001     0.011294    -2.313481
	   93 D(8,9,4,18)     =      2.929489     0.000001     0.000636     2.930125
	   94 D(8,11,5,10)    =      1.852288     0.000000    -0.002913     1.849375
	   95 D(8,11,5,19)    =   -178.248860     0.000000    -0.006330  -178.255191
	   96 D(9,3,6,12)     =     -1.146844    -0.000000     0.010892    -1.135953
	   97 D(9,3,6,20)     =    179.888168     0.000000    -0.005616   179.882551
	   98 D(9,4,7,12)     =      0.538187     0.000000    -0.007320     0.530867
	   99 D(9,4,7,21)     =   -179.466976    -0.000000     0.009481  -179.457495
	  100 D(9,8,1,15)     =     -3.885931    -0.000000     0.040898    -3.845033
	  101 D(9,8,11,14)    =      4.021481     0.000001     0.025794     4.047275
	  102 D(10,2,1,15)    =    179.452780    -0.000000    -0.029517   179.423263
	  103 D(10,5,11,14)   =   -179.027105    -0.000000    -0.020547  -179.047652
	  104 D(11,5,10,13)   =    179.766870     0.000000     0.026262   179.793132
	  105 D(11,8,1,15)    =   -177.626123    -0.000000    -0.002759  -177.628883
	  106 D(12,6,3,17)    =    178.784236    -0.000000    -0.017627   178.766609
	  107 D(12,7,4,18)    =   -179.709184     0.000000     0.008456  -179.700729
	  108 D(13,10,2,16)   =     -0.919151    -0.000001    -0.041033    -0.960184
	  109 D(13,10,5,19)   =     -0.129201     0.000000     0.029791    -0.099410
	  110 D(14,11,5,19)   =      0.871746    -0.000000    -0.023964     0.847782
	  111 D(15,1,2,16)    =     -0.152960    -0.000000    -0.023779    -0.176738
	  112 D(17,3,6,20)    =     -0.180752    -0.000000    -0.034135    -0.214887
	  113 D(18,4,7,21)    =      0.285653    -0.000000     0.025257     0.310909
	  114 D(20,6,12,22)   =     -0.538384    -0.000000     0.002408    -0.535976
	  115 D(21,7,12,22)   =     -0.114221     0.000000    -0.004429    -0.118649
	  116 R(4,14)         =      3.039458     0.000244     0.000565     3.040023
	 ---------------------------------------------------------------------------
	Successfully symmetrized geometry.
	 Forces used to impose fixed constraints are not included.
	  Forces zeroed: 64 

  ==> Convergence Check <==

  Measures of convergence in internal coordinates in au.
  Criteria marked as inactive (o), active & met (*), and active & unmet ( ).
  ---------------------------------------------------------------------------------------------
   Step     Total Energy     Delta E     MAX Force     RMS Force      MAX Disp      RMS Disp   
  ---------------------------------------------------------------------------------------------
    Convergence Criteria    1.00e-06 *    3.00e-04 *             o    1.20e-03 *             o
  ---------------------------------------------------------------------------------------------
     18    -653.24391867   -3.52e-06      1.86e-04 *    4.61e-05 o    1.15e-03 *    3.80e-04 o  ~
  ---------------------------------------------------------------------------------------------


  **** Optimization is complete! (in 18 steps) ****

  ==> Optimization Summary <==

  Measures of convergence in internal coordinates in au.
  --------------------------------------------------------------------------------------------------------------- ~
   Step         Total Energy             Delta E       MAX Force       RMS Force        MAX Disp        RMS Disp  ~
  --------------------------------------------------------------------------------------------------------------- ~
      1    -653.239843958569   -653.239843958569      0.01518908      0.00433888      0.03135827      0.00927480  ~
      2    -653.242826008514     -0.002982049945      0.00475594      0.00142086      0.04950776      0.00927622  ~
      3    -653.243496619046     -0.000670610532      0.00189668      0.00037358      0.06934539      0.00927483  ~
      4    -653.243691706285     -0.000195087239      0.00124014      0.00017582      0.07441759      0.00927221  ~
      5    -653.243839364835     -0.000147658550      0.00088129      0.00015802      0.07604097      0.00926875  ~
      6    -653.243940465335     -0.000101100500      0.00081074      0.00017462      0.07752027      0.00926614  ~
      7    -653.244022849646     -0.000082384311      0.00179459      0.00026825      0.05005563      0.00646748  ~
      8    -653.243971544775      0.000051304871      0.00134369      0.00020868      0.01895164      0.00198800  ~
      9    -653.243991587071     -0.000020042296      0.00191338      0.00028414      0.06291914      0.00934302  ~
     10    -653.243709882715      0.000281704356      0.00422776      0.00073715      0.04507679      0.00754069  ~
     11    -653.243921791718     -0.000211909003      0.00148954      0.00030985      0.08591453      0.00927790  ~
     12    -653.243938075049     -0.000016283331      0.00037086      0.00008484      0.01856270      0.00337181  ~
     13    -653.243934825437      0.000003249612      0.00017795      0.00005766      0.01664265      0.00280476  ~
     14    -653.243918874856      0.000015950580      0.00027093      0.00006299      0.01921667      0.00266799  ~
     15    -653.243921977971     -0.000003103115      0.00010693      0.00003467      0.03143214      0.00377352  ~
     16    -653.243917730256      0.000004247715      0.00055544      0.00009892      0.00732507      0.00211906  ~
     17    -653.243915141454      0.000002588802      0.00020500      0.00006065      0.02041613      0.00280241  ~
     18    -653.243918665342     -0.000003523888      0.00018578      0.00004619      0.00114930      0.00037963  ~
  --------------------------------------------------------------------------------------------------------------- ~

	Writing optimization data to binary file.
	Final energy is   -653.2439186653424
	Final (previous) structure:
	Cartesian Geometry (in Angstrom)
	    C    -1.3531096376   0.8749615161  -0.7607566829
	    C    -2.4238307817   1.3892134669  -0.0589922856
	    C     1.7990999391   0.3872280669  -1.4327512825
	    C     0.9557683310  -1.7643977750  -0.8150721621
	    C    -1.4254107439   0.6528844566   2.0089343067
	    C     2.8594656025  -0.2254552598  -2.0607359537
	    C     2.0296550634  -2.3487416244  -1.4452576593
	    C    -0.2930293028   0.2550524786  -0.0980072020
	    C     0.8109193000  -0.3768728032  -0.8130381093
	    C    -2.4590861745   1.2875864758   1.3292950754
	    C    -0.3785568388   0.1364203924   1.2804335257
	    N     2.9379962215  -1.5645637066  -2.0463500340
	    O    -3.5277699035   1.8204555796   1.9507031423
	    F     0.6173240779  -0.4972494445   1.9268425987
	    H    -1.3346056669   0.9483726483  -1.8379738532
	    H    -3.2450777579   1.8673358024  -0.5676423284
	    H     1.7412738254   1.4638726695  -1.4241232135
	    H     0.2257649134  -2.3894439633  -0.3266620905
	    H    -1.4230196224   0.5538495014   3.0833775283
	    H     3.6537263855   0.3050118882  -2.5587143102
	    H     2.1963765869  -3.4119125165  -1.4912346631
	    H     3.7256212541  -2.0055255405  -2.5057138043
	    H    -3.4617120001   1.6990872868   2.9039670893
	Saving final (previous) structure.
			--------------------------
			 OPTKING Finished Execution 
			--------------------------

    Final optimized geometry and variables:
    Molecular point group: c1
    Full point group: C1

    Geometry (in Angstrom), charge = 1, multiplicity = 1:

    C           -1.353109637612     0.874961516087    -0.760756682873
    C           -2.423830781657     1.389213466919    -0.058992285636
    C            1.799099939084     0.387228066894    -1.432751282513
    C            0.955768330975    -1.764397774965    -0.815072162103
    C           -1.425410743916     0.652884456570     2.008934306673
    C            2.859465602468    -0.225455259840    -2.060735953686
    C            2.029655063373    -2.348741624379    -1.445257659279
    C           -0.293029302823     0.255052478633    -0.098007202010
    C            0.810919299952    -0.376872803219    -0.813038109318
    C           -2.459086174479     1.287586475769     1.329295075446
    C           -0.378556838772     0.136420392416     1.280433525745
    N            2.937996221485    -1.564563706575    -2.046350033989
    O           -3.527769903457     1.820455579551     1.950703142278
    F            0.617324077896    -0.497249444524     1.926842598730
    H           -1.334605666910     0.948372648292    -1.837973853237
    H           -3.245077757928     1.867335802368    -0.567642328400
    H            1.741273825367     1.463872669469    -1.424123213511
    H            0.225764913378    -2.389443963327    -0.326662090491
    H           -1.423019622350     0.553849501407     3.083377528322
    H            3.653726385549     0.305011888245    -2.558714310249
    H            2.196376586872    -3.411912516493    -1.491234663093
    H            3.725621254140    -2.005525540474    -2.505713804259
    H           -3.461712000101     1.699087286847     2.903967089251

	Cleaning optimization helper files.

*** Psi4 exiting successfully. Buy a developer a beer!
