
    -----------------------------------------------------------------------
          Psi4: An Open-Source Ab Initio Electronic Structure Package
                               Psi4 1.1 release

                         Git: Rev {HEAD} add49b9 


    R. M. Parrish, L. A. Burns, D. G. A. Smith, A. C. Simmonett,
    A. E. DePrince III, E. G. Hohenstein, U. Bozkaya, A. Yu. Sokolov,
    R. Di Remigio, R. M. Richard, J. F. Gonthier, A. M. James,
    H. R. McAlexander, A. Kumar, M. Saitow, X. Wang, B. P. Pritchard,
    P. Verma, H. F. Schaefer III, K. Patkowski, R. A. King, E. F. Valeev,
    F. A. Evangelista, J. M. Turney, T. D. Crawford, and C. D. Sherrill,
    J. Chem. Theory Comput. in press (2017).
    (doi: 10.1021/acs.jctc.7b00174)

    -----------------------------------------------------------------------


    Psi4 started on: Saturday, 11 November 2017 06:16PM

    Process ID:   3146
    PSIDATADIR: /cbio/jclab/home/chayas/anaconda/envs/py35/share/psi4
    Memory:     500.0 MiB
    Threads:    8
    
  ==> Input File <==

--------------------------------------------------------------------------

memory 5 Gb

molecule phepyrFOH_cation {
  symmetry C1
  1 1 
  C      1.885   -1.036   -0.112
  C      0.807   -0.463   0.561
  C      4.716   -3.305   0.461
  C      4.435   -1.716   -1.328
  C      1.800   -1.079   2.676
  C      5.783   -3.854   -0.235
  C      5.510   -2.305   -1.979
  C      2.921   -1.631   0.608
  C      4.038   -2.225   -0.095
  C      0.764   -0.484   1.955
  C      2.878   -1.652   2.002
  N      6.145   -3.345   -1.420
  O      -0.289   0.076   2.612
  F      3.866   -2.220   2.709
  H      1.904   -1.012   -1.199
  H      0.002   -0.002   -0.006
  H      4.428   -3.722   1.422
  H      3.925   -0.874   -1.785
  H      1.772   -1.099   3.762
  H      6.366   -4.693   0.119
  H      5.887   -1.978   -2.937
  H      6.933   -3.762   -1.915
  H      -0.175   -0.018   3.571
  units Angstrom
}

dih_string = "1 8 9 3 210"
set optking fixed_dihedral = $dih_string

optimize('MP2/aug-cc-PVTZ')
--------------------------------------------------------------------------

  Memory set to   4.657 GiB by Python driver.
gradient() will perform analytic gradient computation.

*** tstart() called on gpu-2-14.local
*** at Sat Nov 11 18:16:21 2017

    SCF Algorithm Type (re)set to DF.

*** tstart() called on gpu-2-14.local
*** at Sat Nov 11 18:16:21 2017

   => Loading Basis Set <=

    Name: AUG-CC-PVTZ
    Role: ORBITAL
    Keyword: BASIS
    atoms 1-11  entry C          line   221 file /cbio/jclab/home/chayas/anaconda/envs/py35/share/psi4/basis/aug-cc-pvtz.gbs 
    atoms 12    entry N          line   267 file /cbio/jclab/home/chayas/anaconda/envs/py35/share/psi4/basis/aug-cc-pvtz.gbs 
    atoms 13    entry O          line   313 file /cbio/jclab/home/chayas/anaconda/envs/py35/share/psi4/basis/aug-cc-pvtz.gbs 
    atoms 14    entry F          line   359 file /cbio/jclab/home/chayas/anaconda/envs/py35/share/psi4/basis/aug-cc-pvtz.gbs 
    atoms 15-23 entry H          line    34 file /cbio/jclab/home/chayas/anaconda/envs/py35/share/psi4/basis/aug-cc-pvtz.gbs 


         ---------------------------------------------------------
                                   SCF
            by Justin Turney, Rob Parrish, and Andy Simmonett
                              RHF Reference
                        8 Threads,   4768 MiB Core
         ---------------------------------------------------------

  ==> Geometry <==

    Molecular point group: c1
    Full point group: C1

    Geometry (in Angstrom), charge = 1, multiplicity = 1:

       Center              X                  Y                   Z               Mass       
    ------------   -----------------  -----------------  -----------------  -----------------
           C         -1.338093331975     0.763869155993    -0.788441598818    12.000000000000
           C         -2.416093331975     1.336869155993    -0.115441598818    12.000000000000
           C          1.492906668025    -1.505130844007    -0.215441598818    12.000000000000
           C          1.211906668025     0.083869155993    -2.004441598818    12.000000000000
           C         -1.423093331975     0.720869155993     1.999558401182    12.000000000000
           C          2.559906668025    -2.054130844007    -0.911441598818    12.000000000000
           C          2.286906668025    -0.505130844007    -2.655441598818    12.000000000000
           C         -0.302093331975     0.168869155993    -0.068441598818    12.000000000000
           C          0.814906668025    -0.425130844007    -0.771441598818    12.000000000000
           C         -2.459093331975     1.315869155993     1.278558401182    12.000000000000
           C         -0.345093331975     0.147869155993     1.325558401182    12.000000000000
           N          2.921906668025    -1.545130844007    -2.096441598818    14.003074004780
           O         -3.512093331975     1.875869155993     1.935558401182    15.994914619560
           F          0.642906668025    -0.420130844007     2.032558401182    18.998403224000
           H         -1.319093331975     0.787869155993    -1.875441598818     1.007825032070
           H         -3.221093331975     1.797869155993    -0.682441598818     1.007825032070
           H          1.204906668025    -1.922130844007     0.745558401182     1.007825032070
           H          0.701906668025     0.925869155993    -2.461441598818     1.007825032070
           H         -1.451093331975     0.700869155993     3.085558401182     1.007825032070
           H          3.142906668025    -2.893130844007    -0.557441598818     1.007825032070
           H          2.663906668025    -0.178130844007    -3.613441598818     1.007825032070
           H          3.709906668025    -1.962130844007    -2.591441598818     1.007825032070
           H         -3.398093331975     1.781869155993     2.894558401182     1.007825032070

  Running in c1 symmetry.

  Rotational constants: A =      0.06291  B =      0.01329  C =      0.01120 [cm^-1]
  Rotational constants: A =   1885.96136  B =    398.45603  C =    335.72592 [MHz]
  Nuclear repulsion =  831.972345865374677

  Charge       = 1
  Multiplicity = 1
  Electrons    = 98
  Nalpha       = 49
  Nbeta        = 49

  ==> Algorithm <==

  SCF Algorithm Type is DF.
  DIIS enabled.
  MOM disabled.
  Fractional occupation disabled.
  Guess Type is SAD.
  Energy threshold   = 1.00e-10
  Density threshold  = 1.00e-10
  Integral threshold = 0.00e+00

  ==> Primary Basis <==

  Basis Set: AUG-CC-PVTZ
    Blend: AUG-CC-PVTZ
    Number of shells: 277
    Number of basis function: 851
    Number of Cartesian functions: 995
    Spherical Harmonics?: true
    Max angular momentum: 3

   => Loading Basis Set <=

    Name: (AUG-CC-PVTZ AUX)
    Role: JKFIT
    Keyword: DF_BASIS_SCF
    atoms 1-11  entry C          line   161 file /cbio/jclab/home/chayas/anaconda/envs/py35/share/psi4/basis/aug-cc-pvtz-jkfit.gbs 
    atoms 12    entry N          line   223 file /cbio/jclab/home/chayas/anaconda/envs/py35/share/psi4/basis/aug-cc-pvtz-jkfit.gbs 
    atoms 13    entry O          line   285 file /cbio/jclab/home/chayas/anaconda/envs/py35/share/psi4/basis/aug-cc-pvtz-jkfit.gbs 
    atoms 14    entry F          line   347 file /cbio/jclab/home/chayas/anaconda/envs/py35/share/psi4/basis/aug-cc-pvtz-jkfit.gbs 
    atoms 15-23 entry H          line    69 file /cbio/jclab/home/chayas/anaconda/envs/py35/share/psi4/basis/aug-cc-pvtz-jkfit.gbs 

  ==> Pre-Iterations <==

   -------------------------------------------------------
    Irrep   Nso     Nmo     Nalpha   Nbeta   Ndocc  Nsocc
   -------------------------------------------------------
     A        851     851       0       0       0       0
   -------------------------------------------------------
    Total     851     851      49      49      49       0
   -------------------------------------------------------

  ==> Integral Setup <==

  ==> DFJK: Density-Fitted J/K Matrices <==

    J tasked:                  Yes
    K tasked:                  Yes
    wK tasked:                  No
    OpenMP threads:              8
    Integrals threads:           8
    Memory (MB):              3576
    Algorithm:                Disk
    Integral Cache:           NONE
    Schwarz Cutoff:          1E-12
    Fitting Condition:       1E-12

   => Auxiliary Basis Set <=

  Basis Set: (AUG-CC-PVTZ AUX)
    Blend: AUG-CC-PVTZ-JKFIT
    Number of shells: 546
    Number of basis function: 1870
    Number of Cartesian functions: 2329
    Spherical Harmonics?: true
    Max angular momentum: 4

  Minimum eigenvalue in the overlap matrix is 6.2139989389E-07.
  Using Symmetric Orthogonalization.

  SCF Guess: Superposition of Atomic Densities via on-the-fly atomic UHF.

  ==> Iterations <==

                           Total Energy        Delta E     RMS |[F,P]|

   @DF-RHF iter   0:  -652.07662993676695   -6.52077e+02   2.33197e-02 
   @DF-RHF iter   1:  -650.15191335828297    1.92472e+00   2.14702e-03 
   @DF-RHF iter   2:  -650.48807795493553   -3.36165e-01   8.79550e-04 DIIS
   @DF-RHF iter   3:  -650.54207385717314   -5.39959e-02   4.57842e-04 DIIS
   @DF-RHF iter   4:  -650.55756010347454   -1.54862e-02   1.61020e-04 DIIS
   @DF-RHF iter   5:  -650.55956291131554   -2.00281e-03   5.01406e-05 DIIS
   @DF-RHF iter   6:  -650.55991298560514   -3.50074e-04   1.99582e-05 DIIS
   @DF-RHF iter   7:  -650.55996833101199   -5.53454e-05   7.03933e-06 DIIS
   @DF-RHF iter   8:  -650.55997713047464   -8.79946e-06   3.10359e-06 DIIS
   @DF-RHF iter   9:  -650.55997964367634   -2.51320e-06   1.56079e-06 DIIS
   @DF-RHF iter  10:  -650.55998033505841   -6.91382e-07   6.72200e-07 DIIS
   @DF-RHF iter  11:  -650.55998045734111   -1.22283e-07   1.80411e-07 DIIS
   @DF-RHF iter  12:  -650.55998046398054   -6.63943e-09   7.28480e-08 DIIS
   @DF-RHF iter  13:  -650.55998046498314   -1.00260e-09   3.48593e-08 DIIS
   @DF-RHF iter  14:  -650.55998046524815   -2.65004e-10   1.18795e-08 DIIS
   @DF-RHF iter  15:  -650.55998046527759   -2.94449e-11   6.10638e-09 DIIS
   @DF-RHF iter  16:  -650.55998046529021   -1.26192e-11   2.53815e-09 DIIS
   @DF-RHF iter  17:  -650.55998046529442   -4.20641e-12   1.06448e-09 DIIS
   @DF-RHF iter  18:  -650.55998046530715   -1.27329e-11   4.05694e-10 DIIS
   @DF-RHF iter  19:  -650.55998046528782    1.93268e-11   1.35627e-10 DIIS
   @DF-RHF iter  20:  -650.55998046530283   -1.50067e-11   6.52780e-11 DIIS

  ==> Post-Iterations <==

    Orbital Energies (a.u.)
    -----------------------

    Doubly Occupied:                                                      

       1A    -26.453833     2A    -20.712975     3A    -15.833566  
       4A    -11.483974     5A    -11.481435     6A    -11.477670  
       7A    -11.448459     8A    -11.447800     9A    -11.416250  
      10A    -11.410773    11A    -11.390858    12A    -11.382223  
      13A    -11.367360    14A    -11.359660    15A     -1.774466  
      16A     -1.527178    17A     -1.510544    18A     -1.325569  
      19A     -1.272921    20A     -1.236327    21A     -1.166459  
      22A     -1.158948    23A     -1.070314    24A     -1.059345  
      25A     -0.996507    26A     -0.971442    27A     -0.959178  
      28A     -0.899550    29A     -0.874416    30A     -0.863026  
      31A     -0.854082    32A     -0.840911    33A     -0.822069  
      34A     -0.807408    35A     -0.786872    36A     -0.774781  
      37A     -0.767538    38A     -0.754696    39A     -0.725832  
      40A     -0.713467    41A     -0.709678    42A     -0.688663  
      43A     -0.656690    44A     -0.650151    45A     -0.638471  
      46A     -0.574824    47A     -0.535613    48A     -0.476423  
      49A     -0.447309  

    Virtual:                                                              

      50A     -0.106454    51A     -0.083826    52A     -0.062270  
      53A     -0.061578    54A     -0.056788    55A     -0.047797  
      56A     -0.043511    57A     -0.039677    58A     -0.032983  
      59A     -0.026789    60A     -0.024078    61A     -0.020111  
      62A     -0.015656    63A     -0.011332    64A     -0.007189  
      65A     -0.000476    66A      0.005199    67A      0.006533  
      68A      0.010035    69A      0.015069    70A      0.018984  
      71A      0.022316    72A      0.024012    73A      0.028172  
      74A      0.028937    75A      0.033470    76A      0.037905  
      77A      0.038783    78A      0.041211    79A      0.045579  
      80A      0.050529    81A      0.056591    82A      0.057936  
      83A      0.064440    84A      0.068069    85A      0.070316  
      86A      0.072568    87A      0.075571    88A      0.082458  
      89A      0.083241    90A      0.085448    91A      0.094816  
      92A      0.096428    93A      0.106548    94A      0.109840  
      95A      0.111829    96A      0.116805    97A      0.122384  
      98A      0.122499    99A      0.127024   100A      0.132988  
     101A      0.135808   102A      0.137115   103A      0.140121  
     104A      0.143214   105A      0.151440   106A      0.155473  
     107A      0.159520   108A      0.161002   109A      0.164956  
     110A      0.168001   111A      0.170143   112A      0.174859  
     113A      0.180741   114A      0.183636   115A      0.186698  
     116A      0.190053   117A      0.194358   118A      0.200219  
     119A      0.203736   120A      0.204790   121A      0.209127  
     122A      0.216738   123A      0.218825   124A      0.220218  
     125A      0.221740   126A      0.223463   127A      0.233050  
     128A      0.234760   129A      0.236933   130A      0.239720  
     131A      0.245302   132A      0.249259   133A      0.250854  
     134A      0.260752   135A      0.267137   136A      0.269728  
     137A      0.272808   138A      0.276986   139A      0.281138  
     140A      0.282287   141A      0.287417   142A      0.295223  
     143A      0.296243   144A      0.302967   145A      0.305811  
     146A      0.310399   147A      0.311807   148A      0.319378  
     149A      0.323151   150A      0.323937   151A      0.329811  
     152A      0.332262   153A      0.337694   154A      0.338470  
     155A      0.340830   156A      0.343013   157A      0.343973  
     158A      0.350041   159A      0.354682   160A      0.357555  
     161A      0.364590   162A      0.366975   163A      0.370967  
     164A      0.373611   165A      0.375995   166A      0.377006  
     167A      0.383900   168A      0.389072   169A      0.391215  
     170A      0.392746   171A      0.395814   172A      0.400560  
     173A      0.405142   174A      0.407433   175A      0.409664  
     176A      0.412880   177A      0.417737   178A      0.419593  
     179A      0.423598   180A      0.429876   181A      0.431421  
     182A      0.435824   183A      0.442378   184A      0.444307  
     185A      0.450338   186A      0.454037   187A      0.456251  
     188A      0.466527   189A      0.471467   190A      0.475977  
     191A      0.486924   192A      0.487323   193A      0.495033  
     194A      0.496754   195A      0.507073   196A      0.511167  
     197A      0.517751   198A      0.526950   199A      0.532305  
     200A      0.538150   201A      0.539726   202A      0.550631  
     203A      0.555004   204A      0.563925   205A      0.568137  
     206A      0.571033   207A      0.575895   208A      0.578619  
     209A      0.585012   210A      0.589612   211A      0.597775  
     212A      0.603646   213A      0.608600   214A      0.612536  
     215A      0.616646   216A      0.620785   217A      0.623847  
     218A      0.630414   219A      0.638384   220A      0.641974  
     221A      0.647003   222A      0.653566   223A      0.654888  
     224A      0.660466   225A      0.667611   226A      0.679453  
     227A      0.686886   228A      0.698532   229A      0.699907  
     230A      0.703279   231A      0.704799   232A      0.715572  
     233A      0.718299   234A      0.722769   235A      0.726214  
     236A      0.727091   237A      0.736058   238A      0.737025  
     239A      0.746392   240A      0.753827   241A      0.755260  
     242A      0.758124   243A      0.763946   244A      0.768656  
     245A      0.776526   246A      0.777377   247A      0.783554  
     248A      0.786787   249A      0.791717   250A      0.798181  
     251A      0.800332   252A      0.803586   253A      0.805676  
     254A      0.810550   255A      0.815324   256A      0.822456  
     257A      0.828328   258A      0.831245   259A      0.837199  
     260A      0.839915   261A      0.845359   262A      0.851549  
     263A      0.858419   264A      0.864879   265A      0.865593  
     266A      0.868085   267A      0.874046   268A      0.876850  
     269A      0.881753   270A      0.887947   271A      0.890852  
     272A      0.893131   273A      0.900888   274A      0.909943  
     275A      0.911827   276A      0.916596   277A      0.922571  
     278A      0.926621   279A      0.928341   280A      0.931996  
     281A      0.937682   282A      0.939939   283A      0.944012  
     284A      0.950217   285A      0.957839   286A      0.962209  
     287A      0.963896   288A      0.964608   289A      0.971222  
     290A      0.973988   291A      0.978076   292A      0.985635  
     293A      0.992299   294A      0.994000   295A      0.995954  
     296A      1.000222   297A      1.005995   298A      1.012477  
     299A      1.017845   300A      1.018794   301A      1.027869  
     302A      1.031081   303A      1.038424   304A      1.041360  
     305A      1.042713   306A      1.053105   307A      1.056031  
     308A      1.062892   309A      1.066770   310A      1.068391  
     311A      1.076328   312A      1.080275   313A      1.086695  
     314A      1.091219   315A      1.094778   316A      1.097668  
     317A      1.100671   318A      1.105739   319A      1.116818  
     320A      1.120064   321A      1.122634   322A      1.131138  
     323A      1.137334   324A      1.143426   325A      1.144583  
     326A      1.150954   327A      1.153815   328A      1.159885  
     329A      1.166715   330A      1.170129   331A      1.176797  
     332A      1.184715   333A      1.189801   334A      1.211533  
     335A      1.215017   336A      1.225107   337A      1.229480  
     338A      1.234860   339A      1.237148   340A      1.244786  
     341A      1.249102   342A      1.256692   343A      1.267630  
     344A      1.270048   345A      1.274010   346A      1.282609  
     347A      1.290643   348A      1.296957   349A      1.302225  
     350A      1.305829   351A      1.313696   352A      1.319547  
     353A      1.326532   354A      1.334014   355A      1.336035  
     356A      1.348572   357A      1.358311   358A      1.359454  
     359A      1.366272   360A      1.382689   361A      1.384398  
     362A      1.392858   363A      1.398858   364A      1.401853  
     365A      1.407033   366A      1.417761   367A      1.427295  
     368A      1.431994   369A      1.433769   370A      1.447129  
     371A      1.449431   372A      1.453638   373A      1.470035  
     374A      1.472928   375A      1.484966   376A      1.488601  
     377A      1.501850   378A      1.507414   379A      1.516972  
     380A      1.526385   381A      1.528926   382A      1.532418  
     383A      1.541831   384A      1.543548   385A      1.553800  
     386A      1.559017   387A      1.562341   388A      1.568119  
     389A      1.582156   390A      1.587193   391A      1.601906  
     392A      1.606647   393A      1.618482   394A      1.627650  
     395A      1.639192   396A      1.651597   397A      1.655598  
     398A      1.663372   399A      1.667317   400A      1.674521  
     401A      1.677200   402A      1.682366   403A      1.690549  
     404A      1.692595   405A      1.709488   406A      1.718861  
     407A      1.720932   408A      1.729045   409A      1.733696  
     410A      1.737121   411A      1.750127   412A      1.757598  
     413A      1.767326   414A      1.778571   415A      1.786682  
     416A      1.797216   417A      1.802645   418A      1.808747  
     419A      1.814405   420A      1.820849   421A      1.833337  
     422A      1.842316   423A      1.854194   424A      1.857510  
     425A      1.858931   426A      1.862529   427A      1.872997  
     428A      1.879633   429A      1.886959   430A      1.898395  
     431A      1.908913   432A      1.909173   433A      1.914242  
     434A      1.919209   435A      1.929503   436A      1.937337  
     437A      1.943581   438A      1.948533   439A      1.954177  
     440A      1.962600   441A      1.966378   442A      1.969056  
     443A      1.986773   444A      1.988458   445A      2.001555  
     446A      2.015110   447A      2.023576   448A      2.026896  
     449A      2.031642   450A      2.046149   451A      2.049439  
     452A      2.054191   453A      2.068987   454A      2.075837  
     455A      2.090389   456A      2.093118   457A      2.097423  
     458A      2.107687   459A      2.112912   460A      2.133475  
     461A      2.156955   462A      2.164225   463A      2.170611  
     464A      2.176240   465A      2.193308   466A      2.198363  
     467A      2.201733   468A      2.212031   469A      2.218190  
     470A      2.229446   471A      2.242284   472A      2.246867  
     473A      2.262656   474A      2.267616   475A      2.269611  
     476A      2.290298   477A      2.304227   478A      2.312542  
     479A      2.321076   480A      2.333059   481A      2.342349  
     482A      2.353075   483A      2.362767   484A      2.373879  
     485A      2.391142   486A      2.396144   487A      2.406458  
     488A      2.415889   489A      2.423235   490A      2.428337  
     491A      2.435337   492A      2.447276   493A      2.459215  
     494A      2.478910   495A      2.489094   496A      2.503913  
     497A      2.510205   498A      2.516811   499A      2.539248  
     500A      2.550743   501A      2.568030   502A      2.576060  
     503A      2.589355   504A      2.601163   505A      2.613090  
     506A      2.628511   507A      2.645772   508A      2.675211  
     509A      2.688869   510A      2.707187   511A      2.727083  
     512A      2.740485   513A      2.756426   514A      2.766136  
     515A      2.779465   516A      2.802198   517A      2.810138  
     518A      2.831742   519A      2.841046   520A      2.868548  
     521A      2.898155   522A      2.900861   523A      2.927685  
     524A      2.937421   525A      2.955436   526A      2.970490  
     527A      2.979419   528A      2.983324   529A      3.015948  
     530A      3.027706   531A      3.038244   532A      3.042160  
     533A      3.052290   534A      3.062485   535A      3.067141  
     536A      3.086613   537A      3.116058   538A      3.123816  
     539A      3.144089   540A      3.157948   541A      3.162342  
     542A      3.168668   543A      3.177778   544A      3.194012  
     545A      3.196850   546A      3.209742   547A      3.214878  
     548A      3.235094   549A      3.247464   550A      3.248733  
     551A      3.255496   552A      3.264966   553A      3.276113  
     554A      3.281977   555A      3.300400   556A      3.308407  
     557A      3.321395   558A      3.335578   559A      3.338040  
     560A      3.346407   561A      3.351807   562A      3.362633  
     563A      3.371981   564A      3.374620   565A      3.385431  
     566A      3.395765   567A      3.400155   568A      3.409157  
     569A      3.419296   570A      3.421086   571A      3.433962  
     572A      3.441154   573A      3.448832   574A      3.462632  
     575A      3.476014   576A      3.482351   577A      3.492552  
     578A      3.500346   579A      3.511678   580A      3.514340  
     581A      3.529436   582A      3.533689   583A      3.540259  
     584A      3.551828   585A      3.558492   586A      3.577481  
     587A      3.581864   588A      3.590171   589A      3.605729  
     590A      3.611810   591A      3.617769   592A      3.637259  
     593A      3.647820   594A      3.651724   595A      3.655630  
     596A      3.663013   597A      3.668315   598A      3.677206  
     599A      3.694712   600A      3.703410   601A      3.710680  
     602A      3.721956   603A      3.723072   604A      3.735135  
     605A      3.736811   606A      3.750832   607A      3.759133  
     608A      3.763920   609A      3.769109   610A      3.780563  
     611A      3.784040   612A      3.795457   613A      3.797619  
     614A      3.805542   615A      3.823456   616A      3.826132  
     617A      3.827724   618A      3.846205   619A      3.854269  
     620A      3.859396   621A      3.866719   622A      3.875253  
     623A      3.887971   624A      3.896821   625A      3.900393  
     626A      3.910270   627A      3.919555   628A      3.927949  
     629A      3.948519   630A      3.958331   631A      3.969762  
     632A      3.971983   633A      3.983240   634A      3.987622  
     635A      3.992061   636A      4.010324   637A      4.021119  
     638A      4.024756   639A      4.038300   640A      4.054330  
     641A      4.060495   642A      4.066966   643A      4.071839  
     644A      4.079559   645A      4.085629   646A      4.098309  
     647A      4.106548   648A      4.107837   649A      4.118252  
     650A      4.128906   651A      4.141693   652A      4.150604  
     653A      4.156295   654A      4.164252   655A      4.185906  
     656A      4.192448   657A      4.197198   658A      4.205148  
     659A      4.208407   660A      4.212140   661A      4.228550  
     662A      4.231942   663A      4.235669   664A      4.246568  
     665A      4.253912   666A      4.259685   667A      4.272792  
     668A      4.279129   669A      4.287001   670A      4.293001  
     671A      4.301636   672A      4.311304   673A      4.328646  
     674A      4.335507   675A      4.345109   676A      4.358354  
     677A      4.365440   678A      4.370886   679A      4.374396  
     680A      4.396981   681A      4.402004   682A      4.404754  
     683A      4.409695   684A      4.421070   685A      4.439699  
     686A      4.449722   687A      4.464105   688A      4.473528  
     689A      4.489779   690A      4.493438   691A      4.503718  
     692A      4.521279   693A      4.545171   694A      4.560767  
     695A      4.567872   696A      4.575732   697A      4.591715  
     698A      4.598930   699A      4.619230   700A      4.631885  
     701A      4.646677   702A      4.657141   703A      4.660620  
     704A      4.663895   705A      4.676766   706A      4.698489  
     707A      4.711696   708A      4.733578   709A      4.747206  
     710A      4.752269   711A      4.760551   712A      4.769598  
     713A      4.782330   714A      4.794799   715A      4.809811  
     716A      4.832610   717A      4.837024   718A      4.844787  
     719A      4.857333   720A      4.865498   721A      4.889905  
     722A      4.907456   723A      4.910985   724A      4.928790  
     725A      4.945331   726A      4.952150   727A      4.961897  
     728A      4.970282   729A      4.973203   730A      4.993266  
     731A      5.008376   732A      5.016941   733A      5.018437  
     734A      5.024437   735A      5.048023   736A      5.062385  
     737A      5.071096   738A      5.083144   739A      5.096675  
     740A      5.121702   741A      5.143089   742A      5.147533  
     743A      5.161640   744A      5.174734   745A      5.204411  
     746A      5.211214   747A      5.216856   748A      5.221040  
     749A      5.242301   750A      5.274819   751A      5.282022  
     752A      5.292508   753A      5.308881   754A      5.329210  
     755A      5.355800   756A      5.385304   757A      5.391896  
     758A      5.394712   759A      5.418250   760A      5.439568  
     761A      5.464770   762A      5.487512   763A      5.496459  
     764A      5.522812   765A      5.549759   766A      5.567353  
     767A      5.586406   768A      5.613399   769A      5.627613  
     770A      5.629461   771A      5.667979   772A      5.689645  
     773A      5.693053   774A      5.706500   775A      5.721904  
     776A      5.760468   777A      5.782463   778A      5.835890  
     779A      5.843286   780A      5.877843   781A      5.937965  
     782A      5.948330   783A      5.988126   784A      6.003354  
     785A      6.032108   786A      6.050835   787A      6.108390  
     788A      6.141345   789A      6.193574   790A      6.197433  
     791A      6.252798   792A      6.287744   793A      6.307595  
     794A      6.369501   795A      6.375384   796A      6.417567  
     797A      6.426376   798A      6.485584   799A      6.542986  
     800A      6.578792   801A      6.598291   802A      6.617530  
     803A      6.672351   804A      6.750708   805A      6.769469  
     806A      6.785282   807A      6.812734   808A      6.840810  
     809A      6.892319   810A      6.909421   811A      6.943718  
     812A      6.980656   813A      7.083523   814A      7.152684  
     815A      7.289635   816A      7.315069   817A      7.359514  
     818A      7.469115   819A      7.545814   820A      7.576362  
     821A      7.584264   822A      7.642501   823A      7.896051  
     824A      8.275538   825A      8.530000   826A      8.983318  
     827A      9.006383   828A      9.154163   829A      9.170846  
     830A      9.304383   831A      9.407369   832A      9.442973  
     833A      9.501952   834A      9.547873   835A      9.608608  
     836A      9.926229   837A      9.990197   838A     15.866762  
     839A     16.174385   840A     16.451269   841A     16.663267  
     842A     16.783792   843A     16.996390   844A     18.799986  
     845A     19.395542   846A     19.515644   847A     19.722381  
     848A     20.090760   849A     20.141121   850A     20.598354  
     851A     21.678285  

    Final Occupation by Irrep:
              A 
    DOCC [    49 ]

  Energy converged.

  @DF-RHF Final Energy:  -650.55998046530283

   => Energetics <=

    Nuclear Repulsion Energy =            831.9723458653746775
    One-Electron Energy =               -2523.9476478857532129
    Two-Electron Energy =                1041.4153215550757068
    DFT Exchange-Correlation Energy =       0.0000000000000000
    Empirical Dispersion Energy =           0.0000000000000000
    PCM Polarization Energy =               0.0000000000000000
    EFP Energy =                            0.0000000000000000
    Total Energy =                       -650.5599804653027149



Properties will be evaluated at   0.000000,   0.000000,   0.000000 Bohr

Properties computed using the SCF density matrix

  Nuclear Dipole Moment: (a.u.)
     X:     1.2751      Y:    -0.4912      Z:    -6.6419

  Electronic Dipole Moment: (a.u.)
     X:     1.4331      Y:    -0.9414      Z:     4.5177

  Dipole Moment: (a.u.)
     X:     2.7083      Y:    -1.4326      Z:    -2.1242     Total:     3.7282

  Dipole Moment: (Debye)
     X:     6.8837      Y:    -3.6413      Z:    -5.3991     Total:     9.4760


*** tstop() called on gpu-2-14.local at Sat Nov 11 18:25:46 2017
Module time:
	user time   =    1317.07 seconds =      21.95 minutes
	system time =      59.25 seconds =       0.99 minutes
	total time  =        565 seconds =       9.42 minutes
Total time:
	user time   =    1317.07 seconds =      21.95 minutes
	system time =      59.25 seconds =       0.99 minutes
	total time  =        565 seconds =       9.42 minutes

  //>>>>>>>>>>>>>>>>>>>>>>>>>>>>>>>>>>>//
  //               DFMP2               //
  //<<<<<<<<<<<<<<<<<<<<<<<<<<<<<<<<<<<//

   => Loading Basis Set <=

    Name: (AUG-CC-PVTZ AUX)
    Role: RIFIT
    Keyword: DF_BASIS_MP2
    atoms 1-11  entry C          line   147 file /cbio/jclab/home/chayas/anaconda/envs/py35/share/psi4/basis/aug-cc-pvtz-ri.gbs 
    atoms 12    entry N          line   205 file /cbio/jclab/home/chayas/anaconda/envs/py35/share/psi4/basis/aug-cc-pvtz-ri.gbs 
    atoms 13    entry O          line   263 file /cbio/jclab/home/chayas/anaconda/envs/py35/share/psi4/basis/aug-cc-pvtz-ri.gbs 
    atoms 14    entry F          line   321 file /cbio/jclab/home/chayas/anaconda/envs/py35/share/psi4/basis/aug-cc-pvtz-ri.gbs 
    atoms 15-23 entry H          line    29 file /cbio/jclab/home/chayas/anaconda/envs/py35/share/psi4/basis/aug-cc-pvtz-ri.gbs 

	 --------------------------------------------------------
	                          DF-MP2                         
	      2nd-Order Density-Fitted Moller-Plesset Theory     
	              RMP2 Wavefunction,   8 Threads             
	                                                         
	        Rob Parrish, Justin Turney, Andy Simmonett,      
	           Ed Hohenstein, and C. David Sherrill          
	 --------------------------------------------------------

   => Auxiliary Basis Set <=

  Basis Set: (AUG-CC-PVTZ AUX)
    Blend: AUG-CC-PVTZ-RI
    Number of shells: 518
    Number of basis function: 1898
    Number of Cartesian functions: 2399
    Spherical Harmonics?: true
    Max angular momentum: 4

	 --------------------------------------------------------
	                 NBF =   851, NAUX =  1898
	 --------------------------------------------------------
	   CLASS    FOCC     OCC    AOCC    AVIR     VIR    FVIR
	   PAIRS       0      49      49     802     802       0
	 --------------------------------------------------------


         ------------------------------------------------------------
                                     CPHF                           
                                  Rob Parrish                       
         ------------------------------------------------------------

  ==> Geometry <==

    Molecular point group: c1
    Full point group: C1

    Geometry (in Angstrom), charge = 1, multiplicity = 1:

       Center              X                  Y                   Z               Mass       
    ------------   -----------------  -----------------  -----------------  -----------------
           C         -1.338093331975     0.763869155993    -0.788441598818    12.000000000000
           C         -2.416093331975     1.336869155993    -0.115441598818    12.000000000000
           C          1.492906668025    -1.505130844007    -0.215441598818    12.000000000000
           C          1.211906668025     0.083869155993    -2.004441598818    12.000000000000
           C         -1.423093331975     0.720869155993     1.999558401182    12.000000000000
           C          2.559906668025    -2.054130844007    -0.911441598818    12.000000000000
           C          2.286906668025    -0.505130844007    -2.655441598818    12.000000000000
           C         -0.302093331975     0.168869155993    -0.068441598818    12.000000000000
           C          0.814906668025    -0.425130844007    -0.771441598818    12.000000000000
           C         -2.459093331975     1.315869155993     1.278558401182    12.000000000000
           C         -0.345093331975     0.147869155993     1.325558401182    12.000000000000
           N          2.921906668025    -1.545130844007    -2.096441598818    14.003074004780
           O         -3.512093331975     1.875869155993     1.935558401182    15.994914619560
           F          0.642906668025    -0.420130844007     2.032558401182    18.998403224000
           H         -1.319093331975     0.787869155993    -1.875441598818     1.007825032070
           H         -3.221093331975     1.797869155993    -0.682441598818     1.007825032070
           H          1.204906668025    -1.922130844007     0.745558401182     1.007825032070
           H          0.701906668025     0.925869155993    -2.461441598818     1.007825032070
           H         -1.451093331975     0.700869155993     3.085558401182     1.007825032070
           H          3.142906668025    -2.893130844007    -0.557441598818     1.007825032070
           H          2.663906668025    -0.178130844007    -3.613441598818     1.007825032070
           H          3.709906668025    -1.962130844007    -2.591441598818     1.007825032070
           H         -3.398093331975     1.781869155993     2.894558401182     1.007825032070

  Nuclear repulsion =  831.972345865374677
  Reference energy  = -650.559980465302829

  ==> Basis Set <==

  Basis Set: AUG-CC-PVTZ
    Blend: AUG-CC-PVTZ
    Number of shells: 277
    Number of basis function: 851
    Number of Cartesian functions: 995
    Spherical Harmonics?: true
    Max angular momentum: 3

  ==> CGRSolver (by Rob Parrish) <==

   Number of roots    =         1
   Preconditioning    =    JACOBI
   Convergence cutoff =     1E-06
   Maximum iterations =       100

  ==> CPHFRHamiltonian (by Rob Parrish) <== 

  ==> DFJK: Density-Fitted J/K Matrices <==

    J tasked:                  Yes
    K tasked:                  Yes
    wK tasked:                  No
    OpenMP threads:              8
    Integrals threads:           8
    Memory (MB):              3576
    Algorithm:                Disk
    Integral Cache:           NONE
    Schwarz Cutoff:          1E-12
    Fitting Condition:       1E-12

   => Auxiliary Basis Set <=

  Basis Set: (AUG-CC-PVTZ AUX)
    Blend: AUG-CC-PVTZ-JKFIT
    Number of shells: 546
    Number of basis function: 1870
    Number of Cartesian functions: 2329
    Spherical Harmonics?: true
    Max angular momentum: 4

  ==> CPHF Iterations <==

  => Iterations <=

             Iter  Converged  Remaining    Residual
  CGR           1          0          1   1.256E-01
  CGR           2          0          1   5.023E-02
  CGR           3          0          1   2.942E-02
  CGR           4          0          1   9.783E-03
  CGR           5          0          1   4.486E-03
  CGR           6          0          1   1.994E-03
  CGR           7          0          1   6.352E-04
  CGR           8          0          1   2.756E-04
  CGR           9          0          1   1.222E-04
  CGR          10          0          1   4.565E-05
  CGR          11          0          1   1.823E-05
  CGR          12          0          1   5.952E-06
  CGR          13          0          1   2.064E-06
  CGR          14          1          0   6.716E-07

    CGRSolver converged.

  ==> DFCorrGrad: Density-Fitted Correlated Gradients <==

    OpenMP threads:              8
    Integrals threads:           8
    Memory (MB):              3576
    Schwarz Cutoff:          0E+00
    Fitting Condition:       1E-12

   => Auxiliary Basis Set <=

  Basis Set: (AUG-CC-PVTZ AUX)
    Blend: AUG-CC-PVTZ-JKFIT
    Number of shells: 546
    Number of basis function: 1870
    Number of Cartesian functions: 2329
    Spherical Harmonics?: true
    Max angular momentum: 4

	-----------------------------------------------------------
	 ==================> DF-MP2 Energies <==================== 
	-----------------------------------------------------------
	 Reference Energy          =    -650.5599804653028286 [Eh]
	 Singles Energy            =      -0.0000000000000001 [Eh]
	 Same-Spin Energy          =      -0.6701475689622637 [Eh]
	 Opposite-Spin Energy      =      -2.0153144725983663 [Eh]
	 Correlation Energy        =      -2.6854620415606298 [Eh]
	 Total Energy              =    -653.2454425068634691 [Eh]
	-----------------------------------------------------------
	 ================> DF-SCS-MP2 Energies <================== 
	-----------------------------------------------------------
	 SCS Same-Spin Scale       =       0.3333333333333333 [-]
	 SCS Opposite-Spin Scale   =       1.2000000000000000 [-]
	 SCS Same-Spin Energy      =      -0.2233825229874212 [Eh]
	 SCS Opposite-Spin Energy  =      -2.4183773671180395 [Eh]
	 SCS Correlation Energy    =      -2.6417598901054609 [Eh]
	 SCS Total Energy          =    -653.2017403554083330 [Eh]
	-----------------------------------------------------------


  -Total Gradient:
     Atom            X                  Y                   Z
    ------   -----------------  -----------------  -----------------
       1        0.013866007884    -0.011488766156    -0.013252057699
       2        0.000349623542    -0.000318535381     0.010758428911
       3       -0.018387537192     0.012564197599     0.007438814147
       4       -0.014834725318     0.009478168433     0.011986243066
       5       -0.012946551884     0.006716413467     0.001341807183
       6        0.004695027297     0.003436551140    -0.011279546829
       7        0.008851424851    -0.009340758257     0.003699364501
       8       -0.012907722147     0.006878575718     0.004269426901
       9        0.012427471030    -0.007462621178    -0.009208555021
      10        0.000994884994    -0.000492385571    -0.013524014652
      11        0.028339295762    -0.010973176842    -0.002562294513
      12       -0.001695265908    -0.000133278352     0.001408734857
      13       -0.008173912492     0.004413271900     0.009306866459
      14        0.002570645240    -0.005516253002    -0.002350680935
      15        0.000884329723     0.001861748841    -0.006793030651
      16       -0.003291342650     0.002486905737    -0.005221602936
      17       -0.003157492695    -0.000708596822     0.010138881998
      18       -0.005011025176     0.003883079422    -0.002513537988
      19       -0.001715002688     0.000349029544     0.004692910574
      20        0.002582887848    -0.001736412835    -0.000291031174
      21        0.001505227151    -0.000760855608    -0.001826255140
      22        0.005041512026    -0.002821888884    -0.003319850478
      23        0.000012240801    -0.000314412904     0.007100979417


*** tstop() called on gpu-2-14.local at Sat Nov 11 19:07:11 2017
Module time:
	user time   =    6479.39 seconds =     107.99 minutes
	system time =     154.99 seconds =       2.58 minutes
	total time  =       3050 seconds =      50.83 minutes
Total time:
	user time   =    6479.39 seconds =     107.99 minutes
	system time =     154.99 seconds =       2.58 minutes
	total time  =       3050 seconds =      50.83 minutes

			-----------------------------------------
			 OPTKING 2.0: for geometry optimizations 
			  - R.A. King,  Bethel University        
			-----------------------------------------

	Internal coordinates to be generated automatically.
	Detected frag 1 with atoms:  1 2 3 4 5 6 7 8 9 10 11 12 13 14 15 16 17 18 19 20
	 21 22 23
	---Fragment 1 Bond Connectivity---
	 1 : 2 8 15
	 2 : 1 10 16
	 3 : 6 9 17
	 4 : 7 9 18
	 5 : 10 11 19
	 6 : 3 12 20
	 7 : 4 12 21
	 8 : 1 9 11
	 9 : 3 4 8
	 10 : 2 5 13
	 11 : 5 8 14
	 12 : 6 7 22
	 13 : 10 23
	 14 : 11
	 15 : 1
	 16 : 2
	 17 : 3
	 18 : 4
	 19 : 5
	 20 : 6
	 21 : 7
	 22 : 12
	 23 : 13

	Assuming in current code that numbering for constraints corresponds to unified fragment.
	Fixed dihedral atom list: 
	     1     8     9     3
	---Fragment 1 Geometry and Gradient---
	 C          -2.5286299377        1.4435035062       -1.4899386935
	 C          -4.5657547089        2.5263165803       -0.2181530061
	 C           2.8211847445       -2.8442850893       -0.4071256194
	 C           2.2901717012        0.1584897358       -3.7878456711
	 C          -2.6892566590        1.3622452825        3.7786177649
	 C           4.8375225283       -3.8817447363       -1.7223750079
	 C           4.3216272940       -0.9545589564       -5.0180573836
	 C          -0.5708736640        0.3191164571       -0.1293358779
	 C           1.5399504264       -0.8033808658       -1.4578133493
	 C          -4.6470129326        2.4866323315        2.4161252231
	 C          -0.6521318877        0.2794322083        2.5049423514
	 N           5.5216033884       -2.9198741346       -3.9617004754
	 O          -6.6368945506        3.5448789660        3.6576752924
	 F           1.2149175316       -0.7939322352        3.8409787273
	 H          -2.4927251411        1.4888569334       -3.5440710000
	 H          -6.0869842459        3.3974803276       -1.2896277235
	 H           2.2769436183       -3.6323008867        1.4089011943
	 H           1.3264113734        1.7496391397       -4.6514505139
	 H          -2.7421689907        1.3244507598        5.8308603453
	 H           5.9392328638       -5.4672249618       -1.0534119568
	 H           5.0340540461       -0.3366185110       -6.8284150189
	 H           7.0107075811       -3.7078899321       -4.8971149111
	 H          -6.4214657714        3.3672447095        5.4699226539
	             0.0138660079       -0.0114887662       -0.0132520577
	             0.0003496235       -0.0003185354        0.0107584289
	            -0.0183875372        0.0125641976        0.0074388141
	            -0.0148347253        0.0094781684        0.0119862431
	            -0.0129465519        0.0067164135        0.0013418072
	             0.0046950273        0.0034365511       -0.0112795468
	             0.0088514249       -0.0093407583        0.0036993645
	            -0.0129077221        0.0068785757        0.0042694269
	             0.0124274710       -0.0074626212       -0.0092085550
	             0.0009948850       -0.0004923856       -0.0135240147
	             0.0283392958       -0.0109731768       -0.0025622945
	            -0.0016952659       -0.0001332784        0.0014087349
	            -0.0081739125        0.0044132719        0.0093068665
	             0.0025706452       -0.0055162530       -0.0023506809
	             0.0008843297        0.0018617488       -0.0067930307
	            -0.0032913427        0.0024869057       -0.0052216029
	            -0.0031574927       -0.0007085968        0.0101388820
	            -0.0050110252        0.0038830794       -0.0025135380
	            -0.0017150027        0.0003490295        0.0046929106
	             0.0025828878       -0.0017364128       -0.0002910312
	             0.0015052272       -0.0007608556       -0.0018262551
	             0.0050415120       -0.0028218889       -0.0033198505
	             0.0000122408       -0.0003144129        0.0071009794

	Previous optimization step data not found.  Starting new optimization.

	---Fragment 1 Intrafragment Coordinates---
	 - Coordinate -           - BOHR/RAD -       - ANG/DEG -
	 R(1,2)           =         2.634350	       1.394038
	 R(1,8)           =         2.635962	       1.394891
	 R(1,15)          =         2.054947	       1.087431
	 R(2,10)          =         2.635830	       1.394821
	 R(2,16)          =         2.054537	       1.087214
	 R(3,6)           =         2.621416	       1.387194
	 R(3,9)           =         2.628839	       1.391122
	 R(3,17)          =         2.053076	       1.086441
	 R(4,7)           =         2.622806	       1.387929
	 R(4,9)           =         2.630034	       1.391754
	 R(4,18)          =         2.050952	       1.085317
	 R(5,10)          =         2.636938	       1.395407
	 R(5,11)          =         2.635263	       1.394521
	 R(5,19)          =         2.053272	       1.086545
	 R(6,12)          =         2.531351	       1.339534
	 R(6,20)          =         2.043288	       1.081261
	 R(7,12)          =         2.533436	       1.340636
	 R(7,21)          =         2.041273	       1.080195
	 R(8,9)           =         2.735038	       1.447320
	 R(8,11)          =         2.635830	       1.394821
	 R(10,13)         =         2.573123	       1.361638
	 R(11,14)         =         2.534359	       1.341125
	 R(12,22)         =         1.927019	       1.019734
	 R(13,23)         =         1.833631	       0.970316
	 B(1,2,10)        =         2.094553	     120.009056
	 B(1,2,16)        =         2.088723	     119.675016
	 B(1,8,9)         =         2.091569	     119.838095
	 B(1,8,11)        =         2.093692	     119.959722
	 B(2,1,8)         =         2.094940	     120.031219
	 B(2,1,15)        =         2.079469	     119.144799
	 B(2,10,5)        =         2.094306	     119.994870
	 B(2,10,13)       =         2.094247	     119.991510
	 B(3,6,12)        =         2.095935	     120.088226
	 B(3,6,20)        =         2.162235	     123.886915
	 B(3,9,4)         =         2.093234	     119.933468
	 B(3,9,8)         =         2.095129	     120.042038
	 B(4,7,12)        =         2.094967	     120.032784
	 B(4,7,21)        =         2.162575	     123.906414
	 B(4,9,8)         =         2.094823	     120.024493
	 B(5,10,13)       =         2.094633	     120.013619
	 B(5,11,8)        =         2.095181	     120.045019
	 B(5,11,14)       =         2.081414	     119.256220
	 B(6,3,9)         =         2.073276	     118.789948
	 B(6,3,17)        =         2.089550	     119.722380
	 B(6,12,7)        =         2.136054	     122.386872
	 B(6,12,22)       =         2.074720	     118.872676
	 B(7,4,9)         =         2.072905	     118.768687
	 B(7,4,18)        =         2.089427	     119.715341
	 B(7,12,22)       =         2.072411	     118.740376
	 B(8,1,15)        =         2.108776	     120.823969
	 B(8,11,14)       =         2.106591	     120.698759
	 B(9,3,17)        =         2.120360	     121.487659
	 B(9,4,18)        =         2.120853	     121.515925
	 B(9,8,11)        =         2.097924	     120.202184
	 B(10,2,16)       =         2.099909	     120.315896
	 B(10,5,11)       =         2.093699	     119.960108
	 B(10,5,19)       =         2.100355	     120.341451
	 B(10,13,23)      =         1.924294	     110.253909
	 B(11,5,19)       =         2.089132	     119.698439
	 B(12,6,20)       =         2.025016	     116.024847
	 B(12,7,21)       =         2.025643	     116.060770
	 D(1,2,10,5)      =        -0.000325	      -0.018609
	 D(1,2,10,13)     =         3.141388	     179.988267
	 D(1,8,9,3)       =        -2.618119	    -150.007160
	 D(1,8,9,4)       =         0.523656	      30.003259
	 D(1,8,11,5)      =         0.000325	       0.018608
	 D(1,8,11,14)     =        -3.141528	    -179.996269
	 D(2,1,8,9)       =         3.141277	     179.981897
	 D(2,1,8,11)      =        -0.000348	      -0.019945
	 D(2,10,5,11)     =         0.000301	       0.017261
	 D(2,10,5,19)     =        -3.141029	    -179.967685
	 D(2,10,13,23)    =         3.141285	     179.982383
	 D(3,6,12,7)      =         0.000102	       0.005829
	 D(3,6,12,22)     =         3.139917	     179.904015
	 D(3,9,4,7)       =        -0.000539	      -0.030867
	 D(3,9,4,18)      =        -3.140764	    -179.952493
	 D(3,9,8,11)      =         0.523506	      29.994685
	 D(4,7,12,6)      =        -0.000582	      -0.033364
	 D(4,7,12,22)     =        -3.140400	    -179.931679
	 D(4,9,3,6)       =         0.000076	       0.004356
	 D(4,9,3,17)      =         3.140931	     179.962116
	 D(4,9,8,11)      =        -2.617905	    -149.994895
	 D(5,10,2,16)     =         3.140149	     179.917291
	 D(5,10,13,23)    =        -0.000187	      -0.010740
	 D(5,11,8,9)      =        -3.141300	    -179.983240
	 D(6,3,9,8)       =        -3.141335	    -179.985234
	 D(6,12,7,21)     =        -3.141096	    -179.971546
	 D(7,4,9,8)       =         3.140872	     179.958725
	 D(7,12,6,20)     =         3.141046	     179.968688
	 D(8,1,2,10)      =         0.000348	       0.019955
	 D(8,1,2,16)      =        -3.140133	    -179.916358
	 D(8,9,3,17)      =        -0.000480	      -0.027474
	 D(8,9,4,18)      =         0.000647	       0.037099
	 D(8,11,5,10)     =        -0.000301	      -0.017270
	 D(8,11,5,19)     =         3.141030	     179.967774
	 D(9,3,6,12)      =         0.000153	       0.008746
	 D(9,3,6,20)      =        -3.140738	    -179.951050
	 D(9,4,7,12)      =         0.000790	       0.045254
	 D(9,4,7,21)      =         3.141215	     179.978342
	 D(9,8,1,15)      =         0.000403	       0.023110
	 D(9,8,11,14)     =         0.000033	       0.001883
	 D(10,2,1,15)     =         3.141234	     179.979432
	 D(10,5,11,14)    =         3.141547	     179.997392
	 D(11,5,10,13)    =        -3.141411	    -179.989616
	 D(11,8,1,15)     =        -3.141221	    -179.978731
	 D(12,6,3,17)     =        -3.140716	    -179.949777
	 D(12,7,4,18)     =         3.141040	     179.968324
	 D(13,10,2,16)    =        -0.001324	      -0.075833
	 D(13,10,5,19)    =         0.000444	       0.025437
	 D(14,11,5,19)    =        -0.000307	      -0.017564
	 D(15,1,2,16)     =         0.000753	       0.043120
	 D(17,3,6,20)     =         0.001578	       0.090427
	 D(18,4,7,21)     =        -0.001721	      -0.098588
	 D(20,6,12,22)    =        -0.002323	      -0.133126
	 D(21,7,12,22)    =         0.002271	       0.130140
	 R(3,14)          =         4.983014	       2.636898

	Current energy   :      -653.2454425069

	Generating empirical Hessian (Schlegel '84) for each fragment.
	Adding user-defined constraint: Fragment 1; Coordinate 64:
		Value =    -2.618119; Fixed value    =    -2.617994
		Force =     0.000062; Force constant =     0.500000
	Removing off-diagonal coupling between coordinate 64 and others.
	Taking RFO optimization step.
	Going to follow RFO solution 1.
	Using RFO vector 1.

	Determining step-restricting scale parameter for RS-RFO.
	Maximum step size allowed    0.10000

	 Iter      |step|        alpha        rfo_root  
	------------------------------------------------
	    0     0.28028       1.00000           1
	    1     0.19728       4.25710           1
	    2     0.14817      12.05219           1
	    3     0.11833      25.93391           1
	    4     0.10398      38.98976           1
	    5     0.10025      43.55954           1
	    6     0.10000      43.89114           1
	------------------------------------------------
	Norm of target step-size    0.10000
	Projected energy change by RFO approximation:        -0.0052809549

	Back-transformation to cartesian coordinates...
	Could not converge backtransformation.
	Using first guess instead.

	--- Internal Coordinate Step in ANG or DEG, aJ/ANG or AJ/DEG ---
	 ---------------------------------------------------------------------------
	   Coordinate                Previous        Force       Change         New 
	   ----------                --------       ------       ------       ------
	    1 R(1,2)          =      1.394038    -0.111206    -0.010227     1.383811
	    2 R(1,8)          =      1.394891     0.021670     0.002268     1.397159
	    3 R(1,15)         =      1.087431    -0.056410    -0.006177     1.081254
	    4 R(2,10)         =      1.394821    -0.048042    -0.004494     1.390328
	    5 R(2,16)         =      1.087214    -0.051201    -0.005592     1.081623
	    6 R(3,6)          =      1.387194    -0.103066    -0.009275     1.377919
	    7 R(3,9)          =      1.391122     0.078458     0.007434     1.398555
	    8 R(3,17)         =      1.086441    -0.083024    -0.009049     1.077392
	    9 R(4,7)          =      1.387929    -0.117062    -0.010664     1.377265
	   10 R(4,9)          =      1.391754     0.060143     0.005676     1.397430
	   11 R(4,18)         =      1.085317    -0.052939    -0.005787     1.079530
	   12 R(5,10)         =      1.395407    -0.029171    -0.002789     1.392618
	   13 R(5,11)         =      1.394521    -0.147548    -0.013526     1.380995
	   14 R(5,19)         =      1.086545    -0.038955    -0.004207     1.082338
	   15 R(6,12)         =      1.339534     0.022872     0.001764     1.341297
	   16 R(6,20)         =      1.081261    -0.021789    -0.002368     1.078894
	   17 R(7,12)         =      1.340636     0.012368     0.000862     1.341498
	   18 R(7,21)         =      1.080195    -0.015774    -0.001688     1.078508
	   19 R(8,9)          =      1.447320     0.047838     0.005221     1.452540
	   20 R(8,11)         =      1.394821    -0.034276    -0.002787     1.392034
	   21 R(10,13)        =      1.361638    -0.131114    -0.010837     1.350801
	   22 R(11,14)        =      1.341125    -0.026883    -0.002106     1.339020
	   23 R(12,22)        =      1.019734    -0.054881    -0.005221     1.014513
	   24 R(13,23)        =      0.970316    -0.058083    -0.004753     0.965563
	   25 B(1,2,10)       =    120.009056    -0.000149    -0.247468   119.761589
	   26 B(1,2,16)       =    119.675016     0.000257     0.477403   120.152419
	   27 B(1,8,9)        =    119.838095     0.000729     1.069969   120.908064
	   28 B(1,8,11)       =    119.959722    -0.000940    -1.476244   118.483477
	   29 B(2,1,8)        =    120.031219     0.000459     0.796972   120.828191
	   30 B(2,1,15)       =    119.144799    -0.000217    -0.378193   118.766606
	   31 B(2,10,5)       =    119.994870     0.000097     0.134819   120.129690
	   32 B(2,10,13)      =    119.991510    -0.000961    -1.506261   118.485250
	   33 B(3,6,12)       =    120.088226    -0.000161    -0.281704   119.806523
	   34 B(3,6,20)       =    123.886915    -0.000045    -0.101992   123.784923
	   35 B(3,9,4)        =    119.933468    -0.000761    -1.185916   118.747552
	   36 B(3,9,8)        =    120.042038     0.000463     0.765707   120.807745
	   37 B(4,7,12)       =    120.032784    -0.000220    -0.413403   119.619382
	   38 B(4,7,21)       =    123.906414    -0.000010    -0.022724   123.883689
	   39 B(4,9,8)        =    120.024493     0.000298     0.420193   120.444686
	   40 B(5,10,13)      =    120.013619     0.000864     1.371442   121.385060
	   41 B(5,11,8)       =    120.045019     0.000804     1.258085   121.303104
	   42 B(5,11,14)      =    119.256220    -0.000159    -0.299318   118.956903
	   43 B(6,3,9)        =    118.789948     0.000373     0.647275   119.437222
	   44 B(6,3,17)       =    119.722380    -0.000388    -0.718916   119.003464
	   45 B(6,12,7)       =    122.386872     0.000225     0.328175   122.715047
	   46 B(6,12,22)      =    118.872676    -0.000113    -0.165212   118.707464
	   47 B(7,4,9)        =    118.768687     0.000545     0.905553   119.674240
	   48 B(7,4,18)       =    119.715341    -0.000377    -0.659175   119.056166
	   49 B(7,12,22)      =    118.740376    -0.000112    -0.162937   118.577439
	   50 B(8,1,15)       =    120.823969    -0.000242    -0.419612   120.404357
	   51 B(8,11,14)      =    120.698759    -0.000645    -0.959775   119.738984
	   52 B(9,3,17)       =    121.487659     0.000015     0.071219   121.558878
	   53 B(9,4,18)       =    121.515925    -0.000168    -0.246967   121.268959
	   54 B(9,8,11)       =    120.202184     0.000211     0.406214   120.608397
	   55 B(10,2,16)      =    120.315896    -0.000108    -0.229945   120.085951
	   56 B(10,5,11)      =    119.960108    -0.000272    -0.466414   119.493695
	   57 B(10,5,19)      =    120.341451     0.000261     0.473813   120.815264
	   58 B(10,13,23)     =    110.253909    -0.000126    -0.247269   110.006640
	   59 B(11,5,19)      =    119.698439     0.000010    -0.007399   119.691040
	   60 B(12,6,20)      =    116.024847     0.000206     0.383638   116.408485
	   61 B(12,7,21)      =    116.060770     0.000230     0.436140   116.496910
	   62 D(1,2,10,5)     =     -0.018609    -0.000005    -0.067523    -0.086132
	   63 D(1,2,10,13)    =    179.988267    -0.000005    -0.069141   179.919126
	   64 D(1,8,9,3)      =   -150.007160     0.000009     0.084484  -149.922676
	   65 D(1,8,9,4)      =     30.003259     0.000011     0.121929    30.125189
	   66 D(1,8,11,5)     =      0.018608    -0.000005    -0.051643    -0.033036
	   67 D(1,8,11,14)    =   -179.996269     0.000024     0.332619  -179.663650
	   68 D(2,1,8,9)      =    179.981897    -0.000002    -0.006512   179.975385
	   69 D(2,1,8,11)     =     -0.019945    -0.000006    -0.094392    -0.114337
	   70 D(2,10,5,11)    =      0.017261    -0.000005    -0.075693    -0.058431
	   71 D(2,10,5,19)    =   -179.967685    -0.000007    -0.105915  -180.073601
	   72 D(2,10,13,23)   =    179.982383     0.000001     0.013176   179.995560
	   73 D(3,6,12,7)     =      0.005829    -0.000005    -0.059981    -0.054152
	   74 D(3,6,12,22)    =    179.904015    -0.000003    -0.040831   179.863184
	   75 D(3,9,4,7)      =     -0.030867     0.000001     0.012058    -0.018809
	   76 D(3,9,4,18)     =   -179.952493     0.000017     0.226371  -179.726122
	   77 D(3,9,8,11)     =     29.994685     0.000014     0.174266    30.168952
	   78 D(4,7,12,6)     =     -0.033364     0.000003     0.037486     0.004122
	   79 D(4,7,12,22)    =   -179.931679     0.000001     0.018362  -179.913317
	   80 D(4,9,3,6)      =      0.004356    -0.000002    -0.034366    -0.030010
	   81 D(4,9,3,17)     =    179.962116     0.000019     0.250548   180.212663
	   82 D(4,9,8,11)     =   -149.994895     0.000016     0.211712  -149.783183
	   83 D(5,10,2,16)    =    179.917291    -0.000006    -0.077102   179.840189
	   84 D(5,10,13,23)   =     -0.010740     0.000001     0.011627     0.000887
	   85 D(5,11,8,9)     =   -179.983240    -0.000009    -0.139238  -180.122479
	   86 D(6,3,9,8)      =   -179.985234    -0.000000     0.002290  -179.982944
	   87 D(6,12,7,21)    =   -179.971546    -0.000005    -0.071724  -180.043270
	   88 D(7,4,9,8)      =    179.958725    -0.000001    -0.024423   179.934301
	   89 D(7,12,6,20)    =    179.968688    -0.000009    -0.114887   179.853801
	   90 D(8,1,2,10)     =      0.019955     0.000011     0.153813     0.173768
	   91 D(8,1,2,16)     =   -179.916358     0.000012     0.163854  -179.752504
	   92 D(8,9,3,17)     =     -0.027474     0.000021     0.287204     0.259730
	   93 D(8,9,4,18)     =      0.037099     0.000015     0.189889     0.226988
	   94 D(8,11,5,10)    =     -0.017270     0.000011     0.135867     0.118597
	   95 D(8,11,5,19)    =    179.967774     0.000012     0.165820   180.133594
	   96 D(9,3,6,12)     =      0.008746     0.000004     0.057358     0.066104
	   97 D(9,3,6,20)     =   -179.951050     0.000009     0.116345  -179.834705
	   98 D(9,4,7,12)     =      0.045254    -0.000001    -0.012780     0.032473
	   99 D(9,4,7,21)     =    179.978342     0.000008     0.105222   180.083563
	  100 D(9,8,1,15)     =      0.023110     0.000021     0.290903     0.314013
	  101 D(9,8,11,14)    =      0.001883     0.000019     0.245024     0.246907
	  102 D(10,2,1,15)    =    179.979432    -0.000011    -0.138842   179.840591
	  103 D(10,5,11,14)   =    179.997392    -0.000018    -0.245357   179.752035
	  104 D(11,5,10,13)   =   -179.989616    -0.000006    -0.074229  -180.063845
	  105 D(11,8,1,15)    =   -179.978731     0.000016     0.203023  -179.775708
	  106 D(12,6,3,17)    =   -179.949777    -0.000017    -0.220553  -180.170330
	  107 D(12,7,4,18)    =    179.968324    -0.000017    -0.222040   179.746284
	  108 D(13,10,2,16)   =     -0.075833    -0.000006    -0.078720    -0.154553
	  109 D(13,10,5,19)   =      0.025437    -0.000008    -0.104452    -0.079015
	  110 D(14,11,5,19)   =     -0.017564    -0.000016    -0.215404    -0.232968
	  111 D(15,1,2,16)    =      0.043120    -0.000010    -0.128800    -0.085681
	  112 D(17,3,6,20)    =      0.090427    -0.000012    -0.161566    -0.071139
	  113 D(18,4,7,21)    =     -0.098588    -0.000008    -0.104038    -0.202626
	  114 D(20,6,12,22)   =     -0.133126    -0.000007    -0.095737    -0.228863
	  115 D(21,7,12,22)   =      0.130140    -0.000007    -0.090848     0.039292
	  116 R(3,14)         =      2.636898     0.059507     0.014197     2.651095
	 ---------------------------------------------------------------------------
	Successfully symmetrized geometry.
	 Forces used to impose fixed constraints are not included.
	  Forces zeroed: 64 

  ==> Convergence Check <==

  Measures of convergence in internal coordinates in au.
  Criteria marked as inactive (o), active & met (*), and active & unmet ( ).
  --------------------------------------------------------------------------------------------- ~
   Step     Total Energy     Delta E     MAX Force     RMS Force      MAX Disp      RMS Disp    ~
  --------------------------------------------------------------------------------------------- ~
    Convergence Criteria    1.00e-06 *    3.00e-04 *             o    1.20e-03 *             o  ~
  --------------------------------------------------------------------------------------------- ~
      1    -653.24544251   -6.53e+02      1.79e-02      5.06e-03 o    2.68e-02      9.28e-03 o  ~
  ---------------------------------------------------------------------------------------------

	Writing optimization data to binary file.
	Structure for next step:
	Cartesian Geometry (in Angstrom)
	    C    -1.3551970054   0.7697481347  -0.7715442402
	    C    -2.4242539153   1.3383683446  -0.1016776998
	    C     1.5047827516  -1.5157783154  -0.2231520594
	    C     1.2262403040   0.0741658595  -2.0073011127
	    C    -1.4215596290   0.7228926184   2.0035468940
	    C     2.5660135581  -2.0608013083  -0.9126442908
	    C     2.2936347294  -0.5040016188  -2.6578772016
	    C    -0.3078060298   0.1686827814  -0.0688734270
	    C     0.8149216181  -0.4291646732  -0.7702534061
	    C    -2.4584444446   1.3164654477   1.2880568384
	    C    -0.3623250561   0.1565735938   1.3220395249
	    N     2.9269871740  -1.5451473851  -2.0970758219
	    O    -3.5133714866   1.8804668372   1.9155081450
	    F     0.6312856746  -0.4068042945   2.0208363020
	    H    -1.3463255721   0.7935254017  -1.8524999406
	    H    -3.2312229497   1.7972891107  -0.6567453488
	    H     1.2241862627  -1.9419015906   0.7257726347
	    H     0.7258126228   0.9141368242  -2.4649096226
	    H    -1.4362634265   0.7006239937   3.0855554344
	    H     3.1446125174  -2.8995515322  -0.5580562003
	    H     2.6683775864  -0.1702645551  -3.6125320051
	    H     3.7120650140  -1.9580484605  -2.5894201360
	    H    -3.4122969333   1.7965153740   2.8720899667
			--------------------------
			 OPTKING Finished Execution 
			--------------------------

    Structure for next step:
    Molecular point group: c1
    Full point group: C1

    Geometry (in Angstrom), charge = 1, multiplicity = 1:

    C           -1.353940718809     0.768785188310    -0.770382094140
    C           -2.422997628704     1.337405398260    -0.100515553783
    C            1.506039038206    -1.516741261824    -0.221989913336
    C            1.227496590569     0.073202913147    -2.006138966619
    C           -1.420303342343     0.721929672037     2.004709040027
    C            2.567269844662    -2.061764254632    -0.911482144696
    C            2.294891016055    -0.504964565178    -2.656715055550
    C           -0.306549743238     0.167719835024    -0.067711280943
    C            0.816177904668    -0.430127619584    -0.769091259994
    C           -2.457188157975     1.315502501333     1.289218984463
    C           -0.361068769523     0.155610647451     1.323201670922
    N            2.928243460630    -1.546110331455    -2.095913675784
    O           -3.512115200025     1.879503890827     1.916670291115
    F            0.632541961231    -0.407767240858     2.021998448089
    H           -1.345069285462     0.792562455314    -1.851337794535
    H           -3.229966663053     1.796326164339    -0.655583202760
    H            1.225442549334    -1.942864536997     0.726934780762
    H            0.727068909377     0.913173877779    -2.463747476562
    H           -1.435007139924     0.699661047293     3.086717580498
    H            3.145868804005    -2.900514478623    -0.556894054191
    H            2.669633873012    -0.171227501505    -3.611369859024
    H            3.713321300635    -1.959011406896    -2.588257989981
    H           -3.411040646681     1.795552427605     2.873252112735

gradient() will perform analytic gradient computation.

*** tstart() called on gpu-2-14.local
*** at Sat Nov 11 19:07:13 2017

    SCF Algorithm Type (re)set to DF.

*** tstart() called on gpu-2-14.local
*** at Sat Nov 11 19:07:13 2017

   => Loading Basis Set <=

    Name: AUG-CC-PVTZ
    Role: ORBITAL
    Keyword: BASIS
    atoms 1-11  entry C          line   221 file /cbio/jclab/home/chayas/anaconda/envs/py35/share/psi4/basis/aug-cc-pvtz.gbs 
    atoms 12    entry N          line   267 file /cbio/jclab/home/chayas/anaconda/envs/py35/share/psi4/basis/aug-cc-pvtz.gbs 
    atoms 13    entry O          line   313 file /cbio/jclab/home/chayas/anaconda/envs/py35/share/psi4/basis/aug-cc-pvtz.gbs 
    atoms 14    entry F          line   359 file /cbio/jclab/home/chayas/anaconda/envs/py35/share/psi4/basis/aug-cc-pvtz.gbs 
    atoms 15-23 entry H          line    34 file /cbio/jclab/home/chayas/anaconda/envs/py35/share/psi4/basis/aug-cc-pvtz.gbs 


         ---------------------------------------------------------
                                   SCF
            by Justin Turney, Rob Parrish, and Andy Simmonett
                              RHF Reference
                        8 Threads,   4768 MiB Core
         ---------------------------------------------------------

  ==> Geometry <==

    Molecular point group: c1
    Full point group: C1

    Geometry (in Angstrom), charge = 1, multiplicity = 1:

       Center              X                  Y                   Z               Mass       
    ------------   -----------------  -----------------  -----------------  -----------------
           C         -1.353940718809     0.768785188310    -0.770382094140    12.000000000000
           C         -2.422997628704     1.337405398260    -0.100515553783    12.000000000000
           C          1.506039038206    -1.516741261824    -0.221989913336    12.000000000000
           C          1.227496590569     0.073202913147    -2.006138966619    12.000000000000
           C         -1.420303342343     0.721929672037     2.004709040027    12.000000000000
           C          2.567269844662    -2.061764254632    -0.911482144696    12.000000000000
           C          2.294891016055    -0.504964565178    -2.656715055550    12.000000000000
           C         -0.306549743238     0.167719835024    -0.067711280943    12.000000000000
           C          0.816177904668    -0.430127619584    -0.769091259994    12.000000000000
           C         -2.457188157975     1.315502501333     1.289218984463    12.000000000000
           C         -0.361068769523     0.155610647451     1.323201670922    12.000000000000
           N          2.928243460630    -1.546110331455    -2.095913675784    14.003074004780
           O         -3.512115200025     1.879503890827     1.916670291115    15.994914619560
           F          0.632541961231    -0.407767240858     2.021998448089    18.998403224000
           H         -1.345069285462     0.792562455314    -1.851337794535     1.007825032070
           H         -3.229966663053     1.796326164339    -0.655583202760     1.007825032070
           H          1.225442549334    -1.942864536997     0.726934780762     1.007825032070
           H          0.727068909377     0.913173877779    -2.463747476562     1.007825032070
           H         -1.435007139924     0.699661047293     3.086717580498     1.007825032070
           H          3.145868804005    -2.900514478623    -0.556894054191     1.007825032070
           H          2.669633873012    -0.171227501505    -3.611369859024     1.007825032070
           H          3.713321300635    -1.959011406896    -2.588257989981     1.007825032070
           H         -3.411040646681     1.795552427605     2.873252112735     1.007825032070

  Running in c1 symmetry.

  Rotational constants: A =      0.06342  B =      0.01324  C =      0.01118 [cm^-1]
  Rotational constants: A =   1901.40282  B =    396.94085  C =    335.22156 [MHz]
  Nuclear repulsion =  832.676368828518775

  Charge       = 1
  Multiplicity = 1
  Electrons    = 98
  Nalpha       = 49
  Nbeta        = 49

  ==> Algorithm <==

  SCF Algorithm Type is DF.
  DIIS enabled.
  MOM disabled.
  Fractional occupation disabled.
  Guess Type is READ.
  Energy threshold   = 1.00e-10
  Density threshold  = 1.00e-10
  Integral threshold = 0.00e+00

  ==> Primary Basis <==

  Basis Set: AUG-CC-PVTZ
    Blend: AUG-CC-PVTZ
    Number of shells: 277
    Number of basis function: 851
    Number of Cartesian functions: 995
    Spherical Harmonics?: true
    Max angular momentum: 3

   => Loading Basis Set <=

    Name: (AUG-CC-PVTZ AUX)
    Role: JKFIT
    Keyword: DF_BASIS_SCF
    atoms 1-11  entry C          line   161 file /cbio/jclab/home/chayas/anaconda/envs/py35/share/psi4/basis/aug-cc-pvtz-jkfit.gbs 
    atoms 12    entry N          line   223 file /cbio/jclab/home/chayas/anaconda/envs/py35/share/psi4/basis/aug-cc-pvtz-jkfit.gbs 
    atoms 13    entry O          line   285 file /cbio/jclab/home/chayas/anaconda/envs/py35/share/psi4/basis/aug-cc-pvtz-jkfit.gbs 
    atoms 14    entry F          line   347 file /cbio/jclab/home/chayas/anaconda/envs/py35/share/psi4/basis/aug-cc-pvtz-jkfit.gbs 
    atoms 15-23 entry H          line    69 file /cbio/jclab/home/chayas/anaconda/envs/py35/share/psi4/basis/aug-cc-pvtz-jkfit.gbs 

  Reading orbitals from file 180, no projection.

  ==> Pre-Iterations <==

   -------------------------------------------------------
    Irrep   Nso     Nmo     Nalpha   Nbeta   Ndocc  Nsocc
   -------------------------------------------------------
     A        851     851       0       0       0       0
   -------------------------------------------------------
    Total     851     851      49      49      49       0
   -------------------------------------------------------

  ==> Integral Setup <==

  ==> DFJK: Density-Fitted J/K Matrices <==

    J tasked:                  Yes
    K tasked:                  Yes
    wK tasked:                  No
    OpenMP threads:              8
    Integrals threads:           8
    Memory (MB):              3576
    Algorithm:                Disk
    Integral Cache:           NONE
    Schwarz Cutoff:          1E-12
    Fitting Condition:       1E-12

   => Auxiliary Basis Set <=

  Basis Set: (AUG-CC-PVTZ AUX)
    Blend: AUG-CC-PVTZ-JKFIT
    Number of shells: 546
    Number of basis function: 1870
    Number of Cartesian functions: 2329
    Spherical Harmonics?: true
    Max angular momentum: 4

  Minimum eigenvalue in the overlap matrix is 6.0762099264E-07.
  Using Symmetric Orthogonalization.

  SCF Guess: Orbitals guess was supplied from a previous computation.

  ==> Iterations <==

                           Total Energy        Delta E     RMS |[F,P]|

   @DF-RHF iter   0:  -650.65020515574815   -6.50650e+02   5.04575e-04 
   @DF-RHF iter   1:  -650.56613264416160    8.40725e-02   6.53033e-05 
   @DF-RHF iter   2:  -650.56644707750525   -3.14433e-04   6.33481e-05 DIIS
   @DF-RHF iter   3:  -650.56665314771203   -2.06070e-04   1.08606e-05 DIIS
   @DF-RHF iter   4:  -650.56666067633307   -7.52862e-06   4.28023e-06 DIIS
   @DF-RHF iter   5:  -650.56666286542463   -2.18909e-06   1.63110e-06 DIIS
   @DF-RHF iter   6:  -650.56666345241206   -5.86987e-07   9.67743e-07 DIIS
   @DF-RHF iter   7:  -650.56666368984997   -2.37438e-07   3.87940e-07 DIIS
   @DF-RHF iter   8:  -650.56666374632539   -5.64754e-08   1.27937e-07 DIIS
   @DF-RHF iter   9:  -650.56666374997781   -3.65242e-09   4.56076e-08 DIIS
   @DF-RHF iter  10:  -650.56666375028124   -3.03430e-10   1.78446e-08 DIIS
   @DF-RHF iter  11:  -650.56666375032660   -4.53610e-11   5.38171e-09 DIIS
   @DF-RHF iter  12:  -650.56666375036525   -3.86535e-11   2.57398e-09 DIIS
   @DF-RHF iter  13:  -650.56666375034160    2.36469e-11   8.89770e-10 DIIS
   @DF-RHF iter  14:  -650.56666375034513   -3.52429e-12   4.81026e-10 DIIS
   @DF-RHF iter  15:  -650.56666375033399    1.11413e-11   2.08247e-10 DIIS
   @DF-RHF iter  16:  -650.56666375033751   -3.52429e-12   6.19229e-11 DIIS

  ==> Post-Iterations <==

    Orbital Energies (a.u.)
    -----------------------

    Doubly Occupied:                                                      

       1A    -26.451582     2A    -20.714855     3A    -15.830965  
       4A    -11.481822     5A    -11.479380     6A    -11.475390  
       7A    -11.451960     8A    -11.447116     9A    -11.413777  
      10A    -11.408913    11A    -11.388813    12A    -11.381658  
      13A    -11.364424    14A    -11.355542    15A     -1.773708  
      16A     -1.534905    17A     -1.509124    18A     -1.323963  
      19A     -1.275023    20A     -1.238027    21A     -1.168201  
      22A     -1.161472    23A     -1.067900    24A     -1.061189  
      25A     -0.998307    26A     -0.973174    27A     -0.959600  
      28A     -0.901075    29A     -0.874987    30A     -0.863161  
      31A     -0.855437    32A     -0.839794    33A     -0.822019  
      34A     -0.807816    35A     -0.788930    36A     -0.773842  
      37A     -0.768639    38A     -0.754296    39A     -0.727969  
      40A     -0.717150    41A     -0.710199    42A     -0.690391  
      43A     -0.660847    44A     -0.650219    45A     -0.637972  
      46A     -0.574526    47A     -0.537437    48A     -0.478638  
      49A     -0.446814  

    Virtual:                                                              

      50A     -0.107411    51A     -0.083149    52A     -0.061688  
      53A     -0.059579    54A     -0.055866    55A     -0.047639  
      56A     -0.043629    57A     -0.039499    58A     -0.032597  
      59A     -0.026631    60A     -0.023773    61A     -0.020009  
      62A     -0.015007    63A     -0.009920    64A     -0.006980  
      65A     -0.000413    66A      0.005538    67A      0.006856  
      68A      0.010331    69A      0.015224    70A      0.019133  
      71A      0.022210    72A      0.024293    73A      0.028467  
      74A      0.028987    75A      0.033528    76A      0.037927  
      77A      0.038837    78A      0.041278    79A      0.045693  
      80A      0.050587    81A      0.056807    82A      0.058162  
      83A      0.064484    84A      0.068240    85A      0.070392  
      86A      0.072527    87A      0.075167    88A      0.082321  
      89A      0.083375    90A      0.085687    91A      0.094916  
      92A      0.096664    93A      0.106894    94A      0.110087  
      95A      0.111738    96A      0.117140    97A      0.122709  
      98A      0.122838    99A      0.127392   100A      0.133411  
     101A      0.136088   102A      0.137463   103A      0.140256  
     104A      0.143536   105A      0.151452   106A      0.155789  
     107A      0.159568   108A      0.160782   109A      0.165312  
     110A      0.168042   111A      0.170147   112A      0.174217  
     113A      0.181341   114A      0.184334   115A      0.187058  
     116A      0.189843   117A      0.194691   118A      0.200438  
     119A      0.204251   120A      0.205446   121A      0.209565  
     122A      0.217239   123A      0.218874   124A      0.220702  
     125A      0.222391   126A      0.223661   127A      0.233365  
     128A      0.236107   129A      0.237729   130A      0.240778  
     131A      0.245690   132A      0.249345   133A      0.251447  
     134A      0.260981   135A      0.268489   136A      0.270372  
     137A      0.272627   138A      0.277250   139A      0.281803  
     140A      0.282316   141A      0.288476   142A      0.295669  
     143A      0.297048   144A      0.304031   145A      0.305488  
     146A      0.310194   147A      0.312291   148A      0.320041  
     149A      0.323334   150A      0.325239   151A      0.329760  
     152A      0.332404   153A      0.338378   154A      0.338858  
     155A      0.341158   156A      0.342651   157A      0.344504  
     158A      0.350834   159A      0.354422   160A      0.358010  
     161A      0.365154   162A      0.367587   163A      0.371385  
     164A      0.374346   165A      0.376607   166A      0.377569  
     167A      0.384355   168A      0.389361   169A      0.390951  
     170A      0.393078   171A      0.395701   172A      0.401249  
     173A      0.406289   174A      0.407913   175A      0.410144  
     176A      0.414213   177A      0.418208   178A      0.420385  
     179A      0.424676   180A      0.429936   181A      0.432232  
     182A      0.436748   183A      0.442314   184A      0.444124  
     185A      0.450426   186A      0.454085   187A      0.456571  
     188A      0.466834   189A      0.472299   190A      0.475696  
     191A      0.486336   192A      0.488227   193A      0.495584  
[...]
	 B(6,3,9)         =         2.105654	     120.645079
	 B(6,3,17)        =         2.065387	     118.337969
	 B(6,12,7)        =         2.136782	     122.428572
	 B(6,12,22)       =         2.073117	     118.780867
	 B(7,4,9)         =         2.111787	     120.996488
	 B(7,4,18)        =         2.063592	     118.235101
	 B(7,12,22)       =         2.073280	     118.790204
	 B(8,1,15)        =         2.083550	     119.378619
	 B(8,11,14)       =         2.082125	     119.296976
	 B(9,3,17)        =         2.111913	     121.003711
	 B(9,4,18)        =         2.107306	     120.739728
	 B(9,8,11)        =         2.143068	     122.788773
	 B(10,2,16)       =         2.076372	     118.967372
	 B(10,5,11)       =         2.076448	     118.971722
	 B(10,5,19)       =         2.129355	     122.003051
	 B(10,13,23)      =         1.934977	     110.866038
	 B(11,5,19)       =         2.077349	     119.023320
	 B(12,6,20)       =         2.040822	     116.930483
	 B(12,7,21)       =         2.042232	     117.011260
	 D(1,2,10,5)      =        -0.007676	      -0.439818
	 D(1,2,10,13)     =         3.135375	     179.643774
	 D(1,8,9,3)       =        -2.617968	    -149.998538
	 D(1,8,9,4)       =         0.509299	      29.180694
	 D(1,8,11,5)      =        -0.006494	      -0.372104
	 D(1,8,11,14)     =        -3.105724	    -177.944869
	 D(2,1,8,9)       =         3.139493	     179.879707
	 D(2,1,8,11)      =        -0.008700	      -0.498483
	 D(2,10,5,11)     =        -0.006846	      -0.392238
	 D(2,10,5,19)     =         3.125889	     179.100248
	 D(2,10,13,23)    =         3.137582	     179.770214
	 D(3,6,12,7)      =        -0.001953	      -0.111878
	 D(3,6,12,22)     =         3.135800	     179.668106
	 D(3,9,4,7)       =         0.003407	       0.195214
	 D(3,9,4,18)      =        -3.103585	    -177.822301
	 D(3,9,8,11)      =         0.530662	      30.404667
	 D(4,7,12,6)      =         0.000521	       0.029873
	 D(4,7,12,22)     =        -3.137231	    -179.750091
	 D(4,9,3,6)       =        -0.004817	      -0.275972
	 D(4,9,3,17)      =        -3.122922	    -178.930223
	 D(4,9,8,11)      =        -2.625256	    -150.416102
	 D(5,10,2,16)     =         3.124285	     179.008319
	 D(5,10,13,23)    =        -0.002497	      -0.143042
	 D(5,11,8,9)      =         3.128360	     179.241813
	 D(6,3,9,8)       =         3.122921	     178.930176
	 D(6,12,7,21)     =         3.129001	     179.278535
	 D(7,4,9,8)       =        -3.124679	    -179.030946
	 D(7,12,6,20)     =         3.131230	     179.406278
	 D(8,1,2,10)      =         0.015731	       0.901316
	 D(8,1,2,16)      =        -3.116010	    -178.534218
	 D(8,9,3,17)      =         0.004816	       0.275924
	 D(8,9,4,18)      =         0.051514	       2.951539
	 D(8,11,5,10)     =         0.014194	       0.813258
	 D(8,11,5,19)     =        -3.118808	    -178.694553
	 D(9,3,6,12)      =         0.004175	       0.239201
	 D(9,3,6,20)      =        -3.128438	    -179.246317
	 D(9,4,7,12)      =        -0.001321	      -0.075707
	 D(9,4,7,21)      =        -3.128886	    -179.271954
	 D(9,8,1,15)      =         0.050295	       2.881698
	 D(9,8,11,14)     =         0.029130	       1.669048
	 D(10,2,1,15)     =         3.105301	     177.920653
	 D(10,5,11,14)    =         3.114124	     178.426190
	 D(11,5,10,13)    =         3.133191	     179.518602
	 D(11,8,1,15)     =        -3.097898	    -177.496492
	 D(12,6,3,17)     =         3.122894	     178.928670
	 D(12,7,4,18)     =         3.106516	     177.990242
	 D(13,10,2,16)    =        -0.015849	      -0.908088
	 D(13,10,5,19)    =        -0.017260	      -0.988911
	 D(14,11,5,19)    =        -0.018878	      -1.081621
	 D(15,1,2,16)     =        -0.026440	      -1.514880
	 D(17,3,6,20)     =        -0.009719	      -0.556849
	 D(18,4,7,21)     =        -0.021049	      -1.206006
	 D(20,6,12,22)    =        -0.014202	      -0.813738
	 D(21,7,12,22)    =        -0.008752	      -0.501428
	 R(3,14)          =         5.218056	       2.761277

	Current energy   :      -653.2512004141

	Energy change for the previous step:
		Projected    :         0.0000019469
		Actual       :        -0.0000010944

	Performing BFGS update.
	Previous computed or guess Hessian on step 1.
	Steps to be used in Hessian update: 6 5
	Adding user-defined constraint: Fragment 1; Coordinate 64:
		Value =    -2.617968; Fixed value    =    -2.617990
		Force =    -0.000014; Force constant =     0.650000
	Removing off-diagonal coupling between coordinate 64 and others.
	Taking RFO optimization step.
	Going to follow RFO solution 1.
	Using RFO vector 1.
	Norm of target step-size    0.00264
	Projected energy change by RFO approximation:        -0.0000000342

	Back-transformation to cartesian coordinates...
	Could not converge backtransformation.
	Using first guess instead.

	--- Internal Coordinate Step in ANG or DEG, aJ/ANG or AJ/DEG ---
	 ---------------------------------------------------------------------------
	   Coordinate                Previous        Force       Change         New 
	   ----------                --------       ------       ------       ------
	    1 R(1,2)          =      1.374379    -0.000017     0.000008     1.374387
	    2 R(1,8)          =      1.402986    -0.000149    -0.000023     1.402963
	    3 R(1,15)         =      1.079202     0.000117     0.000019     1.079221
	    4 R(2,10)         =      1.394644    -0.000045    -0.000012     1.394632
	    5 R(2,16)         =      1.077892    -0.000049    -0.000007     1.077885
	    6 R(3,6)          =      1.372501    -0.000135    -0.000013     1.372488
	    7 R(3,9)          =      1.402287     0.000129     0.000012     1.402298
	    8 R(3,17)         =      1.075471     0.000083     0.000015     1.075486
	    9 R(4,7)          =      1.371625    -0.000015     0.000004     1.371629
	   10 R(4,9)          =      1.401875    -0.000183    -0.000028     1.401846
	   11 R(4,18)         =      1.077364     0.000121     0.000018     1.077382
	   12 R(5,10)         =      1.389767    -0.000012    -0.000000     1.389766
	   13 R(5,11)         =      1.374350    -0.000175    -0.000015     1.374335
	   14 R(5,19)         =      1.079044     0.000019     0.000006     1.079050
	   15 R(6,12)         =      1.342656     0.000148     0.000015     1.342671
	   16 R(6,20)         =      1.077170     0.000013     0.000003     1.077173
	   17 R(7,12)         =      1.342925     0.000071     0.000006     1.342932
	   18 R(7,21)         =      1.077149     0.000023     0.000006     1.077155
	   19 R(8,9)          =      1.444374    -0.000084     0.000004     1.444378
	   20 R(8,11)         =      1.394053     0.000142     0.000014     1.394066
	   21 R(10,13)        =      1.341097    -0.000144    -0.000009     1.341088
	   22 R(11,14)        =      1.344180    -0.000591    -0.000073     1.344108
	   23 R(12,22)        =      1.011854     0.000014     0.000003     1.011857
	   24 R(13,23)        =      0.963947     0.000021     0.000003     0.963950
	   25 B(1,2,10)       =    119.829900    -0.000001    -0.003823   119.826077
	   26 B(1,2,16)       =    121.200370    -0.000002    -0.009121   121.191249
	   27 B(1,8,9)        =    120.882970    -0.000001    -0.002999   120.879970
	   28 B(1,8,11)       =    116.327115     0.000001     0.004634   116.331749
	   29 B(2,1,8)        =    121.912477     0.000001     0.001280   121.913757
	   30 B(2,1,15)       =    118.642614    -0.000001    -0.004277   118.638337
	   31 B(2,10,5)       =    119.820928     0.000000     0.000812   119.821740
	   32 B(2,10,13)      =    116.906063    -0.000000     0.001063   116.907126
	   33 B(3,6,12)       =    119.683510    -0.000001    -0.002333   119.681177
	   34 B(3,6,20)       =    123.384127     0.000001     0.003995   123.388122
	   35 B(3,9,4)        =    116.871970     0.000001     0.004639   116.876608
	   36 B(3,9,8)        =    122.752053    -0.000002    -0.010113   122.741940
	   37 B(4,7,12)       =    119.373833    -0.000000    -0.000940   119.372893
	   38 B(4,7,21)       =    123.610314     0.000000     0.002380   123.612694
	   39 B(4,9,8)        =    120.371196     0.000001     0.005441   120.376637
	   40 B(5,10,13)      =    123.272952    -0.000000    -0.001892   123.271060
	   41 B(5,11,8)       =    123.129693    -0.000002    -0.008152   123.121540
	   42 B(5,11,14)      =    117.530987     0.000001     0.004737   117.535724
	   43 B(6,3,9)        =    120.645079    -0.000000    -0.001671   120.643408
	   44 B(6,3,17)       =    118.337969     0.000000     0.003194   118.341163
	   45 B(6,12,7)       =    122.428572     0.000001     0.002971   122.431543
	   46 B(6,12,22)      =    118.780867    -0.000000    -0.000863   118.780004
	   47 B(7,4,9)        =    120.996488    -0.000000    -0.002649   120.993839
	   48 B(7,4,18)       =    118.235101    -0.000000     0.000182   118.235283
	   49 B(7,12,22)      =    118.790204    -0.000000    -0.002101   118.788103
	   50 B(8,1,15)       =    119.378619     0.000001     0.003928   119.382547
	   51 B(8,11,14)      =    119.296976     0.000000     0.000172   119.297147
	   52 B(9,3,17)       =    121.003711    -0.000000    -0.001563   121.002147
	   53 B(9,4,18)       =    120.739728     0.000000     0.002074   120.741802
	   54 B(9,8,11)       =    122.788773     0.000000    -0.001606   122.787167
	   55 B(10,2,16)      =    118.967372     0.000003     0.012958   118.980330
	   56 B(10,5,11)      =    118.971722     0.000001     0.005106   118.976828
	   57 B(10,5,19)      =    122.003051    -0.000001    -0.006753   121.996298
	   58 B(10,13,23)     =    110.866038     0.000000    -0.001148   110.864890
	   59 B(11,5,19)      =    119.023320     0.000000     0.001587   119.024907
	   60 B(12,6,20)      =    116.930483    -0.000000    -0.001634   116.928849
	   61 B(12,7,21)      =    117.011260    -0.000000    -0.001432   117.009828
	   62 D(1,2,10,5)     =     -0.439818    -0.000000    -0.006751    -0.446569
	   63 D(1,2,10,13)    =    179.643774    -0.000000     0.005159   179.648933
	   64 D(1,8,9,3)      =   -149.998538     0.000000     0.002285  -149.996253
	   65 D(1,8,9,4)      =     29.180694     0.000000    -0.000503    29.180191
	   66 D(1,8,11,5)     =     -0.372104    -0.000000    -0.043781    -0.415885
	   67 D(1,8,11,14)    =   -177.944869     0.000000     0.047299  -177.897570
	   68 D(2,1,8,9)      =    179.879707     0.000000     0.029572   179.909279
	   69 D(2,1,8,11)     =     -0.498483     0.000000     0.034334    -0.464149
	   70 D(2,10,5,11)    =     -0.392238    -0.000000    -0.001842    -0.394080
	   71 D(2,10,5,19)    =    179.100248    -0.000000    -0.009703   179.090546
	   72 D(2,10,13,23)   =    179.770214    -0.000000     0.000525   179.770739
	   73 D(3,6,12,7)     =     -0.111878     0.000000     0.002401    -0.109477
	   74 D(3,6,12,22)    =    179.668106     0.000000     0.004562   179.672668
	   75 D(3,9,4,7)      =      0.195214    -0.000000    -0.009284     0.185930
	   76 D(3,9,4,18)     =   -177.822301    -0.000000     0.004269  -177.818032
	   77 D(3,9,8,11)     =     30.404667     0.000000    -0.002815    30.401852
	   78 D(4,7,12,6)     =      0.029873    -0.000000    -0.008331     0.021542
	   79 D(4,7,12,22)    =   -179.750091    -0.000000    -0.010495  -179.760586
	   80 D(4,9,3,6)      =     -0.275972     0.000000     0.003322    -0.272649
	   81 D(4,9,3,17)     =   -178.930223     0.000000     0.005308  -178.924915
	   82 D(4,9,8,11)     =   -150.416102     0.000000    -0.005603  -150.421704
	   83 D(5,10,2,16)    =    179.008319    -0.000000    -0.005166   179.003153
	   84 D(5,10,13,23)   =     -0.143042     0.000000     0.012881    -0.130161
	   85 D(5,11,8,9)     =    179.241813    -0.000000    -0.038925   179.202888
	   86 D(6,3,9,8)      =    178.930176    -0.000000     0.000638   178.930813
	   87 D(6,12,7,21)    =    179.278535    -0.000000    -0.007633   179.270902
	   88 D(7,4,9,8)      =   -179.030946     0.000000    -0.006535  -179.037481
	   89 D(7,12,6,20)    =    179.406278     0.000000     0.005952   179.412230
	   90 D(8,1,2,10)     =      0.901316    -0.000000    -0.010384     0.890932
	   91 D(8,1,2,16)     =   -178.534218    -0.000000    -0.012130  -178.546348
	   92 D(8,9,3,17)     =      0.275924    -0.000000     0.002623     0.278548
	   93 D(8,9,4,18)     =      2.951539     0.000000     0.007018     2.958557
	   94 D(8,11,5,10)    =      0.813258     0.000000     0.028388     0.841646
	   95 D(8,11,5,19)    =   -178.694553     0.000000     0.036055  -178.658497
	   96 D(9,3,6,12)     =      0.239201    -0.000000     0.000061     0.239263
	   97 D(9,3,6,20)     =   -179.246317    -0.000000    -0.003699  -179.250016
	   98 D(9,4,7,12)     =     -0.075707     0.000000     0.011849    -0.063858
	   99 D(9,4,7,21)     =   -179.271954     0.000000     0.011135  -179.260819
	  100 D(9,8,1,15)     =      2.881698     0.000000     0.008578     2.890276
	  101 D(9,8,11,14)    =      1.669048     0.000001     0.052155     1.721203
	  102 D(10,2,1,15)    =    177.920653     0.000000     0.010695   177.931349
	  103 D(10,5,11,14)   =    178.426190    -0.000001    -0.061286   178.364904
	  104 D(11,5,10,13)   =    179.518602    -0.000000    -0.014543   179.504060
	  105 D(11,8,1,15)    =   -177.496492     0.000000     0.013340  -177.483152
	  106 D(12,6,3,17)    =    178.928670    -0.000000    -0.001933   178.926736
	  107 D(12,7,4,18)    =    177.990242     0.000000    -0.001334   177.988908
	  108 D(13,10,2,16)   =     -0.908088     0.000000     0.006744    -0.901344
	  109 D(13,10,5,19)   =     -0.988911    -0.000000    -0.022403    -1.011315
	  110 D(14,11,5,19)   =     -1.081621    -0.000001    -0.053618    -1.135239
	  111 D(15,1,2,16)    =     -1.514880     0.000000     0.008950    -1.505931
	  112 D(17,3,6,20)    =     -0.556849    -0.000000    -0.005694    -0.562543
	  113 D(18,4,7,21)    =     -1.206006    -0.000000    -0.002048    -1.208053
	  114 D(20,6,12,22)   =     -0.813738     0.000000     0.008113    -0.805625
	  115 D(21,7,12,22)   =     -0.501428    -0.000000    -0.009797    -0.511225
	  116 R(3,14)         =      2.761277    -0.000010    -0.000020     2.761257
	 ---------------------------------------------------------------------------
	Successfully symmetrized geometry.
	 Forces used to impose fixed constraints are not included.
	  Forces zeroed: 64 

  ==> Convergence Check <==

  Measures of convergence in internal coordinates in au.
  Criteria marked as inactive (o), active & met (*), and active & unmet ( ).
  ---------------------------------------------------------------------------------------------
   Step     Total Energy     Delta E     MAX Force     RMS Force      MAX Disp      RMS Disp   
  ---------------------------------------------------------------------------------------------
    Convergence Criteria    1.00e-06 *    3.00e-04 *             o    1.20e-03 *             o
  ---------------------------------------------------------------------------------------------
      7    -653.25120041   -1.09e-06      7.17e-05 *    1.36e-05 o    1.07e-03 *    2.45e-04 o  ~
  ---------------------------------------------------------------------------------------------


  **** Optimization is complete! (in 7 steps) ****

  ==> Optimization Summary <==

  Measures of convergence in internal coordinates in au.
  --------------------------------------------------------------------------------------------------------------- ~
   Step         Total Energy             Delta E       MAX Force       RMS Force        MAX Disp        RMS Disp  ~
  --------------------------------------------------------------------------------------------------------------- ~
      1    -653.245442506863   -653.245442506863      0.01790908      0.00505836      0.02682903      0.00928449  ~
      2    -653.249229943903     -0.003787437039      0.00666984      0.00224709      0.05501937      0.00928201  ~
      3    -653.250659808161     -0.001429864258      0.00396414      0.00075686      0.07110933      0.00928294  ~
      4    -653.251084814603     -0.000425006443      0.00190260      0.00027201      0.05718852      0.00700787  ~
      5    -653.251188522138     -0.000103707535      0.00053274      0.00010770      0.01995887      0.00246161  ~
      6    -653.251199319739     -0.000010797602      0.00020669      0.00004253      0.00493700      0.00089020  ~
      7    -653.251200414107     -0.000001094368      0.00007170      0.00001375      0.00106964      0.00024529  ~
  --------------------------------------------------------------------------------------------------------------- ~

	Writing optimization data to binary file.
	Final energy is   -653.2512004141071
	Final (previous) structure:
	Cartesian Geometry (in Angstrom)
	    C    -1.3300471424   0.7604381973  -0.7566594980
	    C    -2.4064538557   1.3301427684  -0.1197116891
	    C     1.5484738458  -1.5371825860  -0.2274941213
	    C     1.2435582975   0.0546580023  -1.9830094355
	    C    -1.4478812815   0.7395891224   2.0102171224
	    C     2.5924688300  -2.0819132765  -0.9325490417
	    C     2.2925702657  -0.5124194441  -2.6607640821
	    C    -0.2854353475   0.1504166258  -0.0460050365
	    C     0.8342399601  -0.4438852467  -0.7383545921
	    C    -2.4694902215   1.3269730318   1.2735033030
	    C    -0.3932798614   0.1629093507   1.3438139068
	    N     2.9364184871  -1.5599772600  -2.1208279911
	    O    -3.5420414188   1.9051118491   1.8337986748
	    F     0.5944233601  -0.3680550878   2.0849886838
	    H    -1.3170857631   0.7432908416  -1.8356473116
	    H    -3.2141166227   1.7751761004  -0.6778128838
	    H     1.2802221198  -1.9831940722   0.7136498802
	    H     0.7612876623   0.9145474698  -2.4174254429
	    H    -1.4537153926   0.7297088354   3.0892001632
	    H     3.1629526711  -2.9280983193  -0.5878561395
	    H     2.6491850052  -0.1568800823  -3.6129551953
	    H     3.7114492961  -1.9690471488  -2.6266319395
	    H    -3.4984801983   1.8506242789   2.7952183883
	Saving final (previous) structure.
			--------------------------
			 OPTKING Finished Execution 
			--------------------------

    Final optimized geometry and variables:
    Molecular point group: c1
    Full point group: C1

    Geometry (in Angstrom), charge = 1, multiplicity = 1:

    C           -1.330047142367     0.760438197347    -0.756659497970
    C           -2.406453855720     1.330142768374    -0.119711689092
    C            1.548473845779    -1.537182586044    -0.227494121313
    C            1.243558297513     0.054658002268    -1.983009435540
    C           -1.447881281505     0.739589122419     2.010217122414
    C            2.592468830017    -2.081913276473    -0.932549041736
    C            2.292570265728    -0.512419444076    -2.660764082140
    C           -0.285435347526     0.150416625843    -0.046005036495
    C            0.834239960109    -0.443885246732    -0.738354592101
    C           -2.469490221491     1.326973031836     1.273503303016
    C           -0.393279861448     0.162909350665     1.343813906751
    N            2.936418487097    -1.559977259977    -2.120827991070
    O           -3.542041418776     1.905111849099     1.833798674848
    F            0.594423360147    -0.368055087791     2.084988683775
    H           -1.317085763060     0.743290841557    -1.835647311621
    H           -3.214116622679     1.775176100416    -0.677812883813
    H            1.280222119815    -1.983194072169     0.713649880237
    H            0.761287662256     0.914547469844    -2.417425442901
    H           -1.453715392585     0.729708835356     3.089200163242
    H            3.162952671081    -2.928098319252    -0.587856139507
    H            2.649185005204    -0.156880082286    -3.612955195349
    H            3.711449296093    -1.969047148790    -2.626631939474
    H           -3.498480198289     1.850624278886     2.795218388299

	Cleaning optimization helper files.

*** Psi4 exiting successfully. Buy a developer a beer!
