
    -----------------------------------------------------------------------
          Psi4: An Open-Source Ab Initio Electronic Structure Package
                               Psi4 1.1 release

                         Git: Rev {HEAD} add49b9 


    R. M. Parrish, L. A. Burns, D. G. A. Smith, A. C. Simmonett,
    A. E. DePrince III, E. G. Hohenstein, U. Bozkaya, A. Yu. Sokolov,
    R. Di Remigio, R. M. Richard, J. F. Gonthier, A. M. James,
    H. R. McAlexander, A. Kumar, M. Saitow, X. Wang, B. P. Pritchard,
    P. Verma, H. F. Schaefer III, K. Patkowski, R. A. King, E. F. Valeev,
    F. A. Evangelista, J. M. Turney, T. D. Crawford, and C. D. Sherrill,
    J. Chem. Theory Comput. in press (2017).
    (doi: 10.1021/acs.jctc.7b00174)

    -----------------------------------------------------------------------


    Psi4 started on: Monday, 13 November 2017 12:30PM

    Process ID:  16820
    PSIDATADIR: /cbio/jclab/home/chayas/anaconda/envs/py35/share/psi4
    Memory:     500.0 MiB
    Threads:    8
    
  ==> Input File <==

--------------------------------------------------------------------------

memory 5 Gb

molecule phepyrFOH_anion {
  symmetry C1
  -1 1 
  C      1.885   -1.036   -0.112
  C      0.807   -0.463   0.561
  C      5.298   -2.251   0.492
  C      3.855   -2.771   -1.360
  C      1.800   -1.079   2.676
  C      6.334   -2.832   -0.221
  C      4.956   -3.328   -1.991
  C      2.921   -1.631   0.608
  C      4.038   -2.224   -0.095
  C      0.764   -0.484   1.955
  C      2.878   -1.652   2.002
  N      6.195   -3.373   -1.452
  O      -0.227   0.043   2.574
  F      3.866   -2.220   2.709
  H      1.904   -1.013   -1.200
  H      0.011   -0.007   -0.025
  H      5.479   -1.836   1.479
  H      2.887   -2.767   -1.850
  H      1.791   -1.109   3.764
  H      7.335   -2.880   0.194
  H      4.866   -3.766   -2.980
  units Angstrom
}

dih_string = "1 8 9 3 150"
set optking { fixed_dihedral = $dih_string
              dynamic_level = 1
              geom_maxiter = 250
              print_trajectory_xyz_file = True }

optimize('MP2/aug-cc-PVTZ')
--------------------------------------------------------------------------

  Memory set to   4.657 GiB by Python driver.
gradient() will perform analytic gradient computation.

*** tstart() called on gpu-1-17.local
*** at Mon Nov 13 12:30:05 2017

    SCF Algorithm Type (re)set to DF.

*** tstart() called on gpu-1-17.local
*** at Mon Nov 13 12:30:05 2017

   => Loading Basis Set <=

    Name: AUG-CC-PVTZ
    Role: ORBITAL
    Keyword: BASIS
    atoms 1-11  entry C          line   221 file /cbio/jclab/home/chayas/anaconda/envs/py35/share/psi4/basis/aug-cc-pvtz.gbs 
    atoms 12    entry N          line   267 file /cbio/jclab/home/chayas/anaconda/envs/py35/share/psi4/basis/aug-cc-pvtz.gbs 
    atoms 13    entry O          line   313 file /cbio/jclab/home/chayas/anaconda/envs/py35/share/psi4/basis/aug-cc-pvtz.gbs 
    atoms 14    entry F          line   359 file /cbio/jclab/home/chayas/anaconda/envs/py35/share/psi4/basis/aug-cc-pvtz.gbs 
    atoms 15-21 entry H          line    34 file /cbio/jclab/home/chayas/anaconda/envs/py35/share/psi4/basis/aug-cc-pvtz.gbs 


         ---------------------------------------------------------
                                   SCF
            by Justin Turney, Rob Parrish, and Andy Simmonett
                              RHF Reference
                        8 Threads,   4768 MiB Core
         ---------------------------------------------------------

  ==> Geometry <==

    Molecular point group: c1
    Full point group: C1

    Geometry (in Angstrom), charge = -1, multiplicity = 1:

       Center              X                  Y                   Z               Mass       
    ------------   -----------------  -----------------  -----------------  -----------------
           C         -1.345296153776     0.767848021823    -0.781298080937    12.000000000000
           C         -2.423296153776     1.340848021823    -0.108298080937    12.000000000000
           C          2.067703846224    -0.447151978177    -0.177298080937    12.000000000000
           C          0.624703846224    -0.967151978177    -2.029298080937    12.000000000000
           C         -1.430296153776     0.724848021823     2.006701919063    12.000000000000
           C          3.103703846224    -1.028151978177    -0.890298080937    12.000000000000
           C          1.725703846224    -1.524151978177    -2.660298080937    12.000000000000
           C         -0.309296153776     0.172848021823    -0.061298080937    12.000000000000
           C          0.807703846224    -0.420151978177    -0.764298080937    12.000000000000
           C         -2.466296153776     1.319848021823     1.285701919063    12.000000000000
           C         -0.352296153776     0.151848021823     1.332701919063    12.000000000000
           N          2.964703846224    -1.569151978177    -2.121298080937    14.003074004780
           O         -3.457296153776     1.846848021823     1.904701919063    15.994914619560
           F          0.635703846224    -0.416151978177     2.039701919063    18.998403224000
           H         -1.326296153776     0.790848021823    -1.869298080937     1.007825032070
           H         -3.219296153776     1.796848021823    -0.694298080937     1.007825032070
           H          2.248703846224    -0.032151978177     0.809701919063     1.007825032070
           H         -0.343296153776    -0.963151978177    -2.519298080937     1.007825032070
           H         -1.439296153776     0.694848021823     3.094701919063     1.007825032070
           H          4.104703846224    -1.076151978177    -0.475298080937     1.007825032070
           H          1.635703846224    -1.962151978177    -3.649298080937     1.007825032070

  Running in c1 symmetry.

  Rotational constants: A =      0.06335  B =      0.01386  C =      0.01161 [cm^-1]
  Rotational constants: A =   1899.03836  B =    415.61571  C =    348.17659 [MHz]
  Nuclear repulsion =  804.175899045491292

  Charge       = -1
  Multiplicity = 1
  Electrons    = 98
  Nalpha       = 49
  Nbeta        = 49

  ==> Algorithm <==

  SCF Algorithm Type is DF.
  DIIS enabled.
  MOM disabled.
  Fractional occupation disabled.
  Guess Type is SAD.
  Energy threshold   = 1.00e-10
  Density threshold  = 1.00e-10
  Integral threshold = 0.00e+00

  ==> Primary Basis <==

  Basis Set: AUG-CC-PVTZ
    Blend: AUG-CC-PVTZ
    Number of shells: 259
    Number of basis function: 805
    Number of Cartesian functions: 945
    Spherical Harmonics?: true
    Max angular momentum: 3

   => Loading Basis Set <=

    Name: (AUG-CC-PVTZ AUX)
    Role: JKFIT
    Keyword: DF_BASIS_SCF
    atoms 1-11  entry C          line   161 file /cbio/jclab/home/chayas/anaconda/envs/py35/share/psi4/basis/aug-cc-pvtz-jkfit.gbs 
    atoms 12    entry N          line   223 file /cbio/jclab/home/chayas/anaconda/envs/py35/share/psi4/basis/aug-cc-pvtz-jkfit.gbs 
    atoms 13    entry O          line   285 file /cbio/jclab/home/chayas/anaconda/envs/py35/share/psi4/basis/aug-cc-pvtz-jkfit.gbs 
    atoms 14    entry F          line   347 file /cbio/jclab/home/chayas/anaconda/envs/py35/share/psi4/basis/aug-cc-pvtz-jkfit.gbs 
    atoms 15-21 entry H          line    69 file /cbio/jclab/home/chayas/anaconda/envs/py35/share/psi4/basis/aug-cc-pvtz-jkfit.gbs 

  ==> Pre-Iterations <==

   -------------------------------------------------------
    Irrep   Nso     Nmo     Nalpha   Nbeta   Ndocc  Nsocc
   -------------------------------------------------------
     A        805     805       0       0       0       0
   -------------------------------------------------------
    Total     805     805      49      49      49       0
   -------------------------------------------------------

  ==> Integral Setup <==

  ==> DFJK: Density-Fitted J/K Matrices <==

    J tasked:                  Yes
    K tasked:                  Yes
    wK tasked:                  No
    OpenMP threads:              8
    Integrals threads:           8
    Memory (MB):              3576
    Algorithm:                Disk
    Integral Cache:           NONE
    Schwarz Cutoff:          1E-12
    Fitting Condition:       1E-12

   => Auxiliary Basis Set <=

  Basis Set: (AUG-CC-PVTZ AUX)
    Blend: AUG-CC-PVTZ-JKFIT
    Number of shells: 518
    Number of basis function: 1778
    Number of Cartesian functions: 2219
    Spherical Harmonics?: true
    Max angular momentum: 4

  Minimum eigenvalue in the overlap matrix is 7.4101995801E-07.
  Using Symmetric Orthogonalization.

  SCF Guess: Superposition of Atomic Densities via on-the-fly atomic UHF.

  ==> Iterations <==

                           Total Energy        Delta E     RMS |[F,P]|

   @DF-RHF iter   0:  -663.13418432714445   -6.63134e+02   1.91862e-02 
   @DF-RHF iter   1:  -649.08792442969548    1.40463e+01   2.13789e-03 
   @DF-RHF iter   2:  -649.40917247224718   -3.21248e-01   1.64843e-03 DIIS
   @DF-RHF iter   3:  -649.58496309036457   -1.75791e-01   4.55073e-04 DIIS
   @DF-RHF iter   4:  -649.60436688319453   -1.94038e-02   1.56305e-04 DIIS
   @DF-RHF iter   5:  -649.60814459016547   -3.77771e-03   4.82665e-05 DIIS
   @DF-RHF iter   6:  -649.60864735193275   -5.02762e-04   2.27160e-05 DIIS
   @DF-RHF iter   7:  -649.60872857748052   -8.12255e-05   7.91185e-06 DIIS
   @DF-RHF iter   8:  -649.60873970492980   -1.11274e-05   2.90773e-06 DIIS
   @DF-RHF iter   9:  -649.60874205234131   -2.34741e-06   1.40003e-06 DIIS
   @DF-RHF iter  10:  -649.60874263584526   -5.83504e-07   7.15198e-07 DIIS
   @DF-RHF iter  11:  -649.60874281350777   -1.77663e-07   2.16532e-07 DIIS
   @DF-RHF iter  12:  -649.60874282886982   -1.53620e-08   9.93171e-08 DIIS
   @DF-RHF iter  13:  -649.60874283115334   -2.28351e-09   3.98299e-08 DIIS
   @DF-RHF iter  14:  -649.60874283171484   -5.61499e-10   1.65923e-08 DIIS
   @DF-RHF iter  15:  -649.60874283179123   -7.63976e-11   8.18775e-09 DIIS
   @DF-RHF iter  16:  -649.60874283182648   -3.52429e-11   3.44036e-09 DIIS
   @DF-RHF iter  17:  -649.60874283183216   -5.68434e-12   1.62194e-09 DIIS
   @DF-RHF iter  18:  -649.60874283183341   -1.25056e-12   7.13281e-10 DIIS
   @DF-RHF iter  19:  -649.60874283183978   -6.36646e-12   2.64731e-10 DIIS
   @DF-RHF iter  20:  -649.60874283183693    2.84217e-12   1.10559e-10 DIIS
   @DF-RHF iter  21:  -649.60874283182989    7.04858e-12   5.86002e-11 DIIS

  ==> Post-Iterations <==

    Orbital Energies (a.u.)
    -----------------------

    Doubly Occupied:                                                      

       1A    -26.192108     2A    -20.306882     3A    -15.449185  
       4A    -11.195183     5A    -11.166924     6A    -11.164504  
       7A    -11.145946     8A    -11.128023     9A    -11.120228  
      10A    -11.115033    11A    -11.112026    12A    -11.086134  
      13A    -11.068560    14A    -11.068132    15A     -1.514084  
      16A     -1.138398    17A     -1.137403    18A     -1.026161  
      19A     -0.964913    20A     -0.922462    21A     -0.877509  
      22A     -0.849679    23A     -0.751146    24A     -0.737691  
      25A     -0.704527    26A     -0.678946    27A     -0.607434  
      28A     -0.591767    29A     -0.581623    30A     -0.568022  
      31A     -0.546383    32A     -0.529194    33A     -0.501111  
      34A     -0.486646    35A     -0.472223    36A     -0.465385  
      37A     -0.432736    38A     -0.416764    39A     -0.409225  
      40A     -0.386935    41A     -0.378344    42A     -0.359493  
      43A     -0.316338    44A     -0.306724    45A     -0.249053  
      46A     -0.240679    47A     -0.225352    48A     -0.204035  
      49A     -0.116646  

    Virtual:                                                              

      50A      0.098843    51A      0.101298    52A      0.115167  
      53A      0.120353    54A      0.125651    55A      0.128518  
      56A      0.133550    57A      0.156479    58A      0.166423  
      59A      0.174678    60A      0.177993    61A      0.183979  
      62A      0.186999    63A      0.188350    64A      0.191969  
      65A      0.198054    66A      0.198749    67A      0.206423  
      68A      0.209833    69A      0.213325    70A      0.214645  
      71A      0.217178    72A      0.221423    73A      0.227472  
      74A      0.230533    75A      0.232905    76A      0.237252  
      77A      0.239167    78A      0.242883    79A      0.247738  
      80A      0.251392    81A      0.259270    82A      0.263375  
      83A      0.266690    84A      0.269068    85A      0.275413  
      86A      0.279386    87A      0.287598    88A      0.293983  
      89A      0.299837    90A      0.314816    91A      0.317211  
      92A      0.318491    93A      0.321902    94A      0.322667  
      95A      0.324529    96A      0.326145    97A      0.332845  
      98A      0.335239    99A      0.337320   100A      0.344189  
     101A      0.347658   102A      0.353576   103A      0.363428  
     104A      0.367348   105A      0.368448   106A      0.377811  
     107A      0.380446   108A      0.384265   109A      0.387533  
     110A      0.388945   111A      0.394317   112A      0.403258  
     113A      0.409717   114A      0.413157   115A      0.416248  
     116A      0.420438   117A      0.422460   118A      0.425547  
     119A      0.430422   120A      0.439358   121A      0.443860  
     122A      0.447048   123A      0.452723   124A      0.456364  
     125A      0.463891   126A      0.472153   127A      0.476517  
     128A      0.479222   129A      0.481256   130A      0.486430  
     131A      0.496462   132A      0.503434   133A      0.510290  
     134A      0.516812   135A      0.518030   136A      0.523453  
     137A      0.533808   138A      0.541192   139A      0.545275  
     140A      0.546230   141A      0.550027   142A      0.555115  
     143A      0.557478   144A      0.561997   145A      0.564187  
     146A      0.571586   147A      0.573588   148A      0.576950  
     149A      0.581803   150A      0.583965   151A      0.584910  
     152A      0.587978   153A      0.597498   154A      0.600001  
     155A      0.601659   156A      0.603126   157A      0.607798  
     158A      0.611775   159A      0.620688   160A      0.621508  
     161A      0.625305   162A      0.628825   163A      0.632142  
     164A      0.633543   165A      0.640085   166A      0.641795  
     167A      0.645585   168A      0.650019   169A      0.654186  
     170A      0.658465   171A      0.662329   172A      0.667691  
     173A      0.678354   174A      0.681043   175A      0.686641  
     176A      0.694206   177A      0.699390   178A      0.701636  
     179A      0.704212   180A      0.711637   181A      0.716428  
     182A      0.724345   183A      0.729660   184A      0.736144  
     185A      0.742614   186A      0.743841   187A      0.751309  
     188A      0.760590   189A      0.767603   190A      0.770435  
     191A      0.791298   192A      0.795213   193A      0.798786  
     194A      0.807181   195A      0.808708   196A      0.813189  
     197A      0.814890   198A      0.821126   199A      0.828228  
     200A      0.837688   201A      0.845355   202A      0.849200  
     203A      0.854690   204A      0.855360   205A      0.859264  
     206A      0.860565   207A      0.871754   208A      0.872335  
     209A      0.878480   210A      0.887242   211A      0.890354  
     212A      0.898726   213A      0.901689   214A      0.917785  
     215A      0.926068   216A      0.933651   217A      0.936748  
     218A      0.942794   219A      0.950596   220A      0.957251  
     221A      0.968601   222A      0.975743   223A      0.982248  
     224A      0.986133   225A      0.987276   226A      0.990982  
     227A      0.999626   228A      1.002500   229A      1.008723  
     230A      1.011665   231A      1.014756   232A      1.017451  
     233A      1.020163   234A      1.025165   235A      1.037653  
     236A      1.041054   237A      1.048842   238A      1.049565  
     239A      1.054518   240A      1.060774   241A      1.064083  
     242A      1.067450   243A      1.075828   244A      1.080732  
     245A      1.083674   246A      1.087416   247A      1.091185  
     248A      1.095527   249A      1.096820   250A      1.107242  
     251A      1.109659   252A      1.116666   253A      1.120021  
     254A      1.123854   255A      1.128030   256A      1.133696  
     257A      1.136573   258A      1.140959   259A      1.144348  
     260A      1.146551   261A      1.149450   262A      1.156035  
     263A      1.161671   264A      1.167558   265A      1.171945  
     266A      1.176959   267A      1.177755   268A      1.190213  
     269A      1.191831   270A      1.194090   271A      1.202061  
     272A      1.207141   273A      1.207835   274A      1.210878  
     275A      1.215305   276A      1.223810   277A      1.227742  
     278A      1.235413   279A      1.239313   280A      1.251373  
     281A      1.257363   282A      1.263435   283A      1.270674  
     284A      1.275819   285A      1.277574   286A      1.282739  
     287A      1.288107   288A      1.296194   289A      1.297974  
     290A      1.299702   291A      1.302562   292A      1.309963  
     293A      1.314854   294A      1.320466   295A      1.323266  
     296A      1.329081   297A      1.332541   298A      1.335101  
     299A      1.340031   300A      1.346577   301A      1.351900  
     302A      1.355361   303A      1.366831   304A      1.378078  
     305A      1.381363   306A      1.387088   307A      1.391707  
     308A      1.392627   309A      1.404286   310A      1.407438  
     311A      1.409835   312A      1.419166   313A      1.430587  
     314A      1.432983   315A      1.443684   316A      1.453845  
     317A      1.460350   318A      1.468190   319A      1.474948  
     320A      1.479573   321A      1.490037   322A      1.494703  
     323A      1.503402   324A      1.509427   325A      1.521353  
     326A      1.525308   327A      1.528432   328A      1.549388  
     329A      1.552597   330A      1.556288   331A      1.568896  
     332A      1.573637   333A      1.586340   334A      1.587332  
     335A      1.605719   336A      1.608807   337A      1.614596  
     338A      1.622862   339A      1.629579   340A      1.637756  
     341A      1.650099   342A      1.653799   343A      1.663142  
     344A      1.669375   345A      1.678509   346A      1.698620  
     347A      1.706530   348A      1.710626   349A      1.714840  
     350A      1.720668   351A      1.730920   352A      1.747513  
     353A      1.750533   354A      1.752148   355A      1.766445  
     356A      1.767567   357A      1.779994   358A      1.792844  
     359A      1.795174   360A      1.801194   361A      1.816005  
     362A      1.821990   363A      1.830018   364A      1.834749  
     365A      1.838544   366A      1.842069   367A      1.843835  
     368A      1.852051   369A      1.863536   370A      1.867289  
     371A      1.876802   372A      1.897985   373A      1.909154  
     374A      1.910169   375A      1.914083   376A      1.927300  
     377A      1.933072   378A      1.935861   379A      1.946061  
     380A      1.956917   381A      1.958636   382A      1.972215  
     383A      1.978648   384A      1.989365   385A      2.003840  
     386A      2.011206   387A      2.015467   388A      2.025362  
     389A      2.036255   390A      2.045009   391A      2.058156  
     392A      2.065423   393A      2.072955   394A      2.076883  
     395A      2.081994   396A      2.090718   397A      2.098038  
     398A      2.101909   399A      2.108110   400A      2.121425  
     401A      2.124599   402A      2.132393   403A      2.137465  
     404A      2.142480   405A      2.150592   406A      2.156711  
     407A      2.162491   408A      2.174011   409A      2.182480  
     410A      2.190043   411A      2.192957   412A      2.199568  
     413A      2.207906   414A      2.215334   415A      2.220263  
     416A      2.227795   417A      2.233212   418A      2.243285  
     419A      2.254106   420A      2.265274   421A      2.275551  
     422A      2.287146   423A      2.292037   424A      2.297534  
     425A      2.309063   426A      2.309671   427A      2.324961  
     428A      2.332342   429A      2.340827   430A      2.346507  
     431A      2.356858   432A      2.363327   433A      2.374785  
     434A      2.375501   435A      2.397897   436A      2.408617  
     437A      2.417230   438A      2.428103   439A      2.437443  
     440A      2.452980   441A      2.458418   442A      2.467153  
     443A      2.481755   444A      2.486384   445A      2.487893  
     446A      2.498361   447A      2.504090   448A      2.519148  
     449A      2.528784   450A      2.532424   451A      2.550661  
     452A      2.563811   453A      2.585641   454A      2.588790  
     455A      2.594480   456A      2.602240   457A      2.624180  
     458A      2.633804   459A      2.637938   460A      2.651504  
     461A      2.673307   462A      2.681552   463A      2.688825  
     464A      2.698665   465A      2.706216   466A      2.712064  
     467A      2.717572   468A      2.731989   469A      2.758638  
     470A      2.772547   471A      2.775983   472A      2.808547  
     473A      2.815537   474A      2.824656   475A      2.854278  
     476A      2.865310   477A      2.884851   478A      2.890241  
     479A      2.910163   480A      2.915901   481A      2.931000  
     482A      2.956359   483A      2.959316   484A      2.980397  
     485A      2.999588   486A      3.021699   487A      3.031169  
     488A      3.044688   489A      3.084956   490A      3.100071  
     491A      3.102979   492A      3.125188   493A      3.147195  
     494A      3.158288   495A      3.172585   496A      3.193741  
     497A      3.212470   498A      3.219876   499A      3.243423  
     500A      3.257709   501A      3.274232   502A      3.296250  
     503A      3.308879   504A      3.318076   505A      3.324506  
     506A      3.333094   507A      3.352017   508A      3.364921  
     509A      3.375611   510A      3.397231   511A      3.410849  
     512A      3.430552   513A      3.443312   514A      3.451767  
     515A      3.457915   516A      3.466870   517A      3.473855  
     518A      3.489634   519A      3.491680   520A      3.512686  
     521A      3.518150   522A      3.524400   523A      3.531932  
     524A      3.542870   525A      3.554010   526A      3.563469  
     527A      3.571121   528A      3.583853   529A      3.593395  
     530A      3.609901   531A      3.618439   532A      3.620458  
     533A      3.634642   534A      3.636297   535A      3.642273  
     536A      3.651131   537A      3.664588   538A      3.673395  
     539A      3.681420   540A      3.693183   541A      3.698313  
     542A      3.699058   543A      3.709084   544A      3.715658  
     545A      3.733958   546A      3.742725   547A      3.747326  
     548A      3.757236   549A      3.768217   550A      3.783745  
     551A      3.789025   552A      3.792811   553A      3.802888  
     554A      3.809616   555A      3.817179   556A      3.822210  
     557A      3.832900   558A      3.838596   559A      3.860744  
     560A      3.873004   561A      3.880496   562A      3.892281  
     563A      3.912968   564A      3.915655   565A      3.919302  
     566A      3.923322   567A      3.934368   568A      3.942973  
     569A      3.947826   570A      3.950404   571A      3.952860  
     572A      3.972816   573A      3.989509   574A      3.990585  
     575A      4.002124   576A      4.012189   577A      4.020990  
     578A      4.035193   579A      4.037806   580A      4.050328  
     581A      4.054368   582A      4.063619   583A      4.069083  
     584A      4.071249   585A      4.088210   586A      4.096512  
     587A      4.103073   588A      4.110839   589A      4.123706  
     590A      4.126350   591A      4.137701   592A      4.141741  
     593A      4.150368   594A      4.153130   595A      4.163376  
     596A      4.182568   597A      4.187040   598A      4.194571  
     599A      4.198987   600A      4.216561   601A      4.225731  
     602A      4.233352   603A      4.245763   604A      4.253498  
     605A      4.262501   606A      4.264963   607A      4.280861  
     608A      4.309354   609A      4.310360   610A      4.333388  
     611A      4.337119   612A      4.345816   613A      4.354653  
     614A      4.357378   615A      4.360864   616A      4.376044  
     617A      4.379647   618A      4.403519   619A      4.415066  
     620A      4.421248   621A      4.428703   622A      4.438960  
     623A      4.443557   624A      4.457417   625A      4.460025  
     626A      4.468465   627A      4.481476   628A      4.486991  
     629A      4.498995   630A      4.504141   631A      4.509740  
     632A      4.520185   633A      4.529458   634A      4.538628  
     635A      4.544369   636A      4.551671   637A      4.557814  
     638A      4.572415   639A      4.586737   640A      4.594055  
     641A      4.610656   642A      4.625454   643A      4.632915  
     644A      4.644882   645A      4.647649   646A      4.664530  
     647A      4.675835   648A      4.683206   649A      4.720446  
     650A      4.724223   651A      4.729148   652A      4.751505  
     653A      4.760457   654A      4.774944   655A      4.777277  
     656A      4.787766   657A      4.805587   658A      4.827060  
     659A      4.835524   660A      4.848839   661A      4.870911  
     662A      4.879545   663A      4.902072   664A      4.922873  
     665A      4.927019   666A      4.932388   667A      4.941141  
     668A      4.979535   669A      4.989518   670A      4.998580  
     671A      5.005258   672A      5.026565   673A      5.034980  
     674A      5.056881   675A      5.068760   676A      5.086043  
     677A      5.092976   678A      5.104196   679A      5.122286  
     680A      5.124475   681A      5.137667   682A      5.155714  
     683A      5.167956   684A      5.178303   685A      5.189913  
     686A      5.199532   687A      5.217859   688A      5.234640  
     689A      5.247972   690A      5.264240   691A      5.269764  
     692A      5.278557   693A      5.286066   694A      5.293742  
     695A      5.311789   696A      5.314957   697A      5.331336  
     698A      5.343338   699A      5.356268   700A      5.371133  
     701A      5.377580   702A      5.392869   703A      5.412489  
     704A      5.437597   705A      5.450734   706A      5.468688  
     707A      5.473773   708A      5.500201   709A      5.521145  
     710A      5.525366   711A      5.552677   712A      5.558653  
     713A      5.576852   714A      5.600060   715A      5.620251  
     716A      5.651037   717A      5.663238   718A      5.680948  
     719A      5.710213   720A      5.721359   721A      5.743145  
     722A      5.780898   723A      5.811382   724A      5.816967  
     725A      5.857539   726A      5.867549   727A      5.902275  
     728A      5.917999   729A      5.939999   730A      5.949161  
     731A      5.964316   732A      5.983532   733A      5.993783  
     734A      6.020205   735A      6.051269   736A      6.101342  
     737A      6.126239   738A      6.196571   739A      6.198119  
     740A      6.266118   741A      6.316500   742A      6.335438  
     743A      6.361595   744A      6.382826   745A      6.423335  
     746A      6.443305   747A      6.538436   748A      6.555377  
     749A      6.591966   750A      6.609872   751A      6.627060  
     752A      6.676755   753A      6.731345   754A      6.802764  
     755A      6.822552   756A      6.833186   757A      6.849547  
     758A      6.891469   759A      6.897784   760A      6.981578  
     761A      6.995888   762A      7.022056   763A      7.057520  
     764A      7.089076   765A      7.176725   766A      7.181824  
     767A      7.204027   768A      7.295762   769A      7.332924  
     770A      7.350594   771A      7.544577   772A      7.599550  
     773A      7.605621   774A      7.638140   775A      7.917201  
     776A      7.929714   777A      8.015609   778A      8.136456  
     779A      8.211015   780A      9.235785   781A      9.258157  
     782A      9.409249   783A      9.427779   784A      9.558212  
     785A      9.660741   786A      9.694869   787A      9.754086  
     788A      9.797720   789A      9.866229   790A     10.181207  
     791A     10.244190   792A     15.684476   793A     16.015364  
     794A     16.445545   795A     16.826726   796A     16.924856  
     797A     17.015254   798A     18.589934   799A     18.985353  
     800A     19.445125   801A     19.983231   802A     20.294500  
     803A     20.440629   804A     20.772341   805A     21.771696  

    Final Occupation by Irrep:
              A 
    DOCC [    49 ]

  Energy converged.

  @DF-RHF Final Energy:  -649.60874283182989

   => Energetics <=

    Nuclear Repulsion Energy =            804.1758990454912919
    One-Electron Energy =               -2497.5414824374665841
    Two-Electron Energy =                1043.7568405601452923
    DFT Exchange-Correlation Energy =       0.0000000000000000
    Empirical Dispersion Energy =           0.0000000000000000
    PCM Polarization Energy =               0.0000000000000000
    EFP Energy =                            0.0000000000000000
    Total Energy =                       -649.6087428318298862



Properties will be evaluated at   0.000000,   0.000000,   0.000000 Bohr

Properties computed using the SCF density matrix

  Nuclear Dipole Moment: (a.u.)
     X:     0.9322      Y:    -0.2981      Z:    -6.8803

  Electronic Dipole Moment: (a.u.)
     X:     1.5291      Y:    -0.9973      Z:     5.2753

  Dipole Moment: (a.u.)
     X:     2.4612      Y:    -1.2954      Z:    -1.6050     Total:     3.2112

  Dipole Moment: (Debye)
     X:     6.2558      Y:    -3.2925      Z:    -4.0795     Total:     8.1620


*** tstop() called on gpu-1-17.local at Mon Nov 13 12:37:28 2017
Module time:
	user time   =    1082.64 seconds =      18.04 minutes
	system time =      51.72 seconds =       0.86 minutes
	total time  =        443 seconds =       7.38 minutes
Total time:
	user time   =    1082.65 seconds =      18.04 minutes
	system time =      51.72 seconds =       0.86 minutes
	total time  =        443 seconds =       7.38 minutes

  //>>>>>>>>>>>>>>>>>>>>>>>>>>>>>>>>>>>//
  //               DFMP2               //
  //<<<<<<<<<<<<<<<<<<<<<<<<<<<<<<<<<<<//

   => Loading Basis Set <=

    Name: (AUG-CC-PVTZ AUX)
    Role: RIFIT
    Keyword: DF_BASIS_MP2
    atoms 1-11  entry C          line   147 file /cbio/jclab/home/chayas/anaconda/envs/py35/share/psi4/basis/aug-cc-pvtz-ri.gbs 
    atoms 12    entry N          line   205 file /cbio/jclab/home/chayas/anaconda/envs/py35/share/psi4/basis/aug-cc-pvtz-ri.gbs 
    atoms 13    entry O          line   263 file /cbio/jclab/home/chayas/anaconda/envs/py35/share/psi4/basis/aug-cc-pvtz-ri.gbs 
    atoms 14    entry F          line   321 file /cbio/jclab/home/chayas/anaconda/envs/py35/share/psi4/basis/aug-cc-pvtz-ri.gbs 
    atoms 15-21 entry H          line    29 file /cbio/jclab/home/chayas/anaconda/envs/py35/share/psi4/basis/aug-cc-pvtz-ri.gbs 

	 --------------------------------------------------------
	                          DF-MP2                         
	      2nd-Order Density-Fitted Moller-Plesset Theory     
	              RMP2 Wavefunction,   8 Threads             
	                                                         
	        Rob Parrish, Justin Turney, Andy Simmonett,      
	           Ed Hohenstein, and C. David Sherrill          
	 --------------------------------------------------------

   => Auxiliary Basis Set <=

  Basis Set: (AUG-CC-PVTZ AUX)
    Blend: AUG-CC-PVTZ-RI
    Number of shells: 490
    Number of basis function: 1806
    Number of Cartesian functions: 2289
    Spherical Harmonics?: true
    Max angular momentum: 4

	 --------------------------------------------------------
	                 NBF =   805, NAUX =  1806
	 --------------------------------------------------------
	   CLASS    FOCC     OCC    AOCC    AVIR     VIR    FVIR
	   PAIRS       0      49      49     756     756       0
	 --------------------------------------------------------


         ------------------------------------------------------------
                                     CPHF                           
                                  Rob Parrish                       
         ------------------------------------------------------------

  ==> Geometry <==

    Molecular point group: c1
    Full point group: C1

    Geometry (in Angstrom), charge = -1, multiplicity = 1:

       Center              X                  Y                   Z               Mass       
    ------------   -----------------  -----------------  -----------------  -----------------
           C         -1.345296153776     0.767848021823    -0.781298080937    12.000000000000
           C         -2.423296153776     1.340848021823    -0.108298080937    12.000000000000
           C          2.067703846224    -0.447151978177    -0.177298080937    12.000000000000
           C          0.624703846224    -0.967151978177    -2.029298080937    12.000000000000
           C         -1.430296153776     0.724848021823     2.006701919063    12.000000000000
           C          3.103703846224    -1.028151978177    -0.890298080937    12.000000000000
           C          1.725703846224    -1.524151978177    -2.660298080937    12.000000000000
           C         -0.309296153776     0.172848021823    -0.061298080937    12.000000000000
           C          0.807703846224    -0.420151978177    -0.764298080937    12.000000000000
           C         -2.466296153776     1.319848021823     1.285701919063    12.000000000000
           C         -0.352296153776     0.151848021823     1.332701919063    12.000000000000
           N          2.964703846224    -1.569151978177    -2.121298080937    14.003074004780
           O         -3.457296153776     1.846848021823     1.904701919063    15.994914619560
           F          0.635703846224    -0.416151978177     2.039701919063    18.998403224000
           H         -1.326296153776     0.790848021823    -1.869298080937     1.007825032070
           H         -3.219296153776     1.796848021823    -0.694298080937     1.007825032070
           H          2.248703846224    -0.032151978177     0.809701919063     1.007825032070
           H         -0.343296153776    -0.963151978177    -2.519298080937     1.007825032070
           H         -1.439296153776     0.694848021823     3.094701919063     1.007825032070
           H          4.104703846224    -1.076151978177    -0.475298080937     1.007825032070
           H          1.635703846224    -1.962151978177    -3.649298080937     1.007825032070

  Nuclear repulsion =  804.175899045491292
  Reference energy  = -649.608742831829886

  ==> Basis Set <==

  Basis Set: AUG-CC-PVTZ
    Blend: AUG-CC-PVTZ
    Number of shells: 259
    Number of basis function: 805
    Number of Cartesian functions: 945
    Spherical Harmonics?: true
    Max angular momentum: 3

  ==> CGRSolver (by Rob Parrish) <==

   Number of roots    =         1
   Preconditioning    =    JACOBI
   Convergence cutoff =     1E-06
   Maximum iterations =       100

  ==> CPHFRHamiltonian (by Rob Parrish) <== 

  ==> DFJK: Density-Fitted J/K Matrices <==

    J tasked:                  Yes
    K tasked:                  Yes
    wK tasked:                  No
    OpenMP threads:              8
    Integrals threads:           8
    Memory (MB):              3576
    Algorithm:                Disk
    Integral Cache:           NONE
    Schwarz Cutoff:          1E-12
    Fitting Condition:       1E-12

   => Auxiliary Basis Set <=

  Basis Set: (AUG-CC-PVTZ AUX)
    Blend: AUG-CC-PVTZ-JKFIT
    Number of shells: 518
    Number of basis function: 1778
    Number of Cartesian functions: 2219
    Spherical Harmonics?: true
    Max angular momentum: 4

  ==> CPHF Iterations <==

  => Iterations <=

             Iter  Converged  Remaining    Residual
  CGR           1          0          1   1.338E-01
  CGR           2          0          1   4.981E-02
  CGR           3          0          1   2.978E-02
  CGR           4          0          1   1.117E-02
  CGR           5          0          1   5.261E-03
  CGR           6          0          1   2.667E-03
  CGR           7          0          1   1.042E-03
  CGR           8          0          1   3.978E-04
  CGR           9          0          1   1.289E-04
  CGR          10          0          1   3.716E-05
  CGR          11          0          1   1.395E-05
  CGR          12          0          1   3.320E-06
  CGR          13          0          1   1.200E-06
  CGR          14          1          0   5.277E-07

    CGRSolver converged.

  ==> DFCorrGrad: Density-Fitted Correlated Gradients <==

    OpenMP threads:              8
    Integrals threads:           8
    Memory (MB):              3576
    Schwarz Cutoff:          0E+00
    Fitting Condition:       1E-12

   => Auxiliary Basis Set <=

  Basis Set: (AUG-CC-PVTZ AUX)
    Blend: AUG-CC-PVTZ-JKFIT
    Number of shells: 518
    Number of basis function: 1778
    Number of Cartesian functions: 2219
    Spherical Harmonics?: true
    Max angular momentum: 4

	-----------------------------------------------------------
	 ==================> DF-MP2 Energies <==================== 
	-----------------------------------------------------------
	 Reference Energy          =    -649.6087428318298862 [Eh]
	 Singles Energy            =      -0.0000000000000002 [Eh]
	 Same-Spin Energy          =      -0.6868858383798057 [Eh]
	 Opposite-Spin Energy      =      -2.0271433495408395 [Eh]
	 Correlation Energy        =      -2.7140291879206453 [Eh]
	 Total Energy              =    -652.3227720197505732 [Eh]
	-----------------------------------------------------------
	 ================> DF-SCS-MP2 Energies <================== 
	-----------------------------------------------------------
	 SCS Same-Spin Scale       =       0.3333333333333333 [-]
	 SCS Opposite-Spin Scale   =       1.2000000000000000 [-]
	 SCS Same-Spin Energy      =      -0.2289619461266019 [Eh]
	 SCS Opposite-Spin Energy  =      -2.4325720194490073 [Eh]
	 SCS Correlation Energy    =      -2.6615339655756092 [Eh]
	 SCS Total Energy          =    -652.2702767974054723 [Eh]
	-----------------------------------------------------------


  -Total Gradient:
     Atom            X                  Y                   Z
    ------   -----------------  -----------------  -----------------
       1        0.023655938504    -0.008084560200    -0.012716241042
       2       -0.022996286590     0.011537744455     0.042180122512
       3       -0.017177579851     0.007561797814     0.007437742622
       4       -0.014761051056     0.004860723435     0.008678095602
       5       -0.045070895966     0.025117797780    -0.002003249324
       6        0.001654060036     0.004483492368     0.009653090402
       7       -0.009371582165    -0.000911643961    -0.002544558969
       8       -0.024103448421     0.012439231962     0.009619871007
       9        0.020908212117    -0.010055299152    -0.014090509635
      10        0.048967902923    -0.025390832762    -0.030096803763
      11        0.042112426447    -0.028541410857     0.000792936266
      12        0.007089705682    -0.002821982893    -0.003995152276
      13       -0.003493228894     0.001673168916     0.001020998812
      14       -0.005232113280     0.008106979710    -0.010356925231
      15       -0.003072017611    -0.000000784538    -0.005790978545
      16       -0.002322702119     0.000729760813    -0.008923495391
      17        0.000942446351     0.001463178772     0.009818152006
      18       -0.003753946940     0.001069980659    -0.004183523166
      19        0.003964176845    -0.001886849037     0.007079140743
      20        0.001536763824    -0.000754828878     0.000212796606
      21        0.000523220161    -0.000595664401    -0.001791509222


*** tstop() called on gpu-1-17.local at Mon Nov 13 13:09:01 2017
Module time:
	user time   =    4942.11 seconds =      82.37 minutes
	system time =     110.32 seconds =       1.84 minutes
	total time  =       2336 seconds =      38.93 minutes
Total time:
	user time   =    4942.12 seconds =      82.37 minutes
	system time =     110.32 seconds =       1.84 minutes
	total time  =       2336 seconds =      38.93 minutes

			-----------------------------------------
			 OPTKING 2.0: for geometry optimizations 
			  - R.A. King,  Bethel University        
			-----------------------------------------
	At level 1: Red. Int., RFO, no backsteps, dynamic trust

	Internal coordinates to be generated automatically.
	Detected frag 1 with atoms:  1 2 3 4 5 6 7 8 9 10 11 12 13 14 15 16 17 18 19 20
	 21
	---Fragment 1 Bond Connectivity---
	 1 : 2 8 15
	 2 : 1 10 16
	 3 : 6 9 17
	 4 : 7 9 18
	 5 : 10 11 19
	 6 : 3 12 20
	 7 : 4 12 21
	 8 : 1 9 11
	 9 : 3 4 8
	 10 : 2 5 13
	 11 : 5 8 14
	 12 : 6 7
	 13 : 10
	 14 : 11
	 15 : 1
	 16 : 2
	 17 : 3
	 18 : 4
	 19 : 5
	 20 : 6
	 21 : 7

	Assuming in current code that numbering for constraints corresponds to unified fragment.
	Fixed dihedral atom list: 
	     1     8     9     3
	---Fragment 1 Geometry and Gradient---
	 C          -2.5422412983        1.4510224729       -1.4764394011
	 C          -4.5793660695        2.5338355471       -0.2046537137
	 C           3.9073939933       -0.8449947785       -0.3350448169
	 C           1.1805191835       -1.8276523676       -3.8348176150
	 C          -2.7028680196        1.3697642492        3.7921170574
	 C           5.8651502669       -1.9429256617       -1.6824195496
	 C           3.2611076558       -2.8802298237       -5.0272348048
	 C          -0.5844850246        0.3266354239       -0.1158365854
	 C           1.5263390658       -0.7939721729       -1.4443140569
	 C          -4.6606242932        2.4941512983        2.4296245156
	 C          -0.6657432483        0.2869511751        2.5184416438
	 N           5.6024783345       -2.9652674996       -4.0086724192
	 O          -6.5333428909        3.4900369703        3.5993649918
	 F           1.2013061710       -0.7864132684        3.8544780198
	 H          -2.5063365017        1.4944861740       -3.5324614337
	 H          -6.0835880713        3.3955506637       -1.3120332276
	 H           4.2494344233       -0.0607584334        1.5301148763
	 H          -0.6487357131       -1.8200934631       -4.7607834201
	 H          -2.7198755548        1.3130724652        5.8481390899
	 H           7.7567661260       -2.0336325161       -0.8981832045
	 H           3.0910323039       -3.7079298699       -6.8961739502
	             0.0236559385       -0.0080845602       -0.0127162410
	            -0.0229962866        0.0115377445        0.0421801225
	            -0.0171775799        0.0075617978        0.0074377426
	            -0.0147610511        0.0048607234        0.0086780956
	            -0.0450708960        0.0251177978       -0.0020032493
	             0.0016540600        0.0044834924        0.0096530904
	            -0.0093715822       -0.0009116440       -0.0025445590
	            -0.0241034484        0.0124392320        0.0096198710
	             0.0209082121       -0.0100552992       -0.0140905096
	             0.0489679029       -0.0253908328       -0.0300968038
	             0.0421124264       -0.0285414109        0.0007929363
	             0.0070897057       -0.0028219829       -0.0039951523
	            -0.0034932289        0.0016731689        0.0010209988
	            -0.0052321133        0.0081069797       -0.0103569252
	            -0.0030720176       -0.0000007845       -0.0057909785
	            -0.0023227021        0.0007297608       -0.0089234954
	             0.0009424464        0.0014631788        0.0098181520
	            -0.0037539469        0.0010699807       -0.0041835232
	             0.0039641768       -0.0018868490        0.0070791407
	             0.0015367638       -0.0007548289        0.0002127966
	             0.0005232202       -0.0005956644       -0.0017915092

	Previous optimization step data not found.  Starting new optimization.

	---Fragment 1 Intrafragment Coordinates---
	 - Coordinate -           - BOHR/RAD -       - ANG/DEG -
	 R(1,2)           =         2.634350	       1.394038
	 R(1,8)           =         2.635962	       1.394891
	 R(1,15)          =         2.056795	       1.088409
	 R(2,10)          =         2.635830	       1.394821
	 R(2,16)          =         2.057067	       1.088553
	 R(3,6)           =         2.617953	       1.385361
	 R(3,9)           =         2.627262	       1.390287
	 R(3,17)          =         2.052033	       1.085889
	 R(4,7)           =         2.618898	       1.385861
	 R(4,9)           =         2.627279	       1.390296
	 R(4,18)          =         2.050279	       1.084961
	 R(5,10)          =         2.636938	       1.395407
	 R(5,11)          =         2.635263	       1.394521
	 R(5,19)          =         2.056874	       1.088451
	 R(6,12)          =         2.554532	       1.351800
	 R(6,20)          =         2.049748	       1.084680
	 R(7,12)          =         2.554744	       1.351912
	 R(7,21)          =         2.051084	       1.085387
	 R(8,9)           =         2.734263	       1.446909
	 R(8,11)          =         2.635830	       1.394821
	 R(10,13)         =         2.422221	       1.281784
	 R(11,14)         =         2.534359	       1.341125
	 B(1,2,10)        =         2.094553	     120.009056
	 B(1,2,16)        =         2.068903	     118.539404
	 B(1,8,9)         =         2.091392	     119.827938
	 B(1,8,11)        =         2.093692	     119.959722
	 B(2,1,8)         =         2.094940	     120.031219
	 B(2,1,15)        =         2.079908	     119.169966
	 B(2,10,5)        =         2.094306	     119.994870
	 B(2,10,13)       =         2.094719	     120.018581
	 B(3,6,12)        =         2.164725	     124.029600
	 B(3,6,20)        =         2.108045	     120.782062
	 B(3,9,4)         =         2.089569	     119.723506
	 B(3,9,8)         =         2.097245	     120.163271
	 B(4,7,12)        =         2.165118	     124.052102
	 B(4,7,21)        =         2.107369	     120.743359
	 B(4,9,8)         =         2.096370	     120.113160
	 B(5,10,13)       =         2.094160	     119.986548
	 B(5,11,8)        =         2.095181	     120.045019
	 B(5,11,14)       =         2.081414	     119.256220
	 B(6,3,9)         =         2.058483	     117.942415
	 B(6,3,17)        =         2.098357	     120.227000
	 B(6,12,7)        =         2.030835	     116.358269
	 B(7,4,9)         =         2.057640	     117.894074
	 B(7,4,18)        =         2.099782	     120.308639
	 B(8,1,15)        =         2.108336	     120.798746
	 B(8,11,14)       =         2.106591	     120.698759
	 B(9,3,17)        =         2.126341	     121.830379
	 B(9,4,18)        =         2.125762	     121.797188
	 B(9,8,11)        =         2.098101	     120.212327
	 B(10,2,16)       =         2.119728	     121.451467
	 B(10,5,11)       =         2.093699	     119.960108
	 B(10,5,19)       =         2.120101	     121.472852
	 B(11,5,19)       =         2.069385	     118.567038
	 B(12,6,20)       =         2.010415	     115.188282
	 B(12,7,21)       =         2.010698	     115.204512
	 D(1,2,10,5)      =        -0.000325	      -0.018609
	 D(1,2,10,13)     =         3.141392	     179.988520
	 D(1,8,9,3)       =         2.617550	     149.974559
	 D(1,8,9,4)       =        -0.525630	     -30.116401
	 D(1,8,11,5)      =         0.000325	       0.018608
	 D(1,8,11,14)     =        -3.141528	    -179.996269
	 D(2,1,8,9)       =        -3.141211	    -179.978157
	 D(2,1,8,11)      =        -0.000348	      -0.019945
	 D(2,10,5,11)     =         0.000301	       0.017261
	 D(2,10,5,19)     =        -3.141543	    -179.997173
	 D(3,6,12,7)      =        -0.000398	      -0.022812
	 D(3,9,4,7)       =        -0.000569	      -0.032617
	 D(3,9,4,18)      =        -3.140166	    -179.918247
	 D(3,9,8,11)      =        -0.523312	     -29.983547
	 D(4,7,12,6)      =        -0.000604	      -0.034603
	 D(4,9,3,6)       =        -0.000328	      -0.018818
	 D(4,9,3,17)      =        -3.139043	    -179.853899
	 D(4,9,8,11)      =         2.616693	     149.925494
	 D(5,10,2,16)     =         3.139529	     179.881752
	 D(5,11,8,9)      =         3.141185	     179.976658
	 D(6,3,9,8)       =         3.139683	     179.890578
	 D(6,12,7,21)     =         3.139941	     179.905359
	 D(7,4,9,8)       =        -3.140581	    -179.942058
	 D(7,12,6,20)     =         3.139700	     179.891534
	 D(8,1,2,10)      =         0.000348	       0.019955
	 D(8,1,2,16)      =        -3.139556	    -179.883288
	 D(8,9,3,17)      =         0.000969	       0.055497
	 D(8,9,4,18)      =         0.003007	       0.172312
	 D(8,11,5,10)     =        -0.000301	      -0.017270
	 D(8,11,5,19)     =         3.141536	     179.996748
	 D(9,3,6,12)      =         0.000854	       0.048931
	 D(9,3,6,20)      =        -3.139164	    -179.860850
	 D(9,4,7,12)      =         0.001083	       0.062077
	 D(9,4,7,21)      =        -3.139406	    -179.874719
	 D(9,8,1,15)      =         0.002066	       0.118384
	 D(9,8,11,14)     =        -0.000667	      -0.038219
	 D(10,2,1,15)     =         3.140283	     179.924984
	 D(10,5,11,14)    =         3.141547	     179.997392
	 D(11,5,10,13)    =        -3.141416	    -179.989865
	 D(11,8,1,15)     =        -3.140256	    -179.923403
	 D(12,6,3,17)     =         3.139616	     179.886765
	 D(12,7,4,18)     =         3.140711	     179.949482
	 D(13,10,2,16)    =        -0.001939	      -0.111119
	 D(13,10,5,19)    =        -0.000075	      -0.004300
	 D(14,11,5,19)    =         0.000199	       0.011410
	 D(15,1,2,16)     =         0.000379	       0.021741
	 D(17,3,6,20)     =        -0.000402	      -0.023015
	 D(18,4,7,21)     =         0.000221	       0.012686
	 R(3,14)          =         4.987830	       2.639446

	Current energy   :      -652.3227720198

	Generating empirical Hessian (Schlegel '84) for each fragment.
	Adding user-defined constraint: Fragment 1; Coordinate 59:
		Value =     2.617550; Fixed value    =     2.617994
		Force =     0.000222; Force constant =     0.500000
	Removing off-diagonal coupling between coordinate 59 and others.
	Taking RFO optimization step.
	Going to follow RFO solution 1.
	Using RFO vector 1.

	Determining step-restricting scale parameter for RS-RFO.
	Maximum step size allowed    0.10000

	 Iter      |step|        alpha        rfo_root  
	------------------------------------------------
	    0     0.32022       1.00000           1
	    1     0.22824       4.44163           1
	    2     0.16471      14.37299           1
	    3     0.12540      32.67155           1
	    4     0.10626      51.30725           1
	    5     0.10055      59.30147           1
	    6     0.10000      60.14163           1
	------------------------------------------------
	Norm of target step-size    0.10000
	Projected energy change by RFO approximation:        -0.0075168958

	Back-transformation to cartesian coordinates...
	The INTCO_EXCEPTion handler:
	TORS::compute_val: unable to compute torsion value
	Dynamic level is 1.
	exc.g_really_quit() is 0.
	Raising dynamic level to 2. ~

    Structure for next step:
    Molecular point group: c1
    Full point group: C1

    Geometry (in Angstrom), charge = -1, multiplicity = 1:

    C           -1.345296153776     0.767848021823    -0.781298080937
    C           -2.423296153776     1.340848021823    -0.108298080937
    C            2.067703846224    -0.447151978177    -0.177298080937
    C            0.624703846224    -0.967151978177    -2.029298080937
    C           -1.430296153776     0.724848021823     2.006701919063
    C            3.103703846224    -1.028151978177    -0.890298080937
    C            1.725703846224    -1.524151978177    -2.660298080937
    C           -0.309296153776     0.172848021823    -0.061298080937
    C            0.807703846224    -0.420151978177    -0.764298080937
    C           -2.466296153776     1.319848021823     1.285701919063
    C           -0.352296153776     0.151848021823     1.332701919063
    N            2.964703846224    -1.569151978177    -2.121298080937
    O           -3.457296153776     1.846848021823     1.904701919063
    F            0.635703846224    -0.416151978177     2.039701919063
    H           -1.326296153776     0.790848021823    -1.869298080937
    H           -3.219296153776     1.796848021823    -0.694298080937
    H            2.248703846224    -0.032151978177     0.809701919063
    H           -0.343296153776    -0.963151978177    -2.519298080937
    H           -1.439296153776     0.694848021823     3.094701919063
    H            4.104703846224    -1.076151978177    -0.475298080937
    H            1.635703846224    -1.962151978177    -3.649298080937

gradient() will perform analytic gradient computation.

*** tstart() called on gpu-1-17.local
*** at Mon Nov 13 13:09:03 2017

    SCF Algorithm Type (re)set to DF.

*** tstart() called on gpu-1-17.local
*** at Mon Nov 13 13:09:03 2017

   => Loading Basis Set <=

    Name: AUG-CC-PVTZ
    Role: ORBITAL
    Keyword: BASIS
    atoms 1-11  entry C          line   221 file /cbio/jclab/home/chayas/anaconda/envs/py35/share/psi4/basis/aug-cc-pvtz.gbs 
    atoms 12    entry N          line   267 file /cbio/jclab/home/chayas/anaconda/envs/py35/share/psi4/basis/aug-cc-pvtz.gbs 
    atoms 13    entry O          line   313 file /cbio/jclab/home/chayas/anaconda/envs/py35/share/psi4/basis/aug-cc-pvtz.gbs 
    atoms 14    entry F          line   359 file /cbio/jclab/home/chayas/anaconda/envs/py35/share/psi4/basis/aug-cc-pvtz.gbs 
    atoms 15-21 entry H          line    34 file /cbio/jclab/home/chayas/anaconda/envs/py35/share/psi4/basis/aug-cc-pvtz.gbs 


         ---------------------------------------------------------
                                   SCF
            by Justin Turney, Rob Parrish, and Andy Simmonett
                              RHF Reference
                        8 Threads,   4768 MiB Core
         ---------------------------------------------------------

  ==> Geometry <==

    Molecular point group: c1
    Full point group: C1

    Geometry (in Angstrom), charge = -1, multiplicity = 1:

       Center              X                  Y                   Z               Mass       
    ------------   -----------------  -----------------  -----------------  -----------------
           C         -1.345296153776     0.767848021823    -0.781298080937    12.000000000000
           C         -2.423296153776     1.340848021823    -0.108298080937    12.000000000000
           C          2.067703846224    -0.447151978177    -0.177298080937    12.000000000000
           C          0.624703846224    -0.967151978177    -2.029298080937    12.000000000000
           C         -1.430296153776     0.724848021823     2.006701919063    12.000000000000
           C          3.103703846224    -1.028151978177    -0.890298080937    12.000000000000
           C          1.725703846224    -1.524151978177    -2.660298080937    12.000000000000
           C         -0.309296153776     0.172848021823    -0.061298080937    12.000000000000
           C          0.807703846224    -0.420151978177    -0.764298080937    12.000000000000
           C         -2.466296153776     1.319848021823     1.285701919063    12.000000000000
           C         -0.352296153776     0.151848021823     1.332701919063    12.000000000000
           N          2.964703846224    -1.569151978177    -2.121298080937    14.003074004780
           O         -3.457296153776     1.846848021823     1.904701919063    15.994914619560
           F          0.635703846224    -0.416151978177     2.039701919063    18.998403224000
           H         -1.326296153776     0.790848021823    -1.869298080937     1.007825032070
           H         -3.219296153776     1.796848021823    -0.694298080937     1.007825032070
           H          2.248703846224    -0.032151978177     0.809701919063     1.007825032070
           H         -0.343296153776    -0.963151978177    -2.519298080937     1.007825032070
           H         -1.439296153776     0.694848021823     3.094701919063     1.007825032070
           H          4.104703846224    -1.076151978177    -0.475298080937     1.007825032070
           H          1.635703846224    -1.962151978177    -3.649298080937     1.007825032070

  Running in c1 symmetry.

  Rotational constants: A =      0.06335  B =      0.01386  C =      0.01161 [cm^-1]
  Rotational constants: A =   1899.03836  B =    415.61571  C =    348.17659 [MHz]
  Nuclear repulsion =  804.175899045491292

  Charge       = -1
  Multiplicity = 1
  Electrons    = 98
  Nalpha       = 49
  Nbeta        = 49

  ==> Algorithm <==

  SCF Algorithm Type is DF.
  DIIS enabled.
  MOM disabled.
  Fractional occupation disabled.
  Guess Type is READ.
  Energy threshold   = 1.00e-10
  Density threshold  = 1.00e-10
  Integral threshold = 0.00e+00

  ==> Primary Basis <==

  Basis Set: AUG-CC-PVTZ
    Blend: AUG-CC-PVTZ
    Number of shells: 259
    Number of basis function: 805
    Number of Cartesian functions: 945
    Spherical Harmonics?: true
    Max angular momentum: 3

   => Loading Basis Set <=

    Name: (AUG-CC-PVTZ AUX)
    Role: JKFIT
    Keyword: DF_BASIS_SCF
    atoms 1-11  entry C          line   161 file /cbio/jclab/home/chayas/anaconda/envs/py35/share/psi4/basis/aug-cc-pvtz-jkfit.gbs 
    atoms 12    entry N          line   223 file /cbio/jclab/home/chayas/anaconda/envs/py35/share/psi4/basis/aug-cc-pvtz-jkfit.gbs 
    atoms 13    entry O          line   285 file /cbio/jclab/home/chayas/anaconda/envs/py35/share/psi4/basis/aug-cc-pvtz-jkfit.gbs 
    atoms 14    entry F          line   347 file /cbio/jclab/home/chayas/anaconda/envs/py35/share/psi4/basis/aug-cc-pvtz-jkfit.gbs 
    atoms 15-21 entry H          line    69 file /cbio/jclab/home/chayas/anaconda/envs/py35/share/psi4/basis/aug-cc-pvtz-jkfit.gbs 

  Reading orbitals from file 180, no projection.

  ==> Pre-Iterations <==

   -------------------------------------------------------
    Irrep   Nso     Nmo     Nalpha   Nbeta   Ndocc  Nsocc
   -------------------------------------------------------
     A        805     805       0       0       0       0
   -------------------------------------------------------
    Total     805     805      49      49      49       0
   -------------------------------------------------------

  ==> Integral Setup <==

  ==> DFJK: Density-Fitted J/K Matrices <==

    J tasked:                  Yes
    K tasked:                  Yes
    wK tasked:                  No
    OpenMP threads:              8
    Integrals threads:           8
    Memory (MB):              3576
    Algorithm:                Disk
    Integral Cache:           NONE
    Schwarz Cutoff:          1E-12
    Fitting Condition:       1E-12

   => Auxiliary Basis Set <=

  Basis Set: (AUG-CC-PVTZ AUX)
    Blend: AUG-CC-PVTZ-JKFIT
    Number of shells: 518
    Number of basis function: 1778
    Number of Cartesian functions: 2219
    Spherical Harmonics?: true
    Max angular momentum: 4

  Minimum eigenvalue in the overlap matrix is 7.4101995811E-07.
  Using Symmetric Orthogonalization.

  SCF Guess: Orbitals guess was supplied from a previous computation.

  ==> Iterations <==

                           Total Energy        Delta E     RMS |[F,P]|

   @DF-RHF iter   0:  -649.60874283718385   -6.49609e+02   1.47867e-09 
   @DF-RHF iter   1:  -649.60874283717010    1.37561e-11   1.19784e-10 
   @DF-RHF iter   2:  -649.60874283717715   -7.04858e-12   1.64848e-11 DIIS

  ==> Post-Iterations <==

    Orbital Energies (a.u.)
    -----------------------

    Doubly Occupied:                                                      

       1A    -26.192108     2A    -20.306882     3A    -15.449185  
       4A    -11.195183     5A    -11.166924     6A    -11.164504  
       7A    -11.145946     8A    -11.128023     9A    -11.120228  
      10A    -11.115033    11A    -11.112026    12A    -11.086134  
      13A    -11.068560    14A    -11.068132    15A     -1.514084  
      16A     -1.138398    17A     -1.137403    18A     -1.026161  
      19A     -0.964913    20A     -0.922462    21A     -0.877509  
      22A     -0.849679    23A     -0.751146    24A     -0.737691  
      25A     -0.704527    26A     -0.678946    27A     -0.607434  
      28A     -0.591767    29A     -0.581623    30A     -0.568022  
      31A     -0.546383    32A     -0.529194    33A     -0.501111  
      34A     -0.486646    35A     -0.472223    36A     -0.465385  
      37A     -0.432736    38A     -0.416764    39A     -0.409225  
      40A     -0.386935    41A     -0.378344    42A     -0.359493  
      43A     -0.316338    44A     -0.306724    45A     -0.249053  
      46A     -0.240679    47A     -0.225352    48A     -0.204035  
      49A     -0.116646  

    Virtual:                                                              

      50A      0.098843    51A      0.101299    52A      0.115168  
      53A      0.120354    54A      0.125651    55A      0.128519  
      56A      0.133549    57A      0.156479    58A      0.166425  
      59A      0.174678    60A      0.177993    61A      0.183979  
      62A      0.187000    63A      0.188350    64A      0.191969  
      65A      0.198054    66A      0.198750    67A      0.206423  
      68A      0.209833    69A      0.213326    70A      0.214647  
      71A      0.217180    72A      0.221423    73A      0.227472  
      74A      0.230531    75A      0.232905    76A      0.237251  
      77A      0.239167    78A      0.242883    79A      0.247738  
      80A      0.251392    81A      0.259269    82A      0.263375  
      83A      0.266690    84A      0.269068    85A      0.275412  
      86A      0.279385    87A      0.287598    88A      0.293983  
      89A      0.299839    90A      0.314815    91A      0.317209  
      92A      0.318491    93A      0.321900    94A      0.322667  
      95A      0.324528    96A      0.326145    97A      0.332838  
      98A      0.335240    99A      0.337321   100A      0.344191  
     101A      0.347657   102A      0.353576   103A      0.363427  
     104A      0.367349   105A      0.368448   106A      0.377811  
     107A      0.380452   108A      0.384264   109A      0.387531  
     110A      0.388947   111A      0.394318   112A      0.403257  
     113A      0.409718   114A      0.413157   115A      0.416248  
     116A      0.420436   117A      0.422459   118A      0.425545  
     119A      0.430422   120A      0.439358   121A      0.443860  
     122A      0.447049   123A      0.452723   124A      0.456365  
     125A      0.463889   126A      0.472153   127A      0.476517  
     128A      0.479222   129A      0.481256   130A      0.486431  
     131A      0.496462   132A      0.503434   133A      0.510291  
     134A      0.516817   135A      0.518032   136A      0.523455  
     137A      0.533808   138A      0.541192   139A      0.545274  
     140A      0.546229   141A      0.550026   142A      0.555115  
     143A      0.557478   144A      0.561997   145A      0.564188  
     146A      0.571587   147A      0.573588   148A      0.576951  
     149A      0.581804   150A      0.583965   151A      0.584908  
     152A      0.587977   153A      0.597497   154A      0.600001  
     155A      0.601659   156A      0.603130   157A      0.607797  
     158A      0.611777   159A      0.620687   160A      0.621508  
     161A      0.625306   162A      0.628828   163A      0.632143  
     164A      0.633542   165A      0.640086   166A      0.641794  
     167A      0.645585   168A      0.650020   169A      0.654191  
     170A      0.658466   171A      0.662330   172A      0.667690  
     173A      0.678352   174A      0.681043   175A      0.686637  
     176A      0.694206   177A      0.699390   178A      0.701634  
     179A      0.704213   180A      0.711636   181A      0.716428  
     182A      0.724345   183A      0.729660   184A      0.736145  
     185A      0.742615   186A      0.743841   187A      0.751312  
     188A      0.760590   189A      0.767603   190A      0.770435  
     191A      0.791296   192A      0.795213   193A      0.798788  
     194A      0.807182   195A      0.808708   196A      0.813191  
     197A      0.814889   198A      0.821126   199A      0.828227  
     200A      0.837687   201A      0.845357   202A      0.849202  
     203A      0.854692   204A      0.855360   205A      0.859262  
     206A      0.860566   207A      0.871753   208A      0.872335  
     209A      0.878480   210A      0.887244   211A      0.890355  
     212A      0.898727   213A      0.901689   214A      0.917785  
     215A      0.926069   216A      0.933651   217A      0.936745  
     218A      0.942794   219A      0.950596   220A      0.957252  
     221A      0.968601   222A      0.975743   223A      0.982248  
     224A      0.986133   225A      0.987276   226A      0.990981  
     227A      0.999627   228A      1.002499   229A      1.008724  
     230A      1.011666   231A      1.014757   232A      1.017451  
     233A      1.020166   234A      1.025165   235A      1.037652  
     236A      1.041054   237A      1.048842   238A      1.049566  
     239A      1.054520   240A      1.060773   241A      1.064082  
     242A      1.067450   243A      1.075828   244A      1.080732  
     245A      1.083673   246A      1.087417   247A      1.091185  
     248A      1.095527   249A      1.096820   250A      1.107243  
     251A      1.109660   252A      1.116665   253A      1.120021  
     254A      1.123854   255A      1.128030   256A      1.133695  
     257A      1.136573   258A      1.140960   259A      1.144349  
     260A      1.146550   261A      1.149450   262A      1.156033  
     263A      1.161671   264A      1.167559   265A      1.171946  
     266A      1.176959   267A      1.177757   268A      1.190213  
     269A      1.191831   270A      1.194090   271A      1.202063  
     272A      1.207142   273A      1.207836   274A      1.210879  
     275A      1.215305   276A      1.223809   277A      1.227743  
     278A      1.235413   279A      1.239313   280A      1.251373  
     281A      1.257364   282A      1.263435   283A      1.270674  
     284A      1.275819   285A      1.277574   286A      1.282739  
     287A      1.288107   288A      1.296193   289A      1.297974  
     290A      1.299703   291A      1.302562   292A      1.309963  
     293A      1.314854   294A      1.320466   295A      1.323267  
     296A      1.329081   297A      1.332541   298A      1.335100  
     299A      1.340030   300A      1.346577   301A      1.351901  
     302A      1.355361   303A      1.366831   304A      1.378078  
     305A      1.381363   306A      1.387089   307A      1.391706  
     308A      1.392627   309A      1.404285   310A      1.407438  
     311A      1.409834   312A      1.419167   313A      1.430588  
     314A      1.432983   315A      1.443684   316A      1.453845  
     317A      1.460351   318A      1.468189   319A      1.474948  
     320A      1.479572   321A      1.490035   322A      1.494705  
     323A      1.503403   324A      1.509427   325A      1.521350  
     326A      1.525307   327A      1.528433   328A      1.549389  
     329A      1.552590   330A      1.556287   331A      1.568895  
     332A      1.573636   333A      1.586342   334A      1.587332  
     335A      1.605718   336A      1.608809   337A      1.614596  
     338A      1.622863   339A      1.629581   340A      1.637756  
     341A      1.650099   342A      1.653799   343A      1.663143  
     344A      1.669375   345A      1.678508   346A      1.698620  
     347A      1.706529   348A      1.710626   349A      1.714840  
     350A      1.720667   351A      1.730920   352A      1.747513  
     353A      1.750533   354A      1.752148   355A      1.766445  
     356A      1.767567   357A      1.779994   358A      1.792845  
     359A      1.795174   360A      1.801194   361A      1.816005  
     362A      1.821990   363A      1.830018   364A      1.834749  
     365A      1.838544   366A      1.842069   367A      1.843835  
     368A      1.852051   369A      1.863536   370A      1.867289  
     371A      1.876802   372A      1.897985   373A      1.909154  
     374A      1.910169   375A      1.914082   376A      1.927299  
     377A      1.933072   378A      1.935861   379A      1.946061  
     380A      1.956917   381A      1.958636   382A      1.972215  
     383A      1.978648   384A      1.989366   385A      2.003840  
     386A      2.011206   387A      2.015468   388A      2.025362  
     389A      2.036255   390A      2.045009   391A      2.058156  
     392A      2.065423   393A      2.072955   394A      2.076882  
     395A      2.081994   396A      2.090718   397A      2.098038  
     398A      2.101909   399A      2.108110   400A      2.121425  
     401A      2.124600   402A      2.132394   403A      2.137466  
     404A      2.142480   405A      2.150592   406A      2.156712  
     407A      2.162492   408A      2.174012   409A      2.182481  
     410A      2.190045   411A      2.192957   412A      2.199568  
     413A      2.207906   414A      2.215334   415A      2.220264  
     416A      2.227796   417A      2.233212   418A      2.243285  
     419A      2.254104   420A      2.265274   421A      2.275552  
     422A      2.287147   423A      2.292036   424A      2.297536  
     425A      2.309063   426A      2.309671   427A      2.324961  
     428A      2.332344   429A      2.340825   430A      2.346507  
     431A      2.356857   432A      2.363326   433A      2.374785  
     434A      2.375501   435A      2.397897   436A      2.408617  
     437A      2.417230   438A      2.428103   439A      2.437443  
     440A      2.452980   441A      2.458418   442A      2.467153  
     443A      2.481755   444A      2.486384   445A      2.487893  
     446A      2.498362   447A      2.504090   448A      2.519149  
     449A      2.528784   450A      2.532424   451A      2.550661  
     452A      2.563810   453A      2.585641   454A      2.588790  
     455A      2.594480   456A      2.602239   457A      2.624180  
     458A      2.633804   459A      2.637938   460A      2.651503  
     461A      2.673308   462A      2.681552   463A      2.688825  
     464A      2.698665   465A      2.706215   466A      2.712064  
     467A      2.717571   468A      2.731987   469A      2.758639  
     470A      2.772546   471A      2.775983   472A      2.808547  
     473A      2.815537   474A      2.824656   475A      2.854278  
     476A      2.865310   477A      2.884851   478A      2.890240  
     479A      2.910163   480A      2.915901   481A      2.930999  
     482A      2.956359   483A      2.959316   484A      2.980396  
     485A      2.999588   486A      3.021699   487A      3.031168  
     488A      3.044689   489A      3.084956   490A      3.100071  
     491A      3.102979   492A      3.125188   493A      3.147194  
     494A      3.158287   495A      3.172585   496A      3.193741  
     497A      3.212470   498A      3.219877   499A      3.243423  
     500A      3.257708   501A      3.274232   502A      3.296250  
     503A      3.308879   504A      3.318076   505A      3.324506  
     506A      3.333094   507A      3.352017   508A      3.364921  
     509A      3.375611   510A      3.397231   511A      3.410849  
     512A      3.430552   513A      3.443312   514A      3.451767  
     515A      3.457915   516A      3.466870   517A      3.473856  
     518A      3.489633   519A      3.491680   520A      3.512686  
     521A      3.518150   522A      3.524400   523A      3.531932  
     524A      3.542870   525A      3.554010   526A      3.563469  
     527A      3.571121   528A      3.583853   529A      3.593395  
     530A      3.609901   531A      3.618439   532A      3.620458  
     533A      3.634642   534A      3.636297   535A      3.642273  
     536A      3.651131   537A      3.664588   538A      3.673395  
     539A      3.681420   540A      3.693183   541A      3.698313  
     542A      3.699059   543A      3.709084   544A      3.715658  
     545A      3.733958   546A      3.742725   547A      3.747326  
     548A      3.757236   549A      3.768216   550A      3.783745  
     551A      3.789025   552A      3.792811   553A      3.802888  
     554A      3.809616   555A      3.817179   556A      3.822210  
     557A      3.832900   558A      3.838596   559A      3.860743  
     560A      3.873004   561A      3.880496   562A      3.892282  
     563A      3.912968   564A      3.915655   565A      3.919302  
     566A      3.923322   567A      3.934368   568A      3.942973  
     569A      3.947826   570A      3.950404   571A      3.952860  
     572A      3.972816   573A      3.989509   574A      3.990585  
     575A      4.002125   576A      4.012189   577A      4.020990  
     578A      4.035193   579A      4.037806   580A      4.050329  
     581A      4.054368   582A      4.063620   583A      4.069083  
     584A      4.071249   585A      4.088210   586A      4.096511  
     587A      4.103074   588A      4.110839   589A      4.123706  
     590A      4.126350   591A      4.137701   592A      4.141741  
     593A      4.150368   594A      4.153130   595A      4.163376  
     596A      4.182567   597A      4.187040   598A      4.194571  
     599A      4.198987   600A      4.216561   601A      4.225731  
     602A      4.233353   603A      4.245763   604A      4.253498  
     605A      4.262501   606A      4.264963   607A      4.280861  
     608A      4.309354   609A      4.310359   610A      4.333388  
     611A      4.337119   612A      4.345817   613A      4.354653  
     614A      4.357378   615A      4.360864   616A      4.376044  
     617A      4.379647   618A      4.403519   619A      4.415066  
     620A      4.421248   621A      4.428703   622A      4.438961  
     623A      4.443557   624A      4.457417   625A      4.460026  
     626A      4.468465   627A      4.481477   628A      4.486991  
     629A      4.498995   630A      4.504140   631A      4.509740  
     632A      4.520186   633A      4.529458   634A      4.538628  
     635A      4.544369   636A      4.551672   637A      4.557814  
     638A      4.572415   639A      4.586737   640A      4.594055  
     641A      4.610656   642A      4.625454   643A      4.632916  
     644A      4.644882   645A      4.647649   646A      4.664530  
     647A      4.675835   648A      4.683206   649A      4.720447  
     650A      4.724223   651A      4.729148   652A      4.751504  
     653A      4.760457   654A      4.774944   655A      4.777277  
     656A      4.787766   657A      4.805587   658A      4.827060  
     659A      4.835524   660A      4.848838   661A      4.870911  
     662A      4.879545   663A      4.902072   664A      4.922873  
     665A      4.927019   666A      4.932388   667A      4.941141  
     668A      4.979535   669A      4.989518   670A      4.998580  
     671A      5.005258   672A      5.026565   673A      5.034980  
     674A      5.056881   675A      5.068760   676A      5.086043  
     677A      5.092976   678A      5.104196   679A      5.122286  
     680A      5.124475   681A      5.137667   682A      5.155714  
     683A      5.167956   684A      5.178303   685A      5.189913  
     686A      5.199532   687A      5.217859   688A      5.234640  
     689A      5.247972   690A      5.264240   691A      5.269764  
     692A      5.278557   693A      5.286066   694A      5.293742  
     695A      5.311789   696A      5.314957   697A      5.331336  
     698A      5.343338   699A      5.356268   700A      5.371133  
     701A      5.377580   702A      5.392869   703A      5.412489  
     704A      5.437597   705A      5.450734   706A      5.468688  
     707A      5.473773   708A      5.500201   709A      5.521145  
     710A      5.525366   711A      5.552677   712A      5.558653  
     713A      5.576853   714A      5.600060   715A      5.620251  
     716A      5.651038   717A      5.663238   718A      5.680948  
     719A      5.710212   720A      5.721359   721A      5.743145  
     722A      5.780898   723A      5.811381   724A      5.816967  
     725A      5.857539   726A      5.867548   727A      5.902275  
     728A      5.917999   729A      5.939999   730A      5.949161  
     731A      5.964316   732A      5.983532   733A      5.993782  
     734A      6.020205   735A      6.051269   736A      6.101341  
     737A      6.126239   738A      6.196571   739A      6.198119  
     740A      6.266118   741A      6.316501   742A      6.335436  
     743A      6.361595   744A      6.382826   745A      6.423336  
     746A      6.443305   747A      6.538436   748A      6.555377  
     749A      6.591966   750A      6.609872   751A      6.627060  
     752A      6.676755   753A      6.731345   754A      6.802764  
     755A      6.822553   756A      6.833186   757A      6.849548  
     758A      6.891469   759A      6.897784   760A      6.981578  
     761A      6.995887   762A      7.022056   763A      7.057520  
     764A      7.089076   765A      7.176725   766A      7.181824  
     767A      7.204027   768A      7.295761   769A      7.332925  
     770A      7.350594   771A      7.544577   772A      7.599550  
     773A      7.605621   774A      7.638140   775A      7.917201  
     776A      7.929714   777A      8.015609   778A      8.136457  
     779A      8.211016   780A      9.235785   781A      9.258157  
     782A      9.409249   783A      9.427779   784A      9.558212  
     785A      9.660741   786A      9.694869   787A      9.754086  
     788A      9.797720   789A      9.866229   790A     10.181207  
     791A     10.244190   792A     15.684476   793A     16.015363  
     794A     16.445545   795A     16.826726   796A     16.924856  
     797A     17.015253   798A     18.589934   799A     18.985353  
     800A     19.445125   801A     19.983231   802A     20.294500  
     803A     20.440629   804A     20.772341   805A     21.771695  

    Final Occupation by Irrep:
              A 
    DOCC [    49 ]

  Energy converged.

  @DF-RHF Final Energy:  -649.60874283717715

   => Energetics <=

    Nuclear Repulsion Energy =            804.1758990454912919
    One-Electron Energy =               -2497.5414823789337788
    Two-Electron Energy =                1043.7568404962653403
    DFT Exchange-Correlation Energy =       0.0000000000000000
    Empirical Dispersion Energy =           0.0000000000000000
    PCM Polarization Energy =               0.0000000000000000
    EFP Energy =                            0.0000000000000000
    Total Energy =                       -649.6087428371770329



Properties will be evaluated at   0.000000,   0.000000,   0.000000 Bohr

Properties computed using the SCF density matrix

  Nuclear Dipole Moment: (a.u.)
     X:     0.9322      Y:    -0.2981      Z:    -6.8803

  Electronic Dipole Moment: (a.u.)
     X:     1.5291      Y:    -0.9973      Z:     5.2753

  Dipole Moment: (a.u.)
     X:     2.4612      Y:    -1.2954      Z:    -1.6050     Total:     3.2112

  Dipole Moment: (Debye)
     X:     6.2558      Y:    -3.2925      Z:    -4.0795     Total:     8.1620


*** tstop() called on gpu-1-17.local at Mon Nov 13 13:11:52 2017
Module time:
	user time   =     304.61 seconds =       5.08 minutes
	system time =      12.58 seconds =       0.21 minutes
	total time  =        169 seconds =       2.82 minutes
Total time:
	user time   =    5247.10 seconds =      87.45 minutes
	system time =     124.32 seconds =       2.07 minutes
[...]
	 R(5,10)          =         2.710861	       1.434526
	 R(5,11)          =         2.581992	       1.366332
	 R(5,19)          =         2.039205	       1.079101
	 R(6,12)          =         2.530300	       1.338977
	 R(6,20)          =         2.046037	       1.082716
	 R(7,12)          =         2.530156	       1.338901
	 R(7,21)          =         2.046258	       1.082833
	 R(8,9)           =         2.723385	       1.441153
	 R(8,11)          =         2.642355	       1.398274
	 R(10,13)         =         2.381167	       1.260060
	 R(11,14)         =         2.591929	       1.371590
	 B(1,2,10)        =         2.140468	     122.639803
	 B(1,2,16)        =         2.096397	     120.114723
	 B(1,8,9)         =         2.118413	     121.376127
	 B(1,8,11)        =         1.987233	     113.860051
	 B(2,1,8)         =         2.153123	     123.364848
	 B(2,1,15)        =         2.069662	     118.582923
	 B(2,10,5)        =         1.979970	     113.443945
	 B(2,10,13)       =         2.154773	     123.459372
	 B(3,6,12)        =         2.176389	     124.697905
	 B(3,6,20)        =         2.082787	     119.334896
	 B(3,9,4)         =         1.998128	     114.484309
	 B(3,9,8)         =         2.165860	     124.094645
	 B(4,7,12)        =         2.170144	     124.340095
	 B(4,7,21)        =         2.086637	     119.555479
	 B(4,9,8)         =         2.118604	     121.387080
	 B(5,10,13)       =         2.148436	     123.096318
	 B(5,11,8)        =         2.177849	     124.781581
	 B(5,11,14)       =         2.041401	     116.963640
	 B(6,3,9)         =         2.103226	     120.505955
	 B(6,3,17)        =         2.083167	     119.356667
	 B(6,12,7)        =         2.008473	     115.077030
	 B(7,4,9)         =         2.109976	     120.892712
	 B(7,4,18)        =         2.079614	     119.153110
	 B(8,1,15)        =         2.059467	     117.998759
	 B(8,11,14)       =         2.063108	     118.207386
	 B(9,3,17)        =         2.096667	     120.130153
	 B(9,4,18)        =         2.093286	     119.936482
	 B(9,8,11)        =         2.177384	     124.754901
	 B(10,2,16)       =         2.046224	     117.239993
	 B(10,5,11)       =         2.127578	     121.901224
	 B(10,5,19)       =         2.073666	     118.812318
	 B(11,5,19)       =         2.081891	     119.283576
	 B(12,6,20)       =         2.023975	     115.965224
	 B(12,7,21)       =         2.026344	     116.100942
	 D(1,2,10,5)      =         0.009994	       0.572597
	 D(1,2,10,13)     =        -3.135334	    -179.641395
	 D(1,8,9,3)       =         2.620360	     150.135579
	 D(1,8,9,4)       =        -0.482165	     -27.625992
	 D(1,8,11,5)      =         0.014180	       0.812463
	 D(1,8,11,14)     =         3.110639	     178.226479
	 D(2,1,8,9)       =        -3.123387	    -178.956868
	 D(2,1,8,11)      =         0.000105	       0.005998
	 D(2,10,5,11)     =         0.003635	       0.208281
	 D(2,10,5,19)     =        -3.127097	    -179.169472
	 D(3,6,12,7)      =        -0.003572	      -0.204683
	 D(3,9,4,7)       =        -0.007839	      -0.449137
	 D(3,9,4,18)      =         3.106820	     178.007669
	 D(3,9,8,11)      =        -0.501083	     -28.709953
	 D(4,7,12,6)      =        -0.002655	      -0.152124
	 D(4,9,3,6)       =         0.002103	       0.120516
	 D(4,9,3,17)      =         3.126522	     179.136521
	 D(4,9,8,11)      =         2.679577	     153.528476
	 D(5,10,2,16)     =        -3.116730	    -178.575478
	 D(5,11,8,9)      =         3.136963	     179.734716
	 D(6,3,9,8)       =        -3.102844	    -177.779858
	 D(6,12,7,21)     =        -3.132303	    -179.467751
	 D(7,4,9,8)       =         3.098206	     177.514119
	 D(7,12,6,20)     =        -3.136148	    -179.688024
	 D(8,1,2,10)      =        -0.012215	      -0.699859
	 D(8,1,2,16)      =         3.114095	     178.424504
	 D(8,9,3,17)      =         0.021575	       1.236148
	 D(8,9,4,18)      =        -0.070321	      -4.029076
	 D(8,11,5,10)     =        -0.016481	      -0.944298
	 D(8,11,5,19)     =         3.114202	     178.430606
	 D(9,3,6,12)      =         0.003789	       0.217066
	 D(9,3,6,20)      =         3.136081	     179.684233
	 D(9,4,7,12)      =         0.008679	       0.497260
	 D(9,4,7,21)      =         3.137940	     179.790746
	 D(9,8,1,15)      =        -0.028936	      -1.657923
	 D(9,8,11,14)     =        -0.049764	      -2.851268
	 D(10,2,1,15)     =        -3.106406	    -177.983930
	 D(10,5,11,14)    =        -3.113449	    -178.387498
	 D(11,5,10,13)    =        -3.134238	    -179.578616
	 D(11,8,1,15)     =         3.094555	     177.304943
	 D(12,6,3,17)     =        -3.120762	    -178.806502
	 D(12,7,4,18)     =        -3.106188	    -177.971461
	 D(13,10,2,16)    =         0.021128	       1.210530
	 D(13,10,5,19)    =         0.018215	       1.043632
	 D(14,11,5,19)    =         0.017233	       0.987406
	 D(15,1,2,16)     =         0.019904	       1.140433
	 D(17,3,6,20)     =         0.011531	       0.660666
	 D(18,4,7,21)     =         0.023074	       1.322024
	 R(3,14)          =         5.337441	       2.824452

	Current energy   :      -652.3361508252

	Energy change for the previous step:
		Projected    :        -0.0000025287
		Actual       :        -0.0000001723

	Performing BFGS update.
	Previous computed or guess Hessian on step 1.
	Steps to be used in Hessian update: 6 5
	Adding user-defined constraint: Fragment 1; Coordinate 59:
		Value =     2.620360; Fixed value    =     2.617990
		Force =    -0.001541; Force constant =     0.650000
	Removing off-diagonal coupling between coordinate 59 and others.
	Taking RFO optimization step.
	Going to follow RFO solution 1.
	Using RFO vector 1.
	Norm of target step-size    0.00411
	Projected energy change by RFO approximation:         0.0000007375

	Back-transformation to cartesian coordinates...
	Could not converge backtransformation.
	Using first guess instead.

	--- Internal Coordinate Step in ANG or DEG, aJ/ANG or AJ/DEG ---
	 ---------------------------------------------------------------------------
	   Coordinate                Previous        Force       Change         New 
	   ----------                --------       ------       ------       ------
	    1 R(1,2)          =      1.372748    -0.000036    -0.000012     1.372737
	    2 R(1,8)          =      1.409082     0.000207     0.000060     1.409143
	    3 R(1,15)         =      1.082119    -0.000033    -0.000018     1.082100
	    4 R(2,10)         =      1.436948     0.000294     0.000018     1.436966
	    5 R(2,16)         =      1.080947    -0.000014    -0.000016     1.080931
	    6 R(3,6)          =      1.383297     0.000016    -0.000009     1.383288
	    7 R(3,9)          =      1.402357     0.000216     0.000034     1.402391
	    8 R(3,17)         =      1.076962     0.000112     0.000023     1.076985
	    9 R(4,7)          =      1.382345     0.000240     0.000031     1.382375
	   10 R(4,9)          =      1.402491    -0.000373    -0.000060     1.402431
	   11 R(4,18)         =      1.079431     0.000059     0.000005     1.079435
	   12 R(5,10)         =      1.434526    -0.000298    -0.000111     1.434415
	   13 R(5,11)         =      1.366332     0.000004    -0.000002     1.366330
	   14 R(5,19)         =      1.079101     0.000068     0.000008     1.079109
	   15 R(6,12)         =      1.338977    -0.000283    -0.000052     1.338925
	   16 R(6,20)         =      1.082716    -0.000011    -0.000005     1.082712
	   17 R(7,12)         =      1.338901    -0.000443    -0.000069     1.338832
	   18 R(7,21)         =      1.082833    -0.000004     0.000001     1.082834
	   19 R(8,9)          =      1.441153     0.000180     0.000087     1.441240
	   20 R(8,11)         =      1.398274     0.000141    -0.000002     1.398272
	   21 R(10,13)        =      1.260060     0.000438     0.000087     1.260147
	   22 R(11,14)        =      1.371590    -0.000387    -0.000051     1.371538
	   23 B(1,2,10)       =    122.639803     0.000001     0.003438   122.643240
	   24 B(1,2,16)       =    120.114723    -0.000001    -0.012994   120.101729
	   25 B(1,8,9)        =    121.376127     0.000001    -0.012608   121.363519
	   26 B(1,8,11)       =    113.860051    -0.000002    -0.012253   113.847798
	   27 B(2,1,8)        =    123.364848     0.000001     0.006645   123.371493
	   28 B(2,1,15)       =    118.582923    -0.000000    -0.003489   118.579434
	   29 B(2,10,5)       =    113.443945    -0.000002    -0.011972   113.431973
	   30 B(2,10,13)      =    123.459372     0.000001     0.004240   123.463612
	   31 B(3,6,12)       =    124.697905    -0.000001    -0.005267   124.692638
	   32 B(3,6,20)       =    119.334896     0.000000     0.003161   119.338057
	   33 B(3,9,4)        =    114.484309    -0.000001    -0.006586   114.477723
	   34 B(3,9,8)        =    124.094645    -0.000003    -0.004857   124.089787
	   35 B(4,7,12)       =    124.340095     0.000000     0.001080   124.341176
	   36 B(4,7,21)       =    119.555479    -0.000000    -0.001170   119.554309
	   37 B(4,9,8)        =    121.387080     0.000004     0.012994   121.400074
	   38 B(5,10,13)      =    123.096318     0.000002     0.007665   123.103983
	   39 B(5,11,8)       =    124.781581     0.000000     0.000683   124.782264
	   40 B(5,11,14)      =    116.963640     0.000000    -0.006228   116.957412
	   41 B(6,3,9)        =    120.505955     0.000001     0.006616   120.512571
	   42 B(6,3,17)       =    119.356667     0.000001     0.010802   119.367469
	   43 B(6,12,7)       =    115.077030     0.000001     0.002567   115.079597
	   44 B(7,4,9)        =    120.892712     0.000000     0.001596   120.894307
	   45 B(7,4,18)       =    119.153110    -0.000001    -0.007959   119.145151
	   46 B(8,1,15)       =    117.998759    -0.000000    -0.004037   117.994722
	   47 B(8,11,14)      =    118.207386    -0.000000     0.009434   118.216820
	   48 B(9,3,17)       =    120.130153    -0.000002    -0.017461   120.112692
	   49 B(9,4,18)       =    119.936482     0.000000     0.006522   119.943004
	   50 B(9,8,11)       =    124.754901     0.000001     0.024975   124.779876
	   51 B(10,2,16)      =    117.239993     0.000000     0.009285   117.249278
	   52 B(10,5,11)      =    121.901224     0.000003     0.014121   121.915345
	   53 B(10,5,19)      =    118.812318     0.000000     0.008017   118.820335
	   54 B(11,5,19)      =    119.283576    -0.000003    -0.022185   119.261391
	   55 B(12,6,20)      =    115.965224     0.000000     0.002080   115.967303
	   56 B(12,7,21)      =    116.100942     0.000000     0.000570   116.101512
	   57 D(1,2,10,5)     =      0.572597    -0.000000    -0.007970     0.564627
	   58 D(1,2,10,13)    =   -179.641395    -0.000000    -0.026691  -179.668086
	   59 D(1,8,9,3)      =    150.135579    -0.000002     0.000890   150.136469
	   60 D(1,8,9,4)      =    -27.625992    -0.000001    -0.050647   -27.676639
	   61 D(1,8,11,5)     =      0.812463     0.000000    -0.045446     0.767017
	   62 D(1,8,11,14)    =    178.226479     0.000001     0.062728   178.289207
	   63 D(2,1,8,9)      =   -178.956868     0.000000     0.008957  -178.947911
	   64 D(2,1,8,11)     =      0.005998    -0.000000     0.015849     0.021847
	   65 D(2,10,5,11)    =      0.208281    -0.000000    -0.019829     0.188452
	   66 D(2,10,5,19)    =   -179.169472    -0.000000    -0.014704  -179.184177
	   67 D(3,6,12,7)     =     -0.204683    -0.000000    -0.027810    -0.232493
	   68 D(3,9,4,7)      =     -0.449137     0.000000    -0.009075    -0.458211
	   69 D(3,9,4,18)     =    178.007669     0.000000    -0.002250   178.005419
	   70 D(3,9,8,11)     =    -28.709953    -0.000001    -0.006326   -28.716279
	   71 D(4,7,12,6)     =     -0.152124     0.000000     0.041774    -0.110350
	   72 D(4,9,3,6)      =      0.120516    -0.000000     0.021943     0.142459
	   73 D(4,9,3,17)     =    179.136521    -0.000000     0.019119   179.155640
	   74 D(4,9,8,11)     =    153.528476    -0.000001    -0.057863   153.470612
	   75 D(5,10,2,16)    =   -178.575478     0.000000     0.012963  -178.562515
	   76 D(5,11,8,9)     =    179.734716    -0.000001    -0.038752   179.695964
	   77 D(6,3,9,8)      =   -177.779858     0.000000    -0.026787  -177.806645
	   78 D(6,12,7,21)    =   -179.467751    -0.000000    -0.007106  -179.474857
	   79 D(7,4,9,8)      =    177.514119    -0.000000     0.037805   177.551924
	   80 D(7,12,6,20)    =   -179.688024    -0.000000    -0.024438  -179.712462
	   81 D(8,1,2,10)     =     -0.699859     0.000000     0.009397    -0.690462
	   82 D(8,1,2,16)     =    178.424504     0.000000    -0.011926   178.412578
	   83 D(8,9,3,17)     =      1.236148     0.000000    -0.029611     1.206536
	   84 D(8,9,4,18)     =     -4.029076    -0.000000     0.044630    -3.984446
	   85 D(8,11,5,10)    =     -0.944298     0.000000     0.049453    -0.894844
	   86 D(8,11,5,19)    =    178.430606     0.000000     0.044491   178.475097
	   87 D(9,3,6,12)     =      0.217066     0.000000    -0.003756     0.213310
	   88 D(9,3,6,20)     =    179.684233     0.000000    -0.007240   179.676993
	   89 D(9,4,7,12)     =      0.497260    -0.000000    -0.024298     0.472962
	   90 D(9,4,7,21)     =    179.790746     0.000000     0.026175   179.816921
	   91 D(9,8,1,15)     =     -1.657923     0.000000    -0.013292    -1.671215
	   92 D(9,8,11,14)    =     -2.851268     0.000000     0.069423    -2.781846
	   93 D(10,2,1,15)    =   -177.983930     0.000000     0.031781  -177.952149
	   94 D(10,5,11,14)   =   -178.387498    -0.000000    -0.057851  -178.445348
	   95 D(11,5,10,13)   =   -179.578616    -0.000000    -0.001177  -179.579792
	   96 D(11,8,1,15)    =    177.304943    -0.000000    -0.006400   177.298544
	   97 D(12,6,3,17)    =   -178.806502     0.000000    -0.000676  -178.807178
	   98 D(12,7,4,18)    =   -177.971461    -0.000000    -0.031288  -178.002749
	   99 D(13,10,2,16)   =      1.210530     0.000000    -0.005758     1.204772
	  100 D(13,10,5,19)   =      1.043632    -0.000000     0.003948     1.047580
	  101 D(14,11,5,19)   =      0.987406    -0.000000    -0.062813     0.924593
	  102 D(15,1,2,16)    =      1.140433     0.000000     0.010458     1.150891
	  103 D(17,3,6,20)    =      0.660666     0.000000    -0.004160     0.656506
	  104 D(18,4,7,21)    =      1.322024     0.000000     0.019185     1.341209
	  105 R(3,14)         =      2.824452     0.000136     0.000737     2.825189
	 ---------------------------------------------------------------------------
	Successfully symmetrized geometry.
	 Forces used to impose fixed constraints are not included.
	  Forces zeroed: 59 

  ==> Convergence Check <==

  Measures of convergence in internal coordinates in au.
  Criteria marked as inactive (o), active & met (*), and active & unmet ( ).
  ---------------------------------------------------------------------------------------------
   Step     Total Energy     Delta E     MAX Force     RMS Force      MAX Disp      RMS Disp   
  ---------------------------------------------------------------------------------------------
    Convergence Criteria    1.00e-06 *    3.00e-04 *             o    1.20e-03 *             o
  ---------------------------------------------------------------------------------------------
      7    -652.33615083   -1.72e-07 *    7.80e-05 *    2.19e-05 o    1.39e-03      4.01e-04 o  ~
  ---------------------------------------------------------------------------------------------


  **** Optimization is complete! (in 7 steps) ****

  ==> Optimization Summary <==

  Measures of convergence in internal coordinates in au.
  --------------------------------------------------------------------------------------------------------------- ~
   Step         Total Energy             Delta E       MAX Force       RMS Force        MAX Disp        RMS Disp  ~
  --------------------------------------------------------------------------------------------------------------- ~
      1    -652.322772025405   -652.322772025405      0.02677767      0.00743662      0.06741890      0.01950755  ~
      2    -652.332545667132     -0.009773641727      0.01303940      0.00321182      0.12694579      0.01953655  ~
      3    -652.335659453931     -0.003113786799      0.00494505      0.00086572      0.09372670      0.01267251  ~
      4    -652.336083858264     -0.000424404332      0.00132472      0.00025249      0.04568494      0.00565073  ~
      5    -652.336145352391     -0.000061494128      0.00065482      0.00012062      0.01512901      0.00210941  ~
      6    -652.336150652895     -0.000005300504      0.00015343      0.00004552      0.00157929      0.00046390  ~
      7    -652.336150825241     -0.000000172346      0.00010395      0.00002415      0.00139306      0.00040125  ~
  --------------------------------------------------------------------------------------------------------------- ~

	Writing optimization data to binary file.
	Final energy is   -652.3361508252412
	Final (previous) structure:
	Cartesian Geometry (in Angstrom)
	    C    -1.3493090306   0.7272205298  -0.7363210990
	    C    -2.4205378753   1.3199152268  -0.1153380034
	    C     2.1378899756  -0.5213794956  -0.2201355618
	    C     0.6925746301  -0.9869732446  -2.0251630295
	    C    -1.4626233911   0.7616511327   2.0138965748
	    C     3.1634593649  -1.0658804716  -0.9719577767
	    C     1.7798396480  -1.5055050047  -2.7032901583
	    C    -0.2807915013   0.1312281184  -0.0373391475
	    C     0.8342178000  -0.4598866705  -0.7332272752
	    C    -2.5556870271   1.3728672869   1.3142600181
	    C    -0.4082218862   0.1967873598   1.3535722431
	    N     3.0224405531  -1.5614278272  -2.2078402476
	    O    -3.5350908223   1.9069128155   1.9001897318
	    F     0.5649752332  -0.3893206147   2.1220921058
	    H    -1.2975016042   0.7538840649  -1.8168701194
	    H    -3.1996293956   1.7841660200  -0.7034997333
	    H     2.3522601376  -0.1292429839   0.7597218740
	    H    -0.2801232511  -1.0136605315  -2.4924071867
	    H    -1.4822611767   0.7407099627   3.0926156644
	    H     4.1638565961  -1.0991237321  -0.5591932837
	    H     1.6451785655  -1.9100842380  -3.6986341664
	Saving final (previous) structure.
			--------------------------
			 OPTKING Finished Execution 
			--------------------------

    Final optimized geometry and variables:
    Molecular point group: c1
    Full point group: C1

    Geometry (in Angstrom), charge = -1, multiplicity = 1:

    C           -1.349309030582     0.727220529802    -0.736321098990
    C           -2.420537875350     1.319915226781    -0.115338003352
    C            2.137889975609    -0.521379495590    -0.220135561826
    C            0.692574630081    -0.986973244559    -2.025163029538
    C           -1.462623391077     0.761651132659     2.013896574840
    C            3.163459364935    -1.065880471636    -0.971957776713
    C            1.779839648023    -1.505505004688    -2.703290158287
    C           -0.280791501310     0.131228118425    -0.037339147527
    C            0.834217800007    -0.459886670462    -0.733227275184
    C           -2.555687027100     1.372867286904     1.314260018057
    C           -0.408221886203     0.196787359775     1.353572243115
    N            3.022440553066    -1.561427827249    -2.207840247567
    O           -3.535090822350     1.906912815501     1.900189731800
    F            0.564975233194    -0.389320614670     2.122092105828
    H           -1.297501604245     0.753884064923    -1.816870119443
    H           -3.199629395575     1.784166020040    -0.703499733304
    H            2.352260137592    -0.129242983856     0.759721873994
    H           -0.280123251128    -1.013660531543    -2.492407186673
    H           -1.482261176696     0.740709962710     3.092615664357
    H            4.163856596136    -1.099123732080    -0.559193283734
    H            1.645178565481    -1.910084237994    -3.698634166373

	Cleaning optimization helper files.

*** Psi4 exiting successfully. Buy a developer a beer!
