
    -----------------------------------------------------------------------
          Psi4: An Open-Source Ab Initio Electronic Structure Package
                               Psi4 1.1 release

                         Git: Rev {HEAD} add49b9 


    R. M. Parrish, L. A. Burns, D. G. A. Smith, A. C. Simmonett,
    A. E. DePrince III, E. G. Hohenstein, U. Bozkaya, A. Yu. Sokolov,
    R. Di Remigio, R. M. Richard, J. F. Gonthier, A. M. James,
    H. R. McAlexander, A. Kumar, M. Saitow, X. Wang, B. P. Pritchard,
    P. Verma, H. F. Schaefer III, K. Patkowski, R. A. King, E. F. Valeev,
    F. A. Evangelista, J. M. Turney, T. D. Crawford, and C. D. Sherrill,
    J. Chem. Theory Comput. in press (2017).
    (doi: 10.1021/acs.jctc.7b00174)

    -----------------------------------------------------------------------


    Psi4 started on: Saturday, 11 November 2017 07:39PM

    Process ID:  13336
    PSIDATADIR: /cbio/jclab/home/chayas/anaconda/envs/py35/share/psi4
    Memory:     500.0 MiB
    Threads:    8
    
  ==> Input File <==

--------------------------------------------------------------------------

memory 5 Gb

molecule phepyrFOH_cation {
  symmetry C1
  1 1 
  C      1.885   -1.036   -0.112
  C      0.807   -0.463   0.561
  C      4.830   -1.443   -0.930
  C      4.321   -3.578   0.063
  C      1.800   -1.079   2.676
  C      5.894   -2.040   -1.592
  C      5.398   -4.120   -0.624
  C      2.921   -1.631   0.608
  C      4.038   -2.225   -0.095
  C      0.764   -0.484   1.955
  C      2.878   -1.652   2.002
  N      6.144   -3.345   -1.422
  O      -0.289   0.076   2.612
  F      3.866   -2.220   2.709
  H      1.904   -1.012   -1.199
  H      0.002   -0.002   -0.006
  H      4.632   -0.385   -1.072
  H      3.719   -4.212   0.708
  H      1.772   -1.099   3.762
  H      6.561   -1.511   -2.259
  H      5.691   -5.159   -0.561
  H      6.930   -3.764   -1.918
  H      -0.988   -0.583   2.749
  units Angstrom
}

dih_string = "2 10 13 23 90"
set optking fixed_dihedral = $dih_string

optimize('MP2/aug-cc-PVTZ')
--------------------------------------------------------------------------

  Memory set to   4.657 GiB by Python driver.
gradient() will perform analytic gradient computation.

*** tstart() called on gpu-2-7.local
*** at Sat Nov 11 19:39:23 2017

    SCF Algorithm Type (re)set to DF.

*** tstart() called on gpu-2-7.local
*** at Sat Nov 11 19:39:23 2017

   => Loading Basis Set <=

    Name: AUG-CC-PVTZ
    Role: ORBITAL
    Keyword: BASIS
    atoms 1-11  entry C          line   221 file /cbio/jclab/home/chayas/anaconda/envs/py35/share/psi4/basis/aug-cc-pvtz.gbs 
    atoms 12    entry N          line   267 file /cbio/jclab/home/chayas/anaconda/envs/py35/share/psi4/basis/aug-cc-pvtz.gbs 
    atoms 13    entry O          line   313 file /cbio/jclab/home/chayas/anaconda/envs/py35/share/psi4/basis/aug-cc-pvtz.gbs 
    atoms 14    entry F          line   359 file /cbio/jclab/home/chayas/anaconda/envs/py35/share/psi4/basis/aug-cc-pvtz.gbs 
    atoms 15-23 entry H          line    34 file /cbio/jclab/home/chayas/anaconda/envs/py35/share/psi4/basis/aug-cc-pvtz.gbs 


         ---------------------------------------------------------
                                   SCF
            by Justin Turney, Rob Parrish, and Andy Simmonett
                              RHF Reference
                        8 Threads,   4768 MiB Core
         ---------------------------------------------------------

  ==> Geometry <==

    Molecular point group: c1
    Full point group: C1

    Geometry (in Angstrom), charge = 1, multiplicity = 1:

       Center              X                  Y                   Z               Mass       
    ------------   -----------------  -----------------  -----------------  -----------------
           C         -1.333613792684     0.766938796459    -0.783777527057    12.000000000000
           C         -2.411613792684     1.339938796459    -0.110777527057    12.000000000000
           C          1.611386207316     0.359938796459    -1.601777527057    12.000000000000
           C          1.102386207316    -1.775061203541    -0.608777527057    12.000000000000
           C         -1.418613792684     0.723938796459     2.004222472943    12.000000000000
           C          2.675386207316    -0.237061203541    -2.263777527057    12.000000000000
           C          2.179386207316    -2.317061203541    -1.295777527057    12.000000000000
           C         -0.297613792684     0.171938796459    -0.063777527057    12.000000000000
           C          0.819386207316    -0.422061203541    -0.766777527057    12.000000000000
           C         -2.454613792684     1.318938796459     1.283222472943    12.000000000000
           C         -0.340613792684     0.150938796459     1.330222472943    12.000000000000
           N          2.925386207316    -1.542061203541    -2.093777527057    14.003074004780
           O         -3.507613792684     1.878938796459     1.940222472943    15.994914619560
           F          0.647386207316    -0.417061203541     2.037222472943    18.998403224000
           H         -1.314613792684     0.790938796459    -1.870777527057     1.007825032070
           H         -3.216613792684     1.800938796459    -0.677777527057     1.007825032070
           H          1.413386207316     1.417938796459    -1.743777527057     1.007825032070
           H          0.500386207316    -2.409061203541     0.036222472943     1.007825032070
           H         -1.446613792684     0.703938796459     3.090222472943     1.007825032070
           H          3.342386207316     0.291938796459    -2.930777527057     1.007825032070
           H          2.472386207316    -3.356061203541    -1.232777527057     1.007825032070
           H          3.711386207316    -1.961061203541    -2.589777527057     1.007825032070
           H         -4.206613792684     1.219938796459     2.077222472943     1.007825032070

  Running in c1 symmetry.

  Rotational constants: A =      0.06278  B =      0.01288  C =      0.01150 [cm^-1]
  Rotational constants: A =   1882.23999  B =    386.16045  C =    344.89056 [MHz]
  Nuclear repulsion =  829.279392773308359

  Charge       = 1
  Multiplicity = 1
  Electrons    = 98
  Nalpha       = 49
  Nbeta        = 49

  ==> Algorithm <==

  SCF Algorithm Type is DF.
  DIIS enabled.
  MOM disabled.
  Fractional occupation disabled.
  Guess Type is SAD.
  Energy threshold   = 1.00e-10
  Density threshold  = 1.00e-10
  Integral threshold = 0.00e+00

  ==> Primary Basis <==

  Basis Set: AUG-CC-PVTZ
    Blend: AUG-CC-PVTZ
    Number of shells: 277
    Number of basis function: 851
    Number of Cartesian functions: 995
    Spherical Harmonics?: true
    Max angular momentum: 3

   => Loading Basis Set <=

    Name: (AUG-CC-PVTZ AUX)
    Role: JKFIT
    Keyword: DF_BASIS_SCF
    atoms 1-11  entry C          line   161 file /cbio/jclab/home/chayas/anaconda/envs/py35/share/psi4/basis/aug-cc-pvtz-jkfit.gbs 
    atoms 12    entry N          line   223 file /cbio/jclab/home/chayas/anaconda/envs/py35/share/psi4/basis/aug-cc-pvtz-jkfit.gbs 
    atoms 13    entry O          line   285 file /cbio/jclab/home/chayas/anaconda/envs/py35/share/psi4/basis/aug-cc-pvtz-jkfit.gbs 
    atoms 14    entry F          line   347 file /cbio/jclab/home/chayas/anaconda/envs/py35/share/psi4/basis/aug-cc-pvtz-jkfit.gbs 
    atoms 15-23 entry H          line    69 file /cbio/jclab/home/chayas/anaconda/envs/py35/share/psi4/basis/aug-cc-pvtz-jkfit.gbs 

  ==> Pre-Iterations <==

   -------------------------------------------------------
    Irrep   Nso     Nmo     Nalpha   Nbeta   Ndocc  Nsocc
   -------------------------------------------------------
     A        851     851       0       0       0       0
   -------------------------------------------------------
    Total     851     851      49      49      49       0
   -------------------------------------------------------

  ==> Integral Setup <==

  ==> DFJK: Density-Fitted J/K Matrices <==

    J tasked:                  Yes
    K tasked:                  Yes
    wK tasked:                  No
    OpenMP threads:              8
    Integrals threads:           8
    Memory (MB):              3576
    Algorithm:                Disk
    Integral Cache:           NONE
    Schwarz Cutoff:          1E-12
    Fitting Condition:       1E-12

   => Auxiliary Basis Set <=

  Basis Set: (AUG-CC-PVTZ AUX)
    Blend: AUG-CC-PVTZ-JKFIT
    Number of shells: 546
    Number of basis function: 1870
    Number of Cartesian functions: 2329
    Spherical Harmonics?: true
    Max angular momentum: 4

  Minimum eigenvalue in the overlap matrix is 7.3952945108E-07.
  Using Symmetric Orthogonalization.

  SCF Guess: Superposition of Atomic Densities via on-the-fly atomic UHF.

  ==> Iterations <==

                           Total Energy        Delta E     RMS |[F,P]|

   @DF-RHF iter   0:  -653.04219011662997   -6.53042e+02   2.02127e-02 
   @DF-RHF iter   1:  -650.11162742167323    2.93056e+00   2.50610e-03 
   @DF-RHF iter   2:  -650.46798647055209   -3.56359e-01   1.23709e-03 DIIS
   @DF-RHF iter   3:  -650.53532985626305   -6.73434e-02   4.34939e-04 DIIS
   @DF-RHF iter   4:  -650.55159679960946   -1.62669e-02   1.60686e-04 DIIS
   @DF-RHF iter   5:  -650.55382113764529   -2.22434e-03   5.22638e-05 DIIS
   @DF-RHF iter   6:  -650.55424030319409   -4.19166e-04   1.89123e-05 DIIS
   @DF-RHF iter   7:  -650.55428647031590   -4.61671e-05   7.39006e-06 DIIS
   @DF-RHF iter   8:  -650.55429154260389   -5.07229e-06   1.26695e-06 DIIS
   @DF-RHF iter   9:  -650.55429199505215   -4.52448e-07   8.22633e-07 DIIS
   @DF-RHF iter  10:  -650.55429211369847   -1.18646e-07   3.84312e-07 DIIS
   @DF-RHF iter  11:  -650.55429214819117   -3.44927e-08   1.60039e-07 DIIS
   @DF-RHF iter  12:  -650.55429215510696   -6.91580e-09   7.12168e-08 DIIS
   @DF-RHF iter  13:  -650.55429215609593   -9.88962e-10   2.21055e-08 DIIS
   @DF-RHF iter  14:  -650.55429215624781   -1.51886e-10   7.28407e-09 DIIS
   @DF-RHF iter  15:  -650.55429215627760   -2.97860e-11   3.37761e-09 DIIS
   @DF-RHF iter  16:  -650.55429215623997    3.76303e-11   7.80177e-10 DIIS
   @DF-RHF iter  17:  -650.55429215626668   -2.67164e-11   4.58214e-10 DIIS
   @DF-RHF iter  18:  -650.55429215626100    5.68434e-12   3.12236e-10 DIIS
   @DF-RHF iter  19:  -650.55429215625963    1.36424e-12   1.25063e-10 DIIS
   @DF-RHF iter  20:  -650.55429215626282   -3.18323e-12   3.12382e-11 DIIS

  ==> Post-Iterations <==

    Orbital Energies (a.u.)
    -----------------------

    Doubly Occupied:                                                      

       1A    -26.442410     2A    -20.689131     3A    -15.845398  
       4A    -11.491757     5A    -11.490362     6A    -11.465851  
       7A    -11.453588     8A    -11.428519     9A    -11.423709  
      10A    -11.422729    11A    -11.383398    12A    -11.382040  
      13A    -11.360006    14A    -11.355557    15A     -1.760748  
      16A     -1.520453    17A     -1.508731    18A     -1.326804  
      19A     -1.270536    20A     -1.244505    21A     -1.163199  
      22A     -1.150442    23A     -1.074511    24A     -1.061810  
      25A     -0.983814    26A     -0.970823    27A     -0.964330  
      28A     -0.887738    29A     -0.875963    30A     -0.862982  
      31A     -0.842009    32A     -0.828988    33A     -0.821663  
      34A     -0.808221    35A     -0.800172    36A     -0.782156  
      37A     -0.757105    38A     -0.749636    39A     -0.736758  
      40A     -0.717709    41A     -0.713237    42A     -0.668419  
      43A     -0.654278    44A     -0.627858    45A     -0.597083  
      46A     -0.582654    47A     -0.542034    48A     -0.468607  
      49A     -0.458101  

    Virtual:                                                              

      50A     -0.107418    51A     -0.087464    52A     -0.068710  
      53A     -0.063566    54A     -0.059817    55A     -0.050655  
      56A     -0.043563    57A     -0.040336    58A     -0.034139  
      59A     -0.030367    60A     -0.024617    61A     -0.019986  
      62A     -0.015024    63A     -0.011908    64A     -0.006743  
      65A     -0.003055    66A      0.001095    67A      0.007677  
      68A      0.008697    69A      0.011920    70A      0.014804  
      71A      0.016428    72A      0.020412    73A      0.025900  
      74A      0.031299    75A      0.032472    76A      0.034837  
      77A      0.038894    78A      0.042045    79A      0.043804  
      80A      0.047535    81A      0.049262    82A      0.055323  
      83A      0.056908    84A      0.065286    85A      0.067286  
      86A      0.068916    87A      0.076115    88A      0.080747  
      89A      0.083792    90A      0.086678    91A      0.091265  
      92A      0.094137    93A      0.101162    94A      0.104103  
      95A      0.109981    96A      0.116571    97A      0.117462  
      98A      0.125229    99A      0.127443   100A      0.133059  
     101A      0.136052   102A      0.138693   103A      0.142349  
     104A      0.143711   105A      0.148867   106A      0.151292  
     107A      0.157434   108A      0.159590   109A      0.164428  
     110A      0.167560   111A      0.169897   112A      0.171984  
     113A      0.177482   114A      0.182111   115A      0.186431  
     116A      0.193085   117A      0.193677   118A      0.196112  
     119A      0.197574   120A      0.202125   121A      0.209336  
     122A      0.212192   123A      0.217385   124A      0.219232  
     125A      0.223094   126A      0.229503   127A      0.230330  
     128A      0.232167   129A      0.234412   130A      0.242012  
     131A      0.247067   132A      0.249169   133A      0.251666  
     134A      0.255855   135A      0.258937   136A      0.261169  
     137A      0.268430   138A      0.272470   139A      0.277000  
     140A      0.279187   141A      0.283150   142A      0.286522  
     143A      0.289267   144A      0.296427   145A      0.302458  
     146A      0.305802   147A      0.312359   148A      0.318015  
     149A      0.320033   150A      0.321809   151A      0.324257  
     152A      0.325790   153A      0.331901   154A      0.334085  
     155A      0.338256   156A      0.344317   157A      0.345928  
     158A      0.348792   159A      0.351017   160A      0.353010  
     161A      0.358883   162A      0.368538   163A      0.368902  
     164A      0.369784   165A      0.378026   166A      0.380332  
     167A      0.384795   168A      0.386375   169A      0.387261  
     170A      0.391720   171A      0.393650   172A      0.399580  
     173A      0.400401   174A      0.407783   175A      0.408784  
     176A      0.413201   177A      0.419578   178A      0.422889  
     179A      0.425170   180A      0.426323   181A      0.431531  
     182A      0.434450   183A      0.438526   184A      0.446859  
     185A      0.447767   186A      0.454968   187A      0.461236  
     188A      0.467381   189A      0.471458   190A      0.475875  
     191A      0.481328   192A      0.485984   193A      0.490688  
     194A      0.498245   195A      0.502141   196A      0.514811  
     197A      0.519024   198A      0.523064   199A      0.529208  
     200A      0.531388   201A      0.535684   202A      0.539957  
     203A      0.543944   204A      0.560380   205A      0.560601  
     206A      0.565542   207A      0.566813   208A      0.571408  
     209A      0.579720   210A      0.583202   211A      0.593410  
     212A      0.597952   213A      0.601884   214A      0.603425  
     215A      0.609014   216A      0.609263   217A      0.613258  
     218A      0.621570   219A      0.623034   220A      0.627705  
     221A      0.632957   222A      0.636074   223A      0.646006  
     224A      0.657057   225A      0.660588   226A      0.670417  
     227A      0.675939   228A      0.683758   229A      0.688544  
     230A      0.698485   231A      0.702994   232A      0.707245  
     233A      0.714750   234A      0.716415   235A      0.722464  
     236A      0.730230   237A      0.736852   238A      0.739451  
     239A      0.746917   240A      0.749855   241A      0.751791  
     242A      0.757361   243A      0.761518   244A      0.769659  
     245A      0.770102   246A      0.776004   247A      0.779108  
     248A      0.781684   249A      0.789378   250A      0.789905  
     251A      0.795931   252A      0.802916   253A      0.806784  
     254A      0.810442   255A      0.814352   256A      0.822500  
     257A      0.825923   258A      0.832001   259A      0.835636  
     260A      0.838542   261A      0.841115   262A      0.851590  
     263A      0.854396   264A      0.857362   265A      0.864788  
     266A      0.870306   267A      0.875692   268A      0.877083  
     269A      0.878852   270A      0.889190   271A      0.896771  
     272A      0.897698   273A      0.904497   274A      0.906380  
     275A      0.908637   276A      0.918182   277A      0.923888  
     278A      0.926283   279A      0.930395   280A      0.931852  
     281A      0.935099   282A      0.942269   283A      0.950340  
     284A      0.956179   285A      0.957394   286A      0.965399  
     287A      0.967133   288A      0.973862   289A      0.975506  
     290A      0.978006   291A      0.981531   292A      0.986281  
     293A      0.990506   294A      0.991075   295A      0.996245  
     296A      1.000999   297A      1.004811   298A      1.008037  
     299A      1.015846   300A      1.019777   301A      1.024103  
     302A      1.032663   303A      1.036561   304A      1.038330  
     305A      1.042782   306A      1.051310   307A      1.055457  
     308A      1.061128   309A      1.066784   310A      1.068139  
     311A      1.073601   312A      1.079875   313A      1.085877  
     314A      1.089330   315A      1.092191   316A      1.095381  
     317A      1.099965   318A      1.109457   319A      1.117383  
     320A      1.119085   321A      1.121577   322A      1.127887  
     323A      1.136611   324A      1.138625   325A      1.146959  
     326A      1.151280   327A      1.154975   328A      1.157078  
     329A      1.165570   330A      1.167174   331A      1.183215  
     332A      1.192684   333A      1.200170   334A      1.203447  
     335A      1.209533   336A      1.216428   337A      1.220872  
     338A      1.225593   339A      1.234257   340A      1.236169  
     341A      1.241493   342A      1.252198   343A      1.260199  
     344A      1.264532   345A      1.269476   346A      1.274986  
     347A      1.275965   348A      1.278319   349A      1.291680  
     350A      1.297087   351A      1.304616   352A      1.314616  
     353A      1.316514   354A      1.322165   355A      1.329437  
     356A      1.331548   357A      1.343737   358A      1.349005  
     359A      1.363309   360A      1.370312   361A      1.378103  
     362A      1.384147   363A      1.387313   364A      1.394066  
     365A      1.409941   366A      1.412652   367A      1.416676  
     368A      1.420400   369A      1.429766   370A      1.437695  
     371A      1.443103   372A      1.450408   373A      1.457592  
     374A      1.468315   375A      1.476931   376A      1.491013  
     377A      1.494674   378A      1.501899   379A      1.504619  
     380A      1.513032   381A      1.517954   382A      1.525484  
     383A      1.525987   384A      1.532004   385A      1.539154  
     386A      1.547936   387A      1.550936   388A      1.562679  
     389A      1.566089   390A      1.571399   391A      1.588104  
     392A      1.593623   393A      1.604516   394A      1.611516  
     395A      1.620884   396A      1.626326   397A      1.635656  
     398A      1.645594   399A      1.651325   400A      1.666343  
     401A      1.669536   402A      1.677045   403A      1.681872  
     404A      1.689731   405A      1.696745   406A      1.698236  
     407A      1.713346   408A      1.722360   409A      1.726803  
     410A      1.732732   411A      1.745080   412A      1.746249  
     413A      1.752569   414A      1.764587   415A      1.770777  
     416A      1.780647   417A      1.791369   418A      1.802593  
     419A      1.812629   420A      1.818974   421A      1.823374  
     422A      1.825947   423A      1.828475   424A      1.831119  
     425A      1.839477   426A      1.848786   427A      1.859843  
     428A      1.867187   429A      1.874359   430A      1.885869  
     431A      1.892029   432A      1.896147   433A      1.910493  
     434A      1.915113   435A      1.921054   436A      1.926938  
     437A      1.932603   438A      1.942108   439A      1.943753  
     440A      1.960795   441A      1.969873   442A      1.975098  
     443A      1.983640   444A      1.989798   445A      2.001858  
     446A      2.003588   447A      2.012895   448A      2.019128  
     449A      2.024929   450A      2.032359   451A      2.044671  
     452A      2.052989   453A      2.068417   454A      2.070195  
     455A      2.074145   456A      2.077973   457A      2.085913  
     458A      2.088848   459A      2.116951   460A      2.120569  
     461A      2.131164   462A      2.147978   463A      2.152126  
     464A      2.166628   465A      2.170206   466A      2.180064  
     467A      2.191337   468A      2.199863   469A      2.212433  
     470A      2.217935   471A      2.233499   472A      2.235523  
     473A      2.248833   474A      2.256476   475A      2.261553  
     476A      2.266696   477A      2.289809   478A      2.303644  
     479A      2.308883   480A      2.311669   481A      2.329492  
     482A      2.341983   483A      2.351273   484A      2.364385  
     485A      2.375753   486A      2.388270   487A      2.397602  
     488A      2.402975   489A      2.412956   490A      2.425541  
     491A      2.427676   492A      2.442593   493A      2.462801  
     494A      2.470000   495A      2.489528   496A      2.500909  
     497A      2.524959   498A      2.540860   499A      2.549711  
     500A      2.561026   501A      2.572600   502A      2.575924  
     503A      2.584333   504A      2.596709   505A      2.605914  
     506A      2.629560   507A      2.630667   508A      2.650278  
     509A      2.656541   510A      2.685954   511A      2.691071  
     512A      2.728441   513A      2.736362   514A      2.749819  
     515A      2.751780   516A      2.772020   517A      2.801038  
     518A      2.853184   519A      2.858616   520A      2.872017  
     521A      2.890085   522A      2.905780   523A      2.932719  
     524A      2.940078   525A      2.950202   526A      2.962567  
     527A      2.971786   528A      2.993121   529A      3.005468  
     530A      3.007076   531A      3.026966   532A      3.036641  
     533A      3.049861   534A      3.055010   535A      3.072621  
     536A      3.083123   537A      3.089268   538A      3.102031  
     539A      3.115057   540A      3.128675   541A      3.136884  
     542A      3.146687   543A      3.155125   544A      3.176580  
     545A      3.188541   546A      3.194555   547A      3.213863  
     548A      3.230369   549A      3.236028   550A      3.241124  
     551A      3.258767   552A      3.266391   553A      3.273135  
     554A      3.286383   555A      3.300080   556A      3.308073  
     557A      3.311040   558A      3.315273   559A      3.329120  
     560A      3.331126   561A      3.355351   562A      3.364554  
     563A      3.368910   564A      3.378881   565A      3.386381  
     566A      3.387025   567A      3.396435   568A      3.401316  
     569A      3.412864   570A      3.420066   571A      3.426063  
     572A      3.439694   573A      3.444956   574A      3.449322  
     575A      3.464201   576A      3.472042   577A      3.485034  
     578A      3.491596   579A      3.504284   580A      3.507229  
     581A      3.515847   582A      3.529246   583A      3.539481  
     584A      3.544327   585A      3.553879   586A      3.556655  
     587A      3.569913   588A      3.581657   589A      3.597157  
     590A      3.600122   591A      3.614593   592A      3.622218  
     593A      3.627701   594A      3.645725   595A      3.647919  
     596A      3.649323   597A      3.659000   598A      3.674610  
     599A      3.683981   600A      3.691892   601A      3.699130  
     602A      3.708529   603A      3.714530   604A      3.717743  
     605A      3.729345   606A      3.743518   607A      3.750680  
     608A      3.759097   609A      3.769699   610A      3.772748  
     611A      3.775973   612A      3.790343   613A      3.796571  
     614A      3.804877   615A      3.815525   616A      3.824550  
     617A      3.832612   618A      3.838985   619A      3.846706  
     620A      3.848816   621A      3.858699   622A      3.870028  
     623A      3.879474   624A      3.884693   625A      3.891064  
     626A      3.900103   627A      3.906422   628A      3.909286  
     629A      3.925000   630A      3.935266   631A      3.949915  
     632A      3.952785   633A      3.965597   634A      3.978521  
     635A      3.985324   636A      3.989451   637A      4.000704  
     638A      4.010527   639A      4.020070   640A      4.026397  
     641A      4.030682   642A      4.041533   643A      4.044628  
     644A      4.070122   645A      4.073480   646A      4.076301  
     647A      4.091885   648A      4.094221   649A      4.106515  
     650A      4.117907   651A      4.123020   652A      4.134044  
     653A      4.144646   654A      4.156384   655A      4.165823  
     656A      4.174475   657A      4.182437   658A      4.196227  
     659A      4.204131   660A      4.210098   661A      4.218537  
     662A      4.224366   663A      4.228124   664A      4.238439  
     665A      4.242446   666A      4.251589   667A      4.265809  
     668A      4.273104   669A      4.277372   670A      4.293456  
     671A      4.306479   672A      4.311760   673A      4.312339  
     674A      4.321521   675A      4.335180   676A      4.351193  
     677A      4.361168   678A      4.367614   679A      4.371906  
     680A      4.382831   681A      4.396952   682A      4.408606  
     683A      4.424721   684A      4.440163   685A      4.449392  
     686A      4.450924   687A      4.457393   688A      4.478771  
     689A      4.484770   690A      4.507719   691A      4.516767  
     692A      4.524913   693A      4.528660   694A      4.552712  
     695A      4.575045   696A      4.585176   697A      4.599405  
     698A      4.615647   699A      4.631990   700A      4.634359  
     701A      4.642818   702A      4.650835   703A      4.661355  
     704A      4.675659   705A      4.692002   706A      4.699052  
     707A      4.704371   708A      4.732806   709A      4.748274  
     710A      4.763866   711A      4.770322   712A      4.782875  
     713A      4.802438   714A      4.811262   715A      4.820719  
     716A      4.829247   717A      4.836549   718A      4.847846  
     719A      4.851399   720A      4.876355   721A      4.892182  
     722A      4.905611   723A      4.910180   724A      4.914598  
     725A      4.933663   726A      4.938864   727A      4.940883  
     728A      4.956001   729A      4.982561   730A      4.993889  
     731A      5.006949   732A      5.013095   733A      5.025918  
     734A      5.034921   735A      5.038984   736A      5.053305  
     737A      5.057447   738A      5.069408   739A      5.086313  
     740A      5.099236   741A      5.112282   742A      5.119824  
     743A      5.162079   744A      5.169865   745A      5.185951  
     746A      5.196584   747A      5.207674   748A      5.217206  
     749A      5.226637   750A      5.253358   751A      5.258337  
     752A      5.269649   753A      5.295016   754A      5.321775  
     755A      5.336672   756A      5.364071   757A      5.380601  
     758A      5.386771   759A      5.405443   760A      5.436711  
     761A      5.453744   762A      5.498830   763A      5.505186  
     764A      5.529012   765A      5.556800   766A      5.588909  
     767A      5.601885   768A      5.604428   769A      5.621980  
     770A      5.636925   771A      5.643285   772A      5.661993  
     773A      5.684278   774A      5.692437   775A      5.712011  
     776A      5.751890   777A      5.774304   778A      5.827340  
     779A      5.831813   780A      5.881063   781A      5.905419  
     782A      5.927083   783A      5.972026   784A      5.978943  
     785A      6.007115   786A      6.054986   787A      6.095218  
     788A      6.122374   789A      6.156478   790A      6.164768  
     791A      6.186745   792A      6.230560   793A      6.271301  
     794A      6.331585   795A      6.345916   796A      6.405751  
     797A      6.411183   798A      6.461704   799A      6.516215  
     800A      6.556872   801A      6.582121   802A      6.645512  
     803A      6.649671   804A      6.692421   805A      6.742406  
     806A      6.767237   807A      6.804436   808A      6.830747  
     809A      6.848676   810A      6.907734   811A      6.964035  
     812A      7.018194   813A      7.200430   814A      7.254727  
     815A      7.299692   816A      7.331226   817A      7.431382  
     818A      7.447232   819A      7.454421   820A      7.535868  
     821A      7.573168   822A      7.798062   823A      7.845785  
     824A      8.046815   825A      8.502359   826A      8.889401  
     827A      8.930429   828A      9.153201   829A      9.173961  
     830A      9.292470   831A      9.401802   832A      9.425984  
     833A      9.472363   834A      9.525773   835A      9.600475  
     836A      9.914090   837A      9.961481   838A     15.822514  
     839A     16.066254   840A     16.454131   841A     16.530786  
     842A     16.842190   843A     17.091260   844A     18.737484  
     845A     19.124981   846A     19.564716   847A     19.831767  
     848A     20.080398   849A     20.252981   850A     20.553454  
     851A     21.697892  

    Final Occupation by Irrep:
              A 
    DOCC [    49 ]

  Energy converged.

  @DF-RHF Final Energy:  -650.55429215626282

   => Energetics <=

    Nuclear Repulsion Energy =            829.2793927733083592
    One-Electron Energy =               -2518.8303086556320523
    Two-Electron Energy =                1038.9966237260609887
    DFT Exchange-Correlation Energy =       0.0000000000000000
    Empirical Dispersion Energy =           0.0000000000000000
    PCM Polarization Energy =               0.0000000000000000
    EFP Energy =                            0.0000000000000000
    Total Energy =                       -650.5542921562628180



Properties will be evaluated at   0.000000,   0.000000,   0.000000 Bohr

Properties computed using the SCF density matrix

  Nuclear Dipole Moment: (a.u.)
     X:     0.5409      Y:    -0.9998      Z:    -7.3831

  Electronic Dipole Moment: (a.u.)
     X:     2.0742      Y:    -1.0269      Z:     4.4651

  Dipole Moment: (a.u.)
     X:     2.6151      Y:    -2.0267      Z:    -2.9180     Total:     4.4115

  Dipole Moment: (Debye)
     X:     6.6470      Y:    -5.1513      Z:    -7.4169     Total:    11.2128


*** tstop() called on gpu-2-7.local at Sat Nov 11 19:48:15 2017
Module time:
	user time   =    1280.24 seconds =      21.34 minutes
	system time =      52.58 seconds =       0.88 minutes
	total time  =        532 seconds =       8.87 minutes
Total time:
	user time   =    1280.25 seconds =      21.34 minutes
	system time =      52.58 seconds =       0.88 minutes
	total time  =        532 seconds =       8.87 minutes

  //>>>>>>>>>>>>>>>>>>>>>>>>>>>>>>>>>>>//
  //               DFMP2               //
  //<<<<<<<<<<<<<<<<<<<<<<<<<<<<<<<<<<<//

   => Loading Basis Set <=

    Name: (AUG-CC-PVTZ AUX)
    Role: RIFIT
    Keyword: DF_BASIS_MP2
    atoms 1-11  entry C          line   147 file /cbio/jclab/home/chayas/anaconda/envs/py35/share/psi4/basis/aug-cc-pvtz-ri.gbs 
    atoms 12    entry N          line   205 file /cbio/jclab/home/chayas/anaconda/envs/py35/share/psi4/basis/aug-cc-pvtz-ri.gbs 
    atoms 13    entry O          line   263 file /cbio/jclab/home/chayas/anaconda/envs/py35/share/psi4/basis/aug-cc-pvtz-ri.gbs 
    atoms 14    entry F          line   321 file /cbio/jclab/home/chayas/anaconda/envs/py35/share/psi4/basis/aug-cc-pvtz-ri.gbs 
    atoms 15-23 entry H          line    29 file /cbio/jclab/home/chayas/anaconda/envs/py35/share/psi4/basis/aug-cc-pvtz-ri.gbs 

	 --------------------------------------------------------
	                          DF-MP2                         
	      2nd-Order Density-Fitted Moller-Plesset Theory     
	              RMP2 Wavefunction,   8 Threads             
	                                                         
	        Rob Parrish, Justin Turney, Andy Simmonett,      
	           Ed Hohenstein, and C. David Sherrill          
	 --------------------------------------------------------

   => Auxiliary Basis Set <=

  Basis Set: (AUG-CC-PVTZ AUX)
    Blend: AUG-CC-PVTZ-RI
    Number of shells: 518
    Number of basis function: 1898
    Number of Cartesian functions: 2399
    Spherical Harmonics?: true
    Max angular momentum: 4

	 --------------------------------------------------------
	                 NBF =   851, NAUX =  1898
	 --------------------------------------------------------
	   CLASS    FOCC     OCC    AOCC    AVIR     VIR    FVIR
	   PAIRS       0      49      49     802     802       0
	 --------------------------------------------------------


         ------------------------------------------------------------
                                     CPHF                           
                                  Rob Parrish                       
         ------------------------------------------------------------

  ==> Geometry <==

    Molecular point group: c1
    Full point group: C1

    Geometry (in Angstrom), charge = 1, multiplicity = 1:

       Center              X                  Y                   Z               Mass       
    ------------   -----------------  -----------------  -----------------  -----------------
           C         -1.333613792684     0.766938796459    -0.783777527057    12.000000000000
           C         -2.411613792684     1.339938796459    -0.110777527057    12.000000000000
           C          1.611386207316     0.359938796459    -1.601777527057    12.000000000000
           C          1.102386207316    -1.775061203541    -0.608777527057    12.000000000000
           C         -1.418613792684     0.723938796459     2.004222472943    12.000000000000
           C          2.675386207316    -0.237061203541    -2.263777527057    12.000000000000
           C          2.179386207316    -2.317061203541    -1.295777527057    12.000000000000
           C         -0.297613792684     0.171938796459    -0.063777527057    12.000000000000
           C          0.819386207316    -0.422061203541    -0.766777527057    12.000000000000
           C         -2.454613792684     1.318938796459     1.283222472943    12.000000000000
           C         -0.340613792684     0.150938796459     1.330222472943    12.000000000000
           N          2.925386207316    -1.542061203541    -2.093777527057    14.003074004780
           O         -3.507613792684     1.878938796459     1.940222472943    15.994914619560
           F          0.647386207316    -0.417061203541     2.037222472943    18.998403224000
           H         -1.314613792684     0.790938796459    -1.870777527057     1.007825032070
           H         -3.216613792684     1.800938796459    -0.677777527057     1.007825032070
           H          1.413386207316     1.417938796459    -1.743777527057     1.007825032070
           H          0.500386207316    -2.409061203541     0.036222472943     1.007825032070
           H         -1.446613792684     0.703938796459     3.090222472943     1.007825032070
           H          3.342386207316     0.291938796459    -2.930777527057     1.007825032070
           H          2.472386207316    -3.356061203541    -1.232777527057     1.007825032070
           H          3.711386207316    -1.961061203541    -2.589777527057     1.007825032070
           H         -4.206613792684     1.219938796459     2.077222472943     1.007825032070

  Nuclear repulsion =  829.279392773308359
  Reference energy  = -650.554292156262818

  ==> Basis Set <==

  Basis Set: AUG-CC-PVTZ
    Blend: AUG-CC-PVTZ
    Number of shells: 277
    Number of basis function: 851
    Number of Cartesian functions: 995
    Spherical Harmonics?: true
    Max angular momentum: 3

  ==> CGRSolver (by Rob Parrish) <==

   Number of roots    =         1
   Preconditioning    =    JACOBI
   Convergence cutoff =     1E-06
   Maximum iterations =       100

  ==> CPHFRHamiltonian (by Rob Parrish) <== 

  ==> DFJK: Density-Fitted J/K Matrices <==

    J tasked:                  Yes
    K tasked:                  Yes
    wK tasked:                  No
    OpenMP threads:              8
    Integrals threads:           8
    Memory (MB):              3576
    Algorithm:                Disk
    Integral Cache:           NONE
    Schwarz Cutoff:          1E-12
    Fitting Condition:       1E-12

   => Auxiliary Basis Set <=

  Basis Set: (AUG-CC-PVTZ AUX)
    Blend: AUG-CC-PVTZ-JKFIT
    Number of shells: 546
    Number of basis function: 1870
    Number of Cartesian functions: 2329
    Spherical Harmonics?: true
    Max angular momentum: 4

  ==> CPHF Iterations <==

  => Iterations <=

             Iter  Converged  Remaining    Residual
  CGR           1          0          1   1.146E-01
  CGR           2          0          1   4.552E-02
  CGR           3          0          1   2.693E-02
  CGR           4          0          1   8.611E-03
  CGR           5          0          1   3.403E-03
  CGR           6          0          1   1.349E-03
  CGR           7          0          1   4.635E-04
  CGR           8          0          1   2.162E-04
  CGR           9          0          1   1.004E-04
  CGR          10          0          1   3.762E-05
  CGR          11          0          1   1.501E-05
  CGR          12          0          1   4.958E-06
  CGR          13          0          1   1.819E-06
  CGR          14          1          0   6.281E-07

    CGRSolver converged.

  ==> DFCorrGrad: Density-Fitted Correlated Gradients <==

    OpenMP threads:              8
    Integrals threads:           8
    Memory (MB):              3576
    Schwarz Cutoff:          0E+00
    Fitting Condition:       1E-12

   => Auxiliary Basis Set <=

  Basis Set: (AUG-CC-PVTZ AUX)
    Blend: AUG-CC-PVTZ-JKFIT
    Number of shells: 546
    Number of basis function: 1870
    Number of Cartesian functions: 2329
    Spherical Harmonics?: true
    Max angular momentum: 4

	-----------------------------------------------------------
	 ==================> DF-MP2 Energies <==================== 
	-----------------------------------------------------------
	 Reference Energy          =    -650.5542921562628180 [Eh]
	 Singles Energy            =      -0.0000000000000001 [Eh]
	 Same-Spin Energy          =      -0.6686065456311731 [Eh]
	 Opposite-Spin Energy      =      -2.0132054416326097 [Eh]
	 Correlation Energy        =      -2.6818119872637829 [Eh]
	 Total Energy              =    -653.2361041435266316 [Eh]
	-----------------------------------------------------------
	 ================> DF-SCS-MP2 Energies <================== 
	-----------------------------------------------------------
	 SCS Same-Spin Scale       =       0.3333333333333333 [-]
	 SCS Opposite-Spin Scale   =       1.2000000000000000 [-]
	 SCS Same-Spin Energy      =      -0.2228688485437244 [Eh]
	 SCS Opposite-Spin Energy  =      -2.4158465299591314 [Eh]
	 SCS Correlation Energy    =      -2.6387153785028556 [Eh]
	 SCS Total Energy          =    -653.1930075347656839 [Eh]
	-----------------------------------------------------------


  -Total Gradient:
     Atom            X                  Y                   Z
    ------   -----------------  -----------------  -----------------
       1        0.007792057569    -0.009716583251    -0.007746192317
       2       -0.003529122904     0.000530231917     0.006457561042
       3       -0.010225345784     0.007888653967     0.009763874685
       4       -0.013902639971     0.006359277483     0.005397584743
       5       -0.007809699940     0.002411708538    -0.001494698565
       6        0.001888315612    -0.011358626943     0.003233400838
       7        0.006006747097     0.007811903574    -0.007631462088
       8       -0.001801010077     0.000878581596    -0.003310337896
       9        0.002413931844    -0.001548104580    -0.003648513206
      10       -0.003728441452     0.011235483594     0.005762962429
      11        0.023510062439    -0.009253407288     0.000069958555
      12        0.001252142940    -0.001186103283    -0.000835075115
      13        0.005341309169     0.001121632796    -0.003727637579
      14        0.000001602231    -0.000181552118     0.004902246969
      15       -0.001797618709     0.001790139114    -0.005397977910
      16       -0.003342332659     0.002331453336    -0.005195809035
      17       -0.001257846868     0.005366890977    -0.001502575731
      18       -0.003441971295    -0.003946622271     0.003729070778
      19        0.000027562001    -0.000687396072     0.005475386612
      20        0.002133332711     0.000173149122    -0.002123192079
      21        0.001857524479    -0.002251485327    -0.000429434081
      22        0.004423930703    -0.002556254021    -0.002960964215
      23       -0.005812489148    -0.005212970854     0.001211823172


*** tstop() called on gpu-2-7.local at Sat Nov 11 20:30:08 2017
Module time:
	user time   =    6424.82 seconds =     107.08 minutes
	system time =     114.15 seconds =       1.90 minutes
	total time  =       3045 seconds =      50.75 minutes
Total time:
	user time   =    6424.83 seconds =     107.08 minutes
	system time =     114.15 seconds =       1.90 minutes
	total time  =       3045 seconds =      50.75 minutes

			-----------------------------------------
			 OPTKING 2.0: for geometry optimizations 
			  - R.A. King,  Bethel University        
			-----------------------------------------

	Internal coordinates to be generated automatically.
	Detected frag 1 with atoms:  1 2 3 4 5 6 7 8 9 10 11 12 13 14 15 16 17 18 19 20
	 21 22 23
	---Fragment 1 Bond Connectivity---
	 1 : 2 8 15
	 2 : 1 10 16
	 3 : 6 9 17
	 4 : 7 9 18
	 5 : 10 11 19
	 6 : 3 12 20
	 7 : 4 12 21
	 8 : 1 9 11
	 9 : 3 4 8
	 10 : 2 5 13
	 11 : 5 8 14
	 12 : 6 7 22
	 13 : 10 23
	 14 : 11
	 15 : 1
	 16 : 2
	 17 : 3
	 18 : 4
	 19 : 5
	 20 : 6
	 21 : 7
	 22 : 12
	 23 : 13

	Assuming in current code that numbering for constraints corresponds to unified fragment.
	Fixed dihedral atom list: 
	     2    10    13    23
	---Fragment 1 Geometry and Gradient---
	 C          -2.5201648352        1.4493042860       -1.4811248752
	 C          -4.5572896065        2.5321173601       -0.2093391878
	 C           3.0450786261        0.6801857499       -3.0269208519
	 C           2.0832080245       -3.3543795438       -1.1504228020
	 C          -2.6807915565        1.3680460623        3.7874315832
	 C           5.0557472315       -0.4479807514       -4.2779195519
	 C           4.1184430696       -4.3786111078       -2.4486646553
	 C          -0.5624085615        0.3249172369       -0.1205220596
	 C           1.5484155289       -0.7975800860       -1.4489995310
	 C          -4.6385478302        2.4924331113        2.4249390414
	 C          -0.6436667853        0.2852329881        2.5137561697
	 N           5.5281787647       -2.9140733548       -3.9566661093
	 O          -6.6284294481        3.5506797458        3.6664891107
	 F           1.2233826340       -0.7881314553        3.8497925456
	 H          -2.4842600387        1.4946577132       -3.5352571817
	 H          -6.0785191434        3.4032811074       -1.2808139052
	 H           2.6709128518        2.6795159985       -3.2952619628
	 H           0.9455928925       -4.5524659121        0.0684505537
	 H          -2.7337038882        1.3302515396        5.8396741636
	 H           6.3161945622        0.5516843729       -5.5383668826
	 H           4.6721328266       -6.3420365599       -2.3296119089
	 H           7.0135035052       -3.7058686045       -4.8939702712
	 H          -7.9493480150        2.3053502242        3.9253815909
	             0.0077920576       -0.0097165833       -0.0077461923
	            -0.0035291229        0.0005302319        0.0064575610
	            -0.0102253458        0.0078886540        0.0097638747
	            -0.0139026400        0.0063592775        0.0053975847
	            -0.0078096999        0.0024117085       -0.0014946986
	             0.0018883156       -0.0113586269        0.0032334008
	             0.0060067471        0.0078119036       -0.0076314621
	            -0.0018010101        0.0008785816       -0.0033103379
	             0.0024139318       -0.0015481046       -0.0036485132
	            -0.0037284415        0.0112354836        0.0057629624
	             0.0235100624       -0.0092534073        0.0000699586
	             0.0012521429       -0.0011861033       -0.0008350751
	             0.0053413092        0.0011216328       -0.0037276376
	             0.0000016022       -0.0001815521        0.0049022470
	            -0.0017976187        0.0017901391       -0.0053979779
	            -0.0033423327        0.0023314533       -0.0051958090
	            -0.0012578469        0.0053668910       -0.0015025757
	            -0.0034419713       -0.0039466223        0.0037290708
	             0.0000275620       -0.0006873961        0.0054753866
	             0.0021333327        0.0001731491       -0.0021231921
	             0.0018575245       -0.0022514853       -0.0004294341
	             0.0044239307       -0.0025562540       -0.0029609642
	            -0.0058124891       -0.0052129709        0.0012118232

	Previous optimization step data not found.  Starting new optimization.

	---Fragment 1 Intrafragment Coordinates---
	 - Coordinate -           - BOHR/RAD -       - ANG/DEG -
	 R(1,2)           =         2.634350	       1.394038
	 R(1,8)           =         2.635962	       1.394891
	 R(1,15)          =         2.054947	       1.087431
	 R(2,10)          =         2.635830	       1.394821
	 R(2,16)          =         2.054537	       1.087214
	 R(3,6)           =         2.623079	       1.388074
	 R(3,9)           =         2.629378	       1.391407
	 R(3,17)          =         2.051665	       1.085694
	 R(4,7)           =         2.622339	       1.387682
	 R(4,9)           =         2.629140	       1.391281
	 R(4,18)          =         2.053103	       1.086455
	 R(5,10)          =         2.636938	       1.395407
	 R(5,11)          =         2.635263	       1.394521
	 R(5,19)          =         2.053272	       1.086545
	 R(6,12)          =         2.531404	       1.339561
	 R(6,20)          =         2.043719	       1.081489
	 R(7,12)          =         2.531066	       1.339382
	 R(7,21)          =         2.043474	       1.081360
	 R(8,9)           =         2.735038	       1.447320
	 R(8,11)          =         2.635830	       1.394821
	 R(10,13)         =         2.573123	       1.361638
	 R(11,14)         =         2.534359	       1.341125
	 R(12,22)         =         1.926569	       1.019496
	 R(13,23)         =         1.833766	       0.970387
	 B(1,2,10)        =         2.094553	     120.009056
	 B(1,2,16)        =         2.088723	     119.675016
	 B(1,8,9)         =         2.091569	     119.838095
	 B(1,8,11)        =         2.093692	     119.959722
	 B(2,1,8)         =         2.094940	     120.031219
	 B(2,1,15)        =         2.079469	     119.144799
	 B(2,10,5)        =         2.094306	     119.994870
	 B(2,10,13)       =         2.094247	     119.991510
	 B(3,6,12)        =         2.096160	     120.101096
	 B(3,6,20)        =         2.160978	     123.814942
	 B(3,9,4)         =         2.093156	     119.928982
	 B(3,9,8)         =         2.094542	     120.008404
	 B(4,7,12)        =         2.095824	     120.081885
	 B(4,7,21)        =         2.161239	     123.829863
	 B(4,9,8)         =         2.095488	     120.062613
	 B(5,10,13)       =         2.094633	     120.013619
	 B(5,11,8)        =         2.095181	     120.045019
	 B(5,11,14)       =         2.081414	     119.256220
	 B(6,3,9)         =         2.072362	     118.737620
	 B(6,3,17)        =         2.090402	     119.771194
	 B(6,12,7)        =         2.135730	     122.368334
	 B(6,12,22)       =         2.074333	     118.850498
	 B(7,4,9)         =         2.073138	     118.782073
	 B(7,4,18)        =         2.089816	     119.737652
	 B(7,12,22)       =         2.073122	     118.781161
	 B(8,1,15)        =         2.108776	     120.823969
	 B(8,11,14)       =         2.106591	     120.698759
	 B(9,3,17)        =         2.120421	     121.491171
	 B(9,4,18)        =         2.120230	     121.480258
	 B(9,8,11)        =         2.097924	     120.202184
	 B(10,2,16)       =         2.099909	     120.315896
	 B(10,5,11)       =         2.093699	     119.960108
	 B(10,5,19)       =         2.100355	     120.341451
	 B(10,13,23)      =         1.923972	     110.235490
	 B(11,5,19)       =         2.089132	     119.698439
	 B(12,6,20)       =         2.026047	     116.083959
	 B(12,7,21)       =         2.026122	     116.088250
	 D(1,2,10,5)      =        -0.000325	      -0.018609
	 D(1,2,10,13)     =         3.141388	     179.988267
	 D(1,8,9,3)       =         1.047203	      60.000294
	 D(1,8,9,4)       =        -2.094232	    -119.990639
	 D(1,8,11,5)      =         0.000325	       0.018608
	 D(1,8,11,14)     =        -3.141528	    -179.996269
	 D(2,1,8,9)       =         3.141277	     179.981897
	 D(2,1,8,11)      =        -0.000348	      -0.019945
	 D(2,10,5,11)     =         0.000301	       0.017261
	 D(2,10,5,19)     =        -3.141029	    -179.967685
	 D(2,10,13,23)    =         1.571576	      90.044659
	 D(3,6,12,7)      =        -0.000167	      -0.009589
	 D(3,6,12,22)     =         3.140892	     179.959844
	 D(3,9,4,7)       =        -0.000213	      -0.012204
	 D(3,9,4,18)      =        -3.140964	    -179.964007
	 D(3,9,8,11)      =        -2.094358	    -119.997860
	 D(4,7,12,6)      =         0.000492	       0.028196
	 D(4,7,12,22)     =        -3.140567	    -179.941258
	 D(4,9,3,6)       =         0.000525	       0.030092
	 D(4,9,3,17)      =         3.141327	     179.984799
	 D(4,9,8,11)      =         1.047393	      60.011207
	 D(5,10,2,16)     =         3.140149	     179.917291
	 D(5,10,13,23)    =        -1.569897	     -89.948464
	 D(5,11,8,9)      =        -3.141300	    -179.983240
	 D(6,3,9,8)       =        -3.140909	    -179.960854
	 D(6,12,7,21)     =        -3.140902	    -179.960420
	 D(7,4,9,8)       =         3.141222	     179.978736
	 D(7,12,6,20)     =         3.141065	     179.969740
	 D(8,1,2,10)      =         0.000348	       0.019955
	 D(8,1,2,16)      =        -3.140133	    -179.916358
	 D(8,9,3,17)      =        -0.000107	      -0.006146
	 D(8,9,4,18)      =         0.000470	       0.026933
	 D(8,11,5,10)     =        -0.000301	      -0.017270
	 D(8,11,5,19)     =         3.141030	     179.967774
	 D(9,3,6,12)      =        -0.000344	      -0.019721
	 D(9,3,6,20)      =        -3.141547	    -179.997375
	 D(9,4,7,12)      =        -0.000293	      -0.016764
	 D(9,4,7,21)      =         3.141085	     179.970928
	 D(9,8,1,15)      =         0.000403	       0.023110
	 D(9,8,11,14)     =         0.000033	       0.001883
	 D(10,2,1,15)     =         3.141234	     179.979432
	 D(10,5,11,14)    =         3.141547	     179.997392
	 D(11,5,10,13)    =        -3.141411	    -179.989616
	 D(11,8,1,15)     =        -3.141221	    -179.978731
	 D(12,6,3,17)     =        -3.141160	    -179.975226
	 D(12,7,4,18)     =         3.140474	     179.935898
	 D(13,10,2,16)    =        -0.001324	      -0.075833
	 D(13,10,5,19)    =         0.000444	       0.025437
	 D(14,11,5,19)    =        -0.000307	      -0.017564
	 D(15,1,2,16)     =         0.000753	       0.043120
	 D(17,3,6,20)     =         0.000822	       0.047120
	 D(18,4,7,21)     =        -0.001334	      -0.076410
	 D(20,6,12,22)    =        -0.001062	      -0.060827
	 D(21,7,12,22)    =         0.001224	       0.070126
	 R(4,14)          =         5.685691	       3.008738

	Current energy   :      -653.2361041435

	Generating empirical Hessian (Schlegel '84) for each fragment.
	Adding user-defined constraint: Fragment 1; Coordinate 72:
		Value =     1.571576; Fixed value    =     1.570796
		Force =    -0.000390; Force constant =     0.500000
	Removing off-diagonal coupling between coordinate 72 and others.
	Taking RFO optimization step.
	Going to follow RFO solution 1.
	Using RFO vector 1.

	Determining step-restricting scale parameter for RS-RFO.
	Maximum step size allowed    0.10000

	 Iter      |step|        alpha        rfo_root  
	------------------------------------------------
	    0     0.33721       1.00000           1
	    1     0.21879       3.78312           1
	    2     0.15577       9.20989           1
	    3     0.12253      18.06101           1
	    4     0.10610      27.81500           1
	    5     0.10064      32.68924           1
	    6     0.10001      33.32641           1
	------------------------------------------------
	Norm of target step-size    0.10001
	Projected energy change by RFO approximation:        -0.0039680765

	Back-transformation to cartesian coordinates...
	Successfully converged to displaced geometry.
	First geometry is closer to target in internal coordinates, so am using that one.
	First geometry has RMS(Delta(q)) = 1.20e-04

	--- Internal Coordinate Step in ANG or DEG, aJ/ANG or AJ/DEG ---
	 ---------------------------------------------------------------------------
	   Coordinate                Previous        Force       Change         New 
	   ----------                --------       ------       ------       ------
	    1 R(1,2)          =      1.394038    -0.073526    -0.007863     1.386175
	    2 R(1,8)          =      1.394891    -0.014827    -0.001391     1.393500
	    3 R(1,15)         =      1.087431    -0.044523    -0.005954     1.081477
	    4 R(2,10)         =      1.394821    -0.038338    -0.004138     1.390683
	    5 R(2,16)         =      1.087214    -0.050860    -0.006748     1.080467
	    6 R(3,6)          =      1.388074    -0.093490    -0.009919     1.378155
	    7 R(3,9)          =      1.391407     0.024341     0.002659     1.394066
	    8 R(3,17)         =      1.085694    -0.046596    -0.006217     1.079478
	    9 R(4,7)          =      1.387682    -0.094699    -0.010051     1.377631
	   10 R(4,9)          =      1.391281     0.032658     0.003730     1.395011
	   11 R(4,18)         =      1.086455    -0.052927    -0.007080     1.079375
	   12 R(5,10)         =      1.395407    -0.060268    -0.006659     1.388749
	   13 R(5,11)         =      1.394521    -0.120050    -0.013082     1.381439
	   14 R(5,19)         =      1.086545    -0.045184    -0.006061     1.080484
	   15 R(6,12)         =      1.339561     0.014743     0.001424     1.340986
	   16 R(6,20)         =      1.081489    -0.022325    -0.002919     1.078570
	   17 R(7,12)         =      1.339382     0.020317     0.001965     1.341347
	   18 R(7,21)         =      1.081360    -0.021764    -0.002850     1.078510
	   19 R(8,9)          =      1.447320     0.091386     0.011663     1.458983
	   20 R(8,11)         =      1.394821    -0.050757    -0.005151     1.389670
	   21 R(10,13)        =      1.361638     0.020862     0.002163     1.363801
	   22 R(11,14)        =      1.341125    -0.020374    -0.001797     1.339328
	   23 R(12,22)        =      1.019496    -0.048624    -0.005467     1.014030
	   24 R(13,23)        =      0.970387    -0.065071    -0.006229     0.964158
	   25 B(1,2,10)       =    120.009056    -0.000070    -0.120639   119.888418
	   26 B(1,2,16)       =    119.675016     0.000217     0.540305   120.215321
	   27 B(1,8,9)        =    119.838095     0.000368     0.674595   120.512690
	   28 B(1,8,11)       =    119.959722    -0.000599    -1.205578   118.754143
	   29 B(2,1,8)        =    120.031219     0.000186     0.462824   120.494043
	   30 B(2,1,15)       =    119.144799     0.000099     0.275798   119.420598
	   31 B(2,10,5)       =    119.994870     0.000062     0.116945   120.111815
	   32 B(2,10,13)      =    119.991510     0.000102     0.198851   120.190361
	   33 B(3,6,12)       =    120.101096    -0.000325    -0.723348   119.377748
	   34 B(3,6,20)       =    123.814942     0.000063     0.098842   123.913783
	   35 B(3,9,4)        =    119.928982    -0.000495    -1.022142   118.906839
	   36 B(3,9,8)        =    120.008404     0.000148     0.278878   120.287283
	   37 B(4,7,12)       =    120.081885    -0.000324    -0.711911   119.369974
	   38 B(4,7,21)       =    123.829863     0.000063     0.094099   123.923962
	   39 B(4,9,8)        =    120.062613     0.000347     0.743164   120.805777
	   40 B(5,10,13)      =    120.013619    -0.000164    -0.321162   119.692457
	   41 B(5,11,8)       =    120.045019     0.000644     1.261932   121.306951
	   42 B(5,11,14)      =    119.256220    -0.000029    -0.091947   119.164274
	   43 B(6,3,9)        =    118.737620     0.000420     0.896145   119.633765
	   44 B(6,3,17)       =    119.771194    -0.000187    -0.390546   119.380648
	   45 B(6,12,7)       =    122.368334     0.000328     0.708034   123.076368
	   46 B(6,12,22)      =    118.850498    -0.000172    -0.374430   118.476069
	   47 B(7,4,9)        =    118.782073     0.000396     0.853169   119.635243
	   48 B(7,4,18)       =    119.737652    -0.000179    -0.381178   119.356473
	   49 B(7,12,22)      =    118.781161    -0.000156    -0.333600   118.447561
	   50 B(8,1,15)       =    120.823969    -0.000286    -0.738963   120.085006
	   51 B(8,11,14)      =    120.698759    -0.000615    -1.170653   119.528106
	   52 B(9,3,17)       =    121.491171    -0.000232    -0.505623   120.985548
	   53 B(9,4,18)       =    121.480258    -0.000217    -0.471979   121.008279
	   54 B(9,8,11)       =    120.202184     0.000231     0.530874   120.733058
	   55 B(10,2,16)      =    120.315896    -0.000147    -0.419718   119.896179
	   56 B(10,5,11)      =    119.960108    -0.000222    -0.516088   119.444020
	   57 B(10,5,19)      =    120.341451     0.000078     0.168142   120.509593
	   58 B(10,13,23)     =    110.235490    -0.000030    -0.080948   110.154542
	   59 B(11,5,19)      =    119.698439     0.000145     0.347856   120.046295
	   60 B(12,6,20)      =    116.083959     0.000262     0.624294   116.708253
	   61 B(12,7,21)      =    116.088250     0.000262     0.617792   116.706043
	   62 D(1,2,10,5)     =     -0.018609     0.000003     0.055282     0.036673
	   63 D(1,2,10,13)    =    179.988267    -0.000035    -0.796861   179.191406
	   64 D(1,8,9,3)      =     60.000294    -0.000049    -1.136164    58.864131
	   65 D(1,8,9,4)      =   -119.990639    -0.000045    -1.028492  -121.019131
	   66 D(1,8,11,5)     =      0.018608    -0.000002    -0.043069    -0.024461
	   67 D(1,8,11,14)    =   -179.996269     0.000011     0.272053  -179.724216
	   68 D(2,1,8,9)      =    179.981897    -0.000002    -0.034905   179.946992
	   69 D(2,1,8,11)     =     -0.019945    -0.000006    -0.152639    -0.172584
	   70 D(2,10,5,11)    =      0.017261    -0.000011    -0.247447    -0.230186
	   71 D(2,10,5,19)    =   -179.967685    -0.000016    -0.372391  -180.340077
	   72 D(2,10,13,23)   =     90.044659     0.000005     0.028177    90.072836
	   73 D(3,6,12,7)     =     -0.009589     0.000003     0.065030     0.055442
	   74 D(3,6,12,22)    =    179.959844     0.000004     0.075370   180.035214
	   75 D(3,9,4,7)      =     -0.012204     0.000002     0.061769     0.049565
	   76 D(3,9,4,18)     =   -179.964007     0.000001     0.039615  -179.924392
	   77 D(3,9,8,11)     =   -119.997860    -0.000044    -1.016051  -121.013910
	   78 D(4,7,12,6)     =      0.028196    -0.000000    -0.010761     0.017435
	   79 D(4,7,12,22)    =   -179.941258    -0.000001    -0.021085  -179.962343
	   80 D(4,9,3,6)      =      0.030092     0.000000    -0.007927     0.022165
	   81 D(4,9,3,17)     =    179.984799     0.000005     0.109565   180.094364
	   82 D(4,9,8,11)     =     60.011207    -0.000040    -0.908379    59.102828
	   83 D(5,10,2,16)    =    179.917291     0.000010     0.223645   180.140937
	   84 D(5,10,13,23)   =    -89.948464    -0.000033    -0.820417   -90.768881
	   85 D(5,11,8,9)     =   -179.983240    -0.000007    -0.161068  -180.144309
	   86 D(6,3,9,8)      =   -179.960854     0.000004     0.097556  -179.863297
	   87 D(6,12,7,21)    =   -179.960420    -0.000003    -0.072954  -180.033374
	   88 D(7,4,9,8)      =    179.978736    -0.000001    -0.044323   179.934413
	   89 D(7,12,6,20)    =    179.969740    -0.000004    -0.076880   179.892860
	   90 D(8,1,2,10)     =      0.019955     0.000006     0.146825     0.166780
	   91 D(8,1,2,16)     =   -179.916358    -0.000001    -0.021462  -179.937820
	   92 D(8,9,3,17)     =     -0.006146     0.000009     0.215049     0.208902
	   93 D(8,9,4,18)     =      0.026933    -0.000002    -0.066477    -0.039544
	   94 D(8,11,5,10)    =     -0.017270     0.000010     0.242357     0.225086
	   95 D(8,11,5,19)    =    179.967774     0.000016     0.366686   180.334460
	   96 D(9,3,6,12)     =     -0.019721    -0.000003    -0.054406    -0.074127
	   97 D(9,3,6,20)     =   -179.997375     0.000004     0.098256  -179.899119
	   98 D(9,4,7,12)     =     -0.016764    -0.000002    -0.053171    -0.069936
	   99 D(9,4,7,21)     =    179.970928     0.000001     0.013837   179.984765
	  100 D(9,8,1,15)     =      0.023110     0.000006     0.141423     0.164533
	  101 D(9,8,11,14)    =      0.001883     0.000006     0.154054     0.155936
	  102 D(10,2,1,15)    =    179.979432    -0.000001    -0.028757   179.950676
	  103 D(10,5,11,14)   =    179.997392    -0.000002    -0.071481   179.925911
	  104 D(11,5,10,13)   =   -179.989616     0.000027     0.600477  -179.389139
	  105 D(11,8,1,15)    =   -179.978731     0.000001     0.023689  -179.955043
	  106 D(12,6,3,17)    =   -179.975226    -0.000008    -0.169934  -180.145160
	  107 D(12,7,4,18)    =    179.935898    -0.000001    -0.031444   179.904454
	  108 D(13,10,2,16)   =     -0.075833    -0.000028    -0.628498    -0.704331
	  109 D(13,10,5,19)   =      0.025437     0.000022     0.475533     0.500970
	  110 D(14,11,5,19)   =     -0.017564     0.000003     0.052848     0.035284
	  111 D(15,1,2,16)    =      0.043120    -0.000009    -0.197044    -0.153924
	  112 D(17,3,6,20)    =      0.047120    -0.000001    -0.017271     0.029848
	  113 D(18,4,7,21)    =     -0.076410     0.000002     0.035564    -0.040845
	  114 D(20,6,12,22)   =     -0.060827    -0.000003    -0.066541    -0.127367
	  115 D(21,7,12,22)   =      0.070126    -0.000004    -0.083278    -0.013152
	  116 R(4,14)         =      3.008738    -0.009677    -0.004792     3.003946
	 ---------------------------------------------------------------------------
	Successfully symmetrized geometry.
	 Forces used to impose fixed constraints are not included.
	  Forces zeroed: 72 

  ==> Convergence Check <==

  Measures of convergence in internal coordinates in au.
  Criteria marked as inactive (o), active & met (*), and active & unmet ( ).
  --------------------------------------------------------------------------------------------- ~
   Step     Total Energy     Delta E     MAX Force     RMS Force      MAX Disp      RMS Disp    ~
  --------------------------------------------------------------------------------------------- ~
    Convergence Criteria    1.00e-06 *    3.00e-04 *             o    1.20e-03 *             o  ~
  --------------------------------------------------------------------------------------------- ~
      1    -653.23610414   -6.53e+02      1.46e-02      3.82e-03 o    2.47e-02      9.28e-03 o  ~
  ---------------------------------------------------------------------------------------------

	Writing optimization data to binary file.
	Structure for next step:
	Cartesian Geometry (in Angstrom)
	    C    -1.3407448880   0.7782127646  -0.7739753305
	    C    -2.4131449639   1.3470534601  -0.1047531893
	    C     1.6149744852   0.3449489707  -1.6144213247
	    C     1.1247837455  -1.7818542719  -0.6114165887
	    C    -1.4310585282   0.7166167167   2.0020243296
	    C     2.6757778099  -0.2361663674  -2.2749603284
	    C     2.1950414394  -2.3235837730  -1.2888719454
	    C    -0.3064610752   0.1706098415  -0.0648086802
	    C     0.8218928399  -0.4292492929  -0.7688097199
	    C    -2.4583328208   1.3157677505   1.2848432266
	    C    -0.3698065629   0.1496989357   1.3232592887
	    N     2.9298928446  -1.5401131072  -2.0922269217
	    O    -3.5023036507   1.8880121038   1.9501351282
	    F     0.6185962098  -0.4253139248   2.0205534737
	    H    -1.3137132920   0.8061267649  -1.8547543668
	    H    -3.2131511456   1.8161221275  -0.6591656681
	    H     1.4118035413   1.3951395974  -1.7596556252
	    H     0.5326599521  -2.4128590872   0.0337761945
	    H    -1.4569234969   0.6934912129   3.0819512360
	    H     3.3338416268   0.2970220610  -2.9427740258
	    H     2.4908250170  -3.3583276942  -1.2181535527
	    H     3.7140960583  -1.9534962540  -2.5845639946
	    H    -4.2066623773   1.2427337840   2.0808852621
			--------------------------
			 OPTKING Finished Execution 
			--------------------------

    Structure for next step:
    Molecular point group: c1
    Full point group: C1

    Geometry (in Angstrom), charge = 1, multiplicity = 1:

    C           -1.337686744329     0.779838171920    -0.772456009561
    C           -2.410086820157     1.348678867428    -0.103233868317
    C            1.618032628907     0.346574378009    -1.612902003728
    C            1.127841889252    -1.780228864566    -0.609897267741
    C           -1.428000384487     0.718242124063     2.003543650584
    C            2.678835953661    -0.234540960116    -2.273441007506
    C            2.198099583084    -2.321958365685    -1.287352624421
    C           -0.303402931463     0.172235248800    -0.063289359223
    C            0.824950983653    -0.427623885598    -0.767290398912
    C           -2.455274677129     1.317393157837     1.286362547587
    C           -0.366748419216     0.151324343028     1.324778609625
    N            2.932950988335    -1.538487699838    -2.090707600735
    O           -3.499245507031     1.889637511126     1.951654449161
    F            0.621654353513    -0.423688517497     2.022072794628
    H           -1.310655148317     0.807752172228    -1.853235045817
    H           -3.210093001932     1.817747534825    -0.657646347180
    H            1.414861684981     1.396765004770    -1.758136304252
    H            0.535718095842    -2.411233679887     0.035295515403
    H           -1.453865353140     0.695116620267     3.083470556951
    H            3.336899770472     0.298647468322    -2.941254704814
    H            2.493883160740    -3.356702286826    -1.216634231748
    H            3.717154202021    -1.951870846688    -2.583044673681
    H           -4.203604233591     1.244359191314     2.082404583009

gradient() will perform analytic gradient computation.

*** tstart() called on gpu-2-7.local
*** at Sat Nov 11 20:30:10 2017

    SCF Algorithm Type (re)set to DF.

*** tstart() called on gpu-2-7.local
*** at Sat Nov 11 20:30:10 2017

   => Loading Basis Set <=

    Name: AUG-CC-PVTZ
    Role: ORBITAL
    Keyword: BASIS
    atoms 1-11  entry C          line   221 file /cbio/jclab/home/chayas/anaconda/envs/py35/share/psi4/basis/aug-cc-pvtz.gbs 
    atoms 12    entry N          line   267 file /cbio/jclab/home/chayas/anaconda/envs/py35/share/psi4/basis/aug-cc-pvtz.gbs 
    atoms 13    entry O          line   313 file /cbio/jclab/home/chayas/anaconda/envs/py35/share/psi4/basis/aug-cc-pvtz.gbs 
    atoms 14    entry F          line   359 file /cbio/jclab/home/chayas/anaconda/envs/py35/share/psi4/basis/aug-cc-pvtz.gbs 
    atoms 15-23 entry H          line    34 file /cbio/jclab/home/chayas/anaconda/envs/py35/share/psi4/basis/aug-cc-pvtz.gbs 


         ---------------------------------------------------------
                                   SCF
            by Justin Turney, Rob Parrish, and Andy Simmonett
                              RHF Reference
                        8 Threads,   4768 MiB Core
         ---------------------------------------------------------

  ==> Geometry <==

    Molecular point group: c1
    Full point group: C1

    Geometry (in Angstrom), charge = 1, multiplicity = 1:

       Center              X                  Y                   Z               Mass       
    ------------   -----------------  -----------------  -----------------  -----------------
           C         -1.337686744329     0.779838171920    -0.772456009561    12.000000000000
           C         -2.410086820157     1.348678867428    -0.103233868317    12.000000000000
           C          1.618032628907     0.346574378009    -1.612902003728    12.000000000000
           C          1.127841889252    -1.780228864566    -0.609897267741    12.000000000000
           C         -1.428000384487     0.718242124063     2.003543650584    12.000000000000
           C          2.678835953661    -0.234540960116    -2.273441007506    12.000000000000
           C          2.198099583084    -2.321958365685    -1.287352624421    12.000000000000
           C         -0.303402931463     0.172235248800    -0.063289359223    12.000000000000
           C          0.824950983653    -0.427623885598    -0.767290398912    12.000000000000
           C         -2.455274677129     1.317393157837     1.286362547587    12.000000000000
           C         -0.366748419216     0.151324343028     1.324778609625    12.000000000000
           N          2.932950988335    -1.538487699838    -2.090707600735    14.003074004780
           O         -3.499245507031     1.889637511126     1.951654449161    15.994914619560
           F          0.621654353513    -0.423688517497     2.022072794628    18.998403224000
           H         -1.310655148317     0.807752172228    -1.853235045817     1.007825032070
           H         -3.210093001932     1.817747534825    -0.657646347180     1.007825032070
           H          1.414861684981     1.396765004770    -1.758136304252     1.007825032070
           H          0.535718095842    -2.411233679887     0.035295515403     1.007825032070
           H         -1.453865353140     0.695116620267     3.083470556951     1.007825032070
           H          3.336899770472     0.298647468322    -2.941254704814     1.007825032070
           H          2.493883160740    -3.356702286826    -1.216634231748     1.007825032070
           H          3.717154202021    -1.951870846688    -2.583044673681     1.007825032070
           H         -4.203604233591     1.244359191314     2.082404583009     1.007825032070

  Running in c1 symmetry.

  Rotational constants: A =      0.06348  B =      0.01284  C =      0.01147 [cm^-1]
  Rotational constants: A =   1902.94974  B =    384.84597  C =    343.75211 [MHz]
  Nuclear repulsion =  830.075092853843444

  Charge       = 1
  Multiplicity = 1
  Electrons    = 98
  Nalpha       = 49
  Nbeta        = 49

  ==> Algorithm <==

  SCF Algorithm Type is DF.
  DIIS enabled.
  MOM disabled.
  Fractional occupation disabled.
  Guess Type is READ.
  Energy threshold   = 1.00e-10
  Density threshold  = 1.00e-10
  Integral threshold = 0.00e+00

  ==> Primary Basis <==

  Basis Set: AUG-CC-PVTZ
    Blend: AUG-CC-PVTZ
    Number of shells: 277
    Number of basis function: 851
    Number of Cartesian functions: 995
    Spherical Harmonics?: true
    Max angular momentum: 3

   => Loading Basis Set <=

    Name: (AUG-CC-PVTZ AUX)
    Role: JKFIT
    Keyword: DF_BASIS_SCF
    atoms 1-11  entry C          line   161 file /cbio/jclab/home/chayas/anaconda/envs/py35/share/psi4/basis/aug-cc-pvtz-jkfit.gbs 
    atoms 12    entry N          line   223 file /cbio/jclab/home/chayas/anaconda/envs/py35/share/psi4/basis/aug-cc-pvtz-jkfit.gbs 
    atoms 13    entry O          line   285 file /cbio/jclab/home/chayas/anaconda/envs/py35/share/psi4/basis/aug-cc-pvtz-jkfit.gbs 
    atoms 14    entry F          line   347 file /cbio/jclab/home/chayas/anaconda/envs/py35/share/psi4/basis/aug-cc-pvtz-jkfit.gbs 
    atoms 15-23 entry H          line    69 file /cbio/jclab/home/chayas/anaconda/envs/py35/share/psi4/basis/aug-cc-pvtz-jkfit.gbs 

  Reading orbitals from file 180, no projection.

  ==> Pre-Iterations <==

   -------------------------------------------------------
    Irrep   Nso     Nmo     Nalpha   Nbeta   Ndocc  Nsocc
   -------------------------------------------------------
     A        851     851       0       0       0       0
   -------------------------------------------------------
    Total     851     851      49      49      49       0
   -------------------------------------------------------

  ==> Integral Setup <==

  ==> DFJK: Density-Fitted J/K Matrices <==

    J tasked:                  Yes
    K tasked:                  Yes
    wK tasked:                  No
    OpenMP threads:              8
    Integrals threads:           8
    Memory (MB):              3576
    Algorithm:                Disk
    Integral Cache:           NONE
    Schwarz Cutoff:          1E-12
    Fitting Condition:       1E-12

   => Auxiliary Basis Set <=

  Basis Set: (AUG-CC-PVTZ AUX)
    Blend: AUG-CC-PVTZ-JKFIT
    Number of shells: 546
    Number of basis function: 1870
    Number of Cartesian functions: 2329
    Spherical Harmonics?: true
    Max angular momentum: 4

  Minimum eigenvalue in the overlap matrix is 7.0801954568E-07.
  Using Symmetric Orthogonalization.

  SCF Guess: Orbitals guess was supplied from a previous computation.

  ==> Iterations <==

                           Total Energy        Delta E     RMS |[F,P]|

   @DF-RHF iter   0:  -650.60461716665816   -6.50605e+02   3.75074e-04 
   @DF-RHF iter   1:  -650.55872125531369    4.58959e-02   6.01745e-05 
   @DF-RHF iter   2:  -650.55893214100320   -2.10886e-04   4.82206e-05 DIIS
   @DF-RHF iter   3:  -650.55904178927926   -1.09648e-04   8.30750e-06 DIIS
   @DF-RHF iter   4:  -650.55904819385205   -6.40457e-06   3.24350e-06 DIIS
   @DF-RHF iter   5:  -650.55904977786565   -1.58401e-06   1.30041e-06 DIIS
   @DF-RHF iter   6:  -650.55905005820296   -2.80337e-07   6.03444e-07 DIIS
   @DF-RHF iter   7:  -650.55905013708355   -7.88806e-08   2.40459e-07 DIIS
   @DF-RHF iter   8:  -650.55905015795713   -2.08736e-08   9.75605e-08 DIIS
   @DF-RHF iter   9:  -650.55905016147176   -3.51463e-09   3.96815e-08 DIIS
   @DF-RHF iter  10:  -650.55905016186114   -3.89377e-10   1.46586e-08 DIIS
   @DF-RHF iter  11:  -650.55905016191457   -5.34328e-11   3.76547e-09 DIIS
   @DF-RHF iter  12:  -650.55905016188535    2.92175e-11   1.48981e-09 DIIS
   @DF-RHF iter  13:  -650.55905016190025   -1.48930e-11   7.33175e-10 DIIS
   @DF-RHF iter  14:  -650.55905016193378   -3.35376e-11   3.40731e-10 DIIS
   @DF-RHF iter  15:  -650.55905016190331    3.04681e-11   1.47348e-10 DIIS
   @DF-RHF iter  16:  -650.55905016190627   -2.95586e-12   7.24028e-11 DIIS

  ==> Post-Iterations <==

    Orbital Energies (a.u.)
    -----------------------

    Doubly Occupied:                                                      

       1A    -26.440576     2A    -20.688609     3A    -15.843775  
       4A    -11.490594     5A    -11.489049     6A    -11.463343  
       7A    -11.456835     8A    -11.427654     9A    -11.421715  
      10A    -11.420831    11A    -11.383376    12A    -11.380939  
      13A    -11.356720    14A    -11.353225    15A     -1.760702  
      16A     -1.519760    17A     -1.509468    18A     -1.325722  
      19A     -1.274338    20A     -1.247407    21A     -1.165626  
      22A     -1.153095    23A     -1.073275    24A     -1.064529  
      25A     -0.985517    26A     -0.972635    27A     -0.965429  
      28A     -0.888600    29A     -0.876781    30A     -0.864007  
      31A     -0.842838    32A     -0.828964    33A     -0.821752  
      34A     -0.808839    35A     -0.803028    36A     -0.781954  
      37A     -0.759482    38A     -0.751358    39A     -0.736751  
      40A     -0.716098    41A     -0.714474    42A     -0.669677  
      43A     -0.656960    44A     -0.630041    45A     -0.597829  
      46A     -0.582916    47A     -0.544505    48A     -0.470867  
      49A     -0.459276  

    Virtual:                                                              

      50A     -0.109078    51A     -0.087078    52A     -0.066609  
      53A     -0.063558    54A     -0.059605    55A     -0.050663  
      56A     -0.043407    57A     -0.040340    58A     -0.034054  
      59A     -0.030349    60A     -0.024459    61A     -0.019879  
      62A     -0.015092    63A     -0.011344    64A     -0.006320  
      65A     -0.002774    66A      0.001648    67A      0.007689  
      68A      0.008812    69A      0.012041    70A      0.014990  
      71A      0.016431    72A      0.020537    73A      0.025986  
      74A      0.031444    75A      0.032649    76A      0.034970  
      77A      0.039002    78A      0.041728    79A      0.044116  
      80A      0.047536    81A      0.049600    82A      0.055321  
      83A      0.057151    84A      0.065436    85A      0.067464  
      86A      0.068883    87A      0.076489    88A      0.080737  
      89A      0.083587    90A      0.086724    91A      0.091084  
      92A      0.094438    93A      0.101502    94A      0.104458  
      95A      0.110460    96A      0.116833    97A      0.117578  
      98A      0.125081    99A      0.127530   100A      0.133084  
     101A      0.136092   102A      0.138436   103A      0.142082  
     104A      0.144248   105A      0.148459   106A      0.151504  
     107A      0.156859   108A      0.159541   109A      0.165139  
     110A      0.167487   111A      0.169643   112A      0.171701  
     113A      0.177610   114A      0.182352   115A      0.186590  
     116A      0.194009   117A      0.194391   118A      0.196198  
     119A      0.198340   120A      0.202575   121A      0.209551  
     122A      0.212352   123A      0.217709   124A      0.219420  
     125A      0.223191   126A      0.229693   127A      0.231415  
     128A      0.233114   129A      0.235143   130A      0.242698  
     131A      0.247297   132A      0.249904   133A      0.252489  
     134A      0.256548   135A      0.258520   136A      0.261074  
     137A      0.269035   138A      0.272958   139A      0.277564  
     140A      0.278904   141A      0.284228   142A      0.287284  
     143A      0.289648   144A      0.296422   145A      0.302987  
     146A      0.306207   147A      0.312105   148A      0.318575  
     149A      0.320197   150A      0.322765   151A      0.324405  
     152A      0.326329   153A      0.331239   154A      0.334061  
     155A      0.339225   156A      0.344474   157A      0.346058  
     158A      0.349194   159A      0.350934   160A      0.353471  
     161A      0.359439   162A      0.368369   163A      0.369714  
     164A      0.371054   165A      0.378042   166A      0.380585  
     167A      0.385415   168A      0.387015   169A      0.388317  
     170A      0.391188   171A      0.394399   172A      0.399899  
     173A      0.400368   174A      0.408643   175A      0.409403  
     176A      0.412766   177A      0.420889   178A      0.424371  
     179A      0.425766   180A      0.426738   181A      0.432202  
     182A      0.435281   183A      0.438228   184A      0.446504  
     185A      0.447744   186A      0.455658   187A      0.460969  
     188A      0.467834   189A      0.470907   190A      0.475882  
[...]
	 B(12,6,20)       =         2.042367	     117.018994
	 B(12,7,21)       =         2.041028	     116.942289
	 D(1,2,10,5)      =         0.007743	       0.443613
	 D(1,2,10,13)     =         3.066258	     175.683639
	 D(1,8,9,3)       =         0.556855	      31.905467
	 D(1,8,9,4)       =        -2.572785	    -147.409730
	 D(1,8,11,5)      =        -0.005670	      -0.324839
	 D(1,8,11,14)     =        -3.102979	    -177.787622
	 D(2,1,8,9)       =        -3.136781	    -179.724289
	 D(2,1,8,11)      =        -0.008184	      -0.468905
	 D(2,10,5,11)     =        -0.020957	      -1.200729
	 D(2,10,5,19)     =         3.104905	     177.897950
	 D(2,10,13,23)    =         1.570413	      89.978029
	 D(3,6,12,7)      =         0.000971	       0.055607
	 D(3,6,12,22)     =        -3.136457	    -179.705773
	 D(3,9,4,7)       =        -0.003193	      -0.182949
	 D(3,9,4,18)      =        -3.124654	    -179.029497
	 D(3,9,8,11)      =        -2.571036	    -147.309493
	 D(4,7,12,6)      =        -0.002575	      -0.147558
	 D(4,7,12,22)     =         3.134853	     179.613849
	 D(4,9,3,6)       =         0.001605	       0.091946
	 D(4,9,3,17)      =        -3.105926	    -177.956423
	 D(4,9,8,11)      =         0.582509	      33.375311
	 D(5,10,2,16)     =        -3.132484	    -179.478110
	 D(5,10,13,23)    =        -1.653705	     -94.750333
	 D(5,11,8,9)      =         3.122715	     178.918405
	 D(6,3,9,8)       =        -3.128648	    -179.258332
	 D(6,12,7,21)     =         3.132534	     179.480990
	 D(7,4,9,8)       =         3.126801	     179.152495
	 D(7,12,6,20)     =         3.129766	     179.322356
	 D(8,1,2,10)      =         0.007121	       0.408009
	 D(8,1,2,16)      =        -3.135862	    -179.671647
	 D(8,9,3,17)      =         0.047007	       2.693299
	 D(8,9,4,18)      =         0.005340	       0.305947
	 D(8,11,5,10)     =         0.020180	       1.156233
	 D(8,11,5,19)     =        -3.105760	    -177.946944
	 D(9,3,6,12)      =        -0.000501	      -0.028723
	 D(9,3,6,20)      =        -3.128390	    -179.243543
	 D(9,4,7,12)      =         0.003700	       0.212004
	 D(9,4,7,21)      =        -3.130962	    -179.390904
	 D(9,8,1,15)      =         0.047287	       2.709349
	 D(9,8,11,14)     =         0.025405	       1.455621
	 D(10,2,1,15)     =         3.106360	     177.981311
	 D(10,5,11,14)    =         3.117864	     178.640450
	 D(11,5,10,13)    =        -3.080166	    -176.480536
	 D(11,8,1,15)     =        -3.107302	    -178.035267
	 D(12,6,3,17)     =         3.107777	     178.062530
	 D(12,7,4,18)     =         3.125647	     179.086356
	 D(13,10,2,16)    =        -0.073969	      -4.238084
	 D(13,10,5,19)    =         0.045695	       2.618143
	 D(14,11,5,19)    =        -0.008076	      -0.462727
	 D(15,1,2,16)     =        -0.036623	      -2.098345
	 D(17,3,6,20)     =        -0.020111	      -1.152289
	 D(18,4,7,21)     =        -0.009016	      -0.516552
	 D(20,6,12,22)    =        -0.007662	      -0.439023
	 D(21,7,12,22)    =        -0.013223	      -0.757603
	 R(4,14)          =         5.220732	       2.762692

	Current energy   :      -653.2428498804

	Energy change for the previous step:
		Projected    :        -0.0000004355
		Actual       :        -0.0000002043

	Performing BFGS update.
	Previous computed or guess Hessian on step 1.
	Steps to be used in Hessian update: 14 13
	Adding user-defined constraint: Fragment 1; Coordinate 72:
		Value =     1.570413; Fixed value    =     1.570800
		Force =     0.000329; Force constant =     0.850000
	Removing off-diagonal coupling between coordinate 72 and others.
	Taking RFO optimization step.
	Going to follow RFO solution 1.
	Using RFO vector 1.
	Norm of target step-size    0.00149
	Projected energy change by RFO approximation:        -0.0000002221

	Back-transformation to cartesian coordinates...
	Successfully converged to displaced geometry.

	--- Internal Coordinate Step in ANG or DEG, aJ/ANG or AJ/DEG ---
	 ---------------------------------------------------------------------------
	   Coordinate                Previous        Force       Change         New 
	   ----------                --------       ------       ------       ------
	    1 R(1,2)          =      1.379283    -0.000017    -0.000010     1.379273
	    2 R(1,8)          =      1.399891     0.000128     0.000024     1.399915
	    3 R(1,15)         =      1.079529     0.000071     0.000009     1.079538
	    4 R(2,10)         =      1.391474     0.000177     0.000024     1.391498
	    5 R(2,16)         =      1.078090     0.000078     0.000011     1.078101
	    6 R(3,6)          =      1.372695     0.000039     0.000002     1.372698
	    7 R(3,9)          =      1.399831     0.000209     0.000036     1.399867
	    8 R(3,17)         =      1.077579     0.000146     0.000024     1.077603
	    9 R(4,7)          =      1.373348     0.000031     0.000003     1.373351
	   10 R(4,9)          =      1.400451     0.000034     0.000005     1.400456
	   11 R(4,18)         =      1.075788     0.000143     0.000030     1.075818
	   12 R(5,10)         =      1.387792     0.000113     0.000007     1.387799
	   13 R(5,11)         =      1.375290     0.000028     0.000005     1.375295
	   14 R(5,19)         =      1.077827     0.000086     0.000013     1.077840
	   15 R(6,12)         =      1.342362     0.000231     0.000025     1.342387
	   16 R(6,20)         =      1.077142     0.000073     0.000012     1.077154
	   17 R(7,12)         =      1.342284     0.000162     0.000010     1.342294
	   18 R(7,21)         =      1.077150     0.000078     0.000013     1.077162
	   19 R(8,9)          =      1.448705    -0.000134    -0.000012     1.448693
	   20 R(8,11)         =      1.393986    -0.000101    -0.000010     1.393976
	   21 R(10,13)        =      1.363835    -0.000016    -0.000006     1.363829
	   22 R(11,14)        =      1.344049     0.000027    -0.000003     1.344047
	   23 R(12,22)        =      1.012228     0.000013     0.000001     1.012229
	   24 R(13,23)        =      0.962911     0.000122     0.000012     0.962923
	   25 B(1,2,10)       =    119.821951    -0.000000    -0.001557   119.820394
	   26 B(1,2,16)       =    120.952747    -0.000000    -0.001179   120.951568
	   27 B(1,8,9)        =    120.765904    -0.000001    -0.009720   120.756183
	   28 B(1,8,11)       =    116.953141     0.000001    -0.000089   116.953053
	   29 B(2,1,8)        =    121.423858    -0.000000     0.002223   121.426081
	   30 B(2,1,15)       =    119.120168    -0.000000    -0.004174   119.115995
	   31 B(2,10,5)       =    120.108741    -0.000000    -0.001686   120.107055
	   32 B(2,10,13)      =    120.278611     0.000000     0.000819   120.279431
	   33 B(3,6,12)       =    119.275214    -0.000000     0.000179   119.275393
	   34 B(3,6,20)       =    123.701409    -0.000000    -0.002638   123.698771
	   35 B(3,9,4)        =    117.205536     0.000000    -0.003315   117.202221
	   36 B(3,9,8)        =    120.336121    -0.000001    -0.005264   120.330857
	   37 B(4,7,12)       =    119.558360    -0.000000    -0.000408   119.557952
	   38 B(4,7,21)       =    123.498231    -0.000000    -0.003333   123.494899
	   39 B(4,9,8)        =    122.454992     0.000001     0.008419   122.463411
	   40 B(5,10,13)      =    119.442985     0.000000     0.000967   119.443952
	   41 B(5,11,8)       =    122.729994    -0.000001    -0.002303   122.727691
	   42 B(5,11,14)      =    118.166320     0.000001    -0.002542   118.163777
	   43 B(6,3,9)        =    120.827165    -0.000000     0.001411   120.828576
	   44 B(6,3,17)       =    118.451339    -0.000000    -0.004666   118.446674
	   45 B(6,12,7)       =    122.630373    -0.000000    -0.000927   122.629446
	   46 B(6,12,22)      =    118.690484     0.000000     0.000431   118.690914
	   47 B(7,4,9)        =    120.503034     0.000000     0.003052   120.506085
	   48 B(7,4,18)       =    118.520678     0.000000    -0.001458   118.519220
	   49 B(7,12,22)      =    118.678725     0.000000     0.000496   118.679221
	   50 B(8,1,15)       =    119.411992     0.000000     0.001955   119.413947
	   51 B(8,11,14)      =    119.056824    -0.000000     0.005181   119.062005
	   52 B(9,3,17)       =    120.693579     0.000000     0.003292   120.696872
	   53 B(9,4,18)       =    120.966526    -0.000001    -0.001731   120.964795
	   54 B(9,8,11)       =    122.276572     0.000000     0.009916   122.286488
	   55 B(10,2,16)      =    119.225255     0.000001     0.002742   119.227997
	   56 B(10,5,11)      =    118.950306     0.000000     0.003451   118.953756
	   57 B(10,5,19)      =    120.764842     0.000000     0.003161   120.768003
	   58 B(10,13,23)     =    110.612879    -0.000000     0.000261   110.613140
	   59 B(11,5,19)      =    120.278680    -0.000001    -0.006590   120.272090
	   60 B(12,6,20)      =    117.018994     0.000000     0.002557   117.021551
	   61 B(12,7,21)      =    116.942289     0.000000     0.003717   116.946006
	   62 D(1,2,10,5)     =      0.443613     0.000000    -0.000575     0.443038
	   63 D(1,2,10,13)    =    175.683639    -0.000000     0.000874   175.684513
	   64 D(1,8,9,3)      =     31.905467    -0.000000    -0.028059    31.877408
	   65 D(1,8,9,4)      =   -147.409730    -0.000000    -0.011940  -147.421670
	   66 D(1,8,11,5)     =     -0.324839    -0.000000    -0.005090    -0.329929
	   67 D(1,8,11,14)    =   -177.787622    -0.000000    -0.014123  -177.801745
	   68 D(2,1,8,9)      =   -179.724289    -0.000000    -0.003093  -179.727382
	   69 D(2,1,8,11)     =     -0.468905     0.000000     0.006108    -0.462797
	   70 D(2,10,5,11)    =     -1.200729    -0.000000     0.001574    -1.199155
	   71 D(2,10,5,19)    =    177.897950    -0.000000     0.003148   177.901098
	   72 D(2,10,13,23)   =     89.978029     0.000001     0.000431    89.978460
	   73 D(3,6,12,7)     =      0.055607    -0.000000    -0.008189     0.047418
	   74 D(3,6,12,22)    =   -179.705773    -0.000000    -0.008128  -179.713901
	   75 D(3,9,4,7)      =     -0.182949    -0.000000    -0.006130    -0.189079
	   76 D(3,9,4,18)     =   -179.029497     0.000000     0.001952  -179.027546
	   77 D(3,9,8,11)     =   -147.309493    -0.000000    -0.037674  -147.347167
	   78 D(4,7,12,6)     =     -0.147558     0.000000     0.004111    -0.143447
	   79 D(4,7,12,22)    =    179.613849     0.000000     0.004050   179.617899
	   80 D(4,9,3,6)      =      0.091946     0.000000     0.002051     0.093997
	   81 D(4,9,3,17)     =   -177.956423     0.000000     0.000825  -177.955598
	   82 D(4,9,8,11)     =     33.375311    -0.000000    -0.021556    33.353755
	   83 D(5,10,2,16)    =   -179.478110     0.000000    -0.005814  -179.483924
	   84 D(5,10,13,23)   =    -94.750333     0.000000     0.001744   -94.748589
	   85 D(5,11,8,9)     =    178.918405     0.000000     0.004104   178.922509
	   86 D(6,3,9,8)      =   -179.258332     0.000000     0.017262  -179.241070
	   87 D(6,12,7,21)    =    179.480990    -0.000000     0.000201   179.481191
	   88 D(7,4,9,8)      =    179.152495    -0.000000    -0.021788   179.130707
	   89 D(7,12,6,20)    =    179.322356     0.000000     0.000040   179.322396
	   90 D(8,1,2,10)     =      0.408009    -0.000000    -0.003438     0.404570
	   91 D(8,1,2,16)     =   -179.671647    -0.000000     0.001896  -179.669752
	   92 D(8,9,3,17)     =      2.693299     0.000000     0.016036     2.709335
	   93 D(8,9,4,18)     =      0.305947    -0.000000    -0.013707     0.292240
	   94 D(8,11,5,10)    =      1.156233     0.000000     0.001364     1.157597
	   95 D(8,11,5,19)    =   -177.946944     0.000000    -0.000292  -177.947236
	   96 D(9,3,6,12)     =     -0.028723     0.000000     0.004910    -0.023813
	   97 D(9,3,6,20)     =   -179.243543    -0.000000    -0.003943  -179.247486
	   98 D(9,4,7,12)     =      0.212004     0.000000     0.003276     0.215280
	   99 D(9,4,7,21)     =   -179.390904     0.000000     0.007428  -179.383476
	  100 D(9,8,1,15)     =      2.709349    -0.000000    -0.003092     2.706258
	  101 D(9,8,11,14)    =      1.455621    -0.000000    -0.004929     1.450692
	  102 D(10,2,1,15)    =    177.981311    -0.000000    -0.003294   177.978017
	  103 D(10,5,11,14)   =    178.640450     0.000000     0.010506   178.650957
	  104 D(11,5,10,13)   =   -176.480536     0.000000     0.000143  -176.480393
	  105 D(11,8,1,15)    =   -178.035267    -0.000000     0.006109  -178.029157
	  106 D(12,6,3,17)    =    178.062530     0.000000     0.006259   178.068789
	  107 D(12,7,4,18)    =    179.086356    -0.000000    -0.004615   179.081741
	  108 D(13,10,2,16)   =     -4.238084    -0.000000    -0.004365    -4.242449
	  109 D(13,10,5,19)   =      2.618143     0.000000     0.001717     2.619860
	  110 D(14,11,5,19)   =     -0.462727     0.000000     0.008851    -0.453876
	  111 D(15,1,2,16)    =     -2.098345     0.000000     0.002039    -2.096306
	  112 D(17,3,6,20)    =     -1.152289    -0.000000    -0.002595    -1.154884
	  113 D(18,4,7,21)    =     -0.516552    -0.000000    -0.000463    -0.517016
	  114 D(20,6,12,22)   =     -0.439023    -0.000000     0.000101    -0.438922
	  115 D(21,7,12,22)   =     -0.757603     0.000000     0.000139    -0.757464
	  116 R(4,14)         =      2.762692     0.000142     0.000367     2.763060
	 ---------------------------------------------------------------------------
	Successfully symmetrized geometry.
	 Forces used to impose fixed constraints are not included.
	  Forces zeroed: 72 

  ==> Convergence Check <==

  Measures of convergence in internal coordinates in au.
  Criteria marked as inactive (o), active & met (*), and active & unmet ( ).
  ---------------------------------------------------------------------------------------------
   Step     Total Energy     Delta E     MAX Force     RMS Force      MAX Disp      RMS Disp   
  ---------------------------------------------------------------------------------------------
    Convergence Criteria    1.00e-06 *    3.00e-04 *             o    1.20e-03 *             o
  ---------------------------------------------------------------------------------------------
     15    -653.24284988   -2.04e-07 *    2.80e-05 *    7.93e-06 o    6.94e-04 *    1.38e-04 o  ~
  ---------------------------------------------------------------------------------------------


  **** Optimization is complete! (in 15 steps) ****

  ==> Optimization Summary <==

  Measures of convergence in internal coordinates in au.
  --------------------------------------------------------------------------------------------------------------- ~
   Step         Total Energy             Delta E       MAX Force       RMS Force        MAX Disp        RMS Disp  ~
  --------------------------------------------------------------------------------------------------------------- ~
      1    -653.236104143527   -653.236104143527      0.01457141      0.00382485      0.02472167      0.00927694  ~
      2    -653.238627229628     -0.002523086101      0.00384539      0.00124340      0.04042101      0.00925512  ~
      3    -653.239454422294     -0.000827192666      0.00262747      0.00062566      0.04592426      0.00924716  ~
      4    -653.240031022761     -0.000576600467      0.00251136      0.00051957      0.04683888      0.00923955  ~
      5    -653.240552098718     -0.000521075956      0.00235476      0.00049100      0.04627441      0.00923250  ~
      6    -653.241038655969     -0.000486557251      0.00214452      0.00046432      0.04520065      0.00922824  ~
      7    -653.241487550391     -0.000448894423      0.00208827      0.00041820      0.04648664      0.00922620  ~
      8    -653.241888132127     -0.000400581736      0.00194978      0.00036242      0.04924844      0.00922416  ~
      9    -653.242230377146     -0.000342245020      0.00169442      0.00030217      0.05099434      0.00922333  ~
     10    -653.242505289594     -0.000274912448      0.00130922      0.00023673      0.05118015      0.00922331  ~
     11    -653.242704123454     -0.000198833859      0.00082223      0.00016628      0.04922626      0.00922417  ~
     12    -653.242819309845     -0.000115186392      0.00033654      0.00010285      0.03782718      0.00774482  ~
     13    -653.242848550088     -0.000029240243      0.00022870      0.00006567      0.00549480      0.00058596  ~
     14    -653.242849676124     -0.000001126036      0.00005813      0.00001307      0.00183358      0.00031879  ~
     15    -653.242849880396     -0.000000204272      0.00002952      0.00000839      0.00069407      0.00013808  ~
  --------------------------------------------------------------------------------------------------------------- ~

	Writing optimization data to binary file.
	Final energy is   -653.2428498803957
	Final (previous) structure:
	Cartesian Geometry (in Angstrom)
	    C    -1.1759814819   1.0230388178  -0.7147668682
	    C    -2.2459978250   1.5952251809  -0.0589551945
	    C     1.4594804562   0.2817037638  -1.8061852430
	    C     1.3601132251  -1.6652292975  -0.4231123681
	    C    -1.5516191540   0.5373068813   1.9900036128
	    C     2.5139848540  -0.2732077214  -2.4876434871
	    C     2.4153005668  -2.1925821754  -1.1263640280
	    C    -0.2740103347   0.1857563573  -0.0476084634
	    C     0.8484889385  -0.4029985837  -0.7491137941
	    C    -2.4386610607   1.3489564303   1.2969326394
	    C    -0.5016252791  -0.0340999658   1.3099817111
	    N     2.9602473746  -1.4877539296  -2.1303444117
	    O    -3.4409378420   1.9784888226   1.9745571294
	    F     0.3636883986  -0.7947610904   2.0021487829
	    H    -1.0558289616   1.1950643774  -1.7737066241
	    H    -2.9390241531   2.2347402514  -0.5814615797
	    H     1.1324573675   1.2703864793  -2.0832026954
	    H     0.9265224335  -2.2506877790   0.3684413417
	    H    -1.6714960075   0.3665731418   3.0474486028
	    H     3.0253366053   0.2167451019  -3.2992474888
	    H     2.8402494393  -3.1613070484  -0.9232823683
	    H     3.7412145724  -1.8866204022  -2.6359147305
	    H    -4.2513399363   1.4595769015   1.9402571256
	Saving final (previous) structure.
			--------------------------
			 OPTKING Finished Execution 
			--------------------------

    Final optimized geometry and variables:
    Molecular point group: c1
    Full point group: C1

    Geometry (in Angstrom), charge = 1, multiplicity = 1:

    C           -1.175981481934     1.023038817848    -0.714766868203
    C           -2.245997825048     1.595225180949    -0.058955194523
    C            1.459480456154     0.281703763802    -1.806185242994
    C            1.360113225085    -1.665229297455    -0.423112368121
    C           -1.551619153997     0.537306881295     1.990003612791
    C            2.513984853982    -0.273207721356    -2.487643487087
    C            2.415300566777    -2.192582175429    -1.126364028016
    C           -0.274010334743     0.185756357308    -0.047608463387
    C            0.848488938524    -0.402998583653    -0.749113794087
    C           -2.438661060704     1.348956430266     1.296932639406
    C           -0.501625279061    -0.034099965756     1.309981711058
    N            2.960247374574    -1.487753929550    -2.130344411737
    O           -3.440937841953     1.978488822614     1.974557129435
    F            0.363688398565    -0.794761090420     2.002148782902
    H           -1.055828961603     1.195064377440    -1.773706624078
    H           -2.939024153143     2.234740251387    -0.581461579688
    H            1.132457367545     1.270386479265    -2.083202695427
    H            0.926522433483    -2.250687779008     0.368441341744
    H           -1.671496007506     0.366573141752     3.047448602758
    H            3.025336605253     0.216745101897    -3.299247488833
    H            2.840249439328    -3.161307048392    -0.923282368316
    H            3.741214572379    -1.886620402161    -2.635914730505
    H           -4.251339936310     1.459576901531     1.940257125646

	Cleaning optimization helper files.

*** Psi4 exiting successfully. Buy a developer a beer!
