
    -----------------------------------------------------------------------
          Psi4: An Open-Source Ab Initio Electronic Structure Package
                               Psi4 1.1 release

                         Git: Rev {HEAD} add49b9 


    R. M. Parrish, L. A. Burns, D. G. A. Smith, A. C. Simmonett,
    A. E. DePrince III, E. G. Hohenstein, U. Bozkaya, A. Yu. Sokolov,
    R. Di Remigio, R. M. Richard, J. F. Gonthier, A. M. James,
    H. R. McAlexander, A. Kumar, M. Saitow, X. Wang, B. P. Pritchard,
    P. Verma, H. F. Schaefer III, K. Patkowski, R. A. King, E. F. Valeev,
    F. A. Evangelista, J. M. Turney, T. D. Crawford, and C. D. Sherrill,
    J. Chem. Theory Comput. in press (2017).
    (doi: 10.1021/acs.jctc.7b00174)

    -----------------------------------------------------------------------


    Psi4 started on: Sunday, 12 November 2017 07:19AM

    Process ID:  15536
    PSIDATADIR: /cbio/jclab/home/chayas/anaconda/envs/py35/share/psi4
    Memory:     500.0 MiB
    Threads:    8
    
  ==> Input File <==

--------------------------------------------------------------------------

memory 5 Gb

molecule phepyrOH_cation {
  symmetry C1
  1 1 
  C      1.885   -1.036   -0.112
  C      2.878   -1.652   2.002
  C      0.807   -0.463   0.561
  C      1.800   -1.079   2.676
  C      5.298   -2.250   0.504
  C      3.860   -2.773   -1.357
  C      6.353   -2.827   -0.189
  C      4.951   -3.336   -2.003
  C      2.921   -1.631   0.608
  C      4.040   -2.225   -0.090
  C      0.764   -0.484   1.955
  N      6.152   -3.346   -1.408
  O      -0.288   0.076   2.612
  H      1.904   -1.012   -1.199
  H      3.678   -2.112   2.578
  H      0.003   -0.001   -0.006
  H      1.772   -1.098   3.762
  H      5.467   -1.831   1.491
  H      2.889   -2.767   -1.845
  H      7.362   -2.891   0.194
  H      4.904   -3.783   -2.986
  H      6.940   -3.764   -1.901
  H      -0.175   -0.018   3.571
  units Angstrom
}

dih_string = "1 9 10 5 150"
set optking fixed_dihedral = $dih_string

optimize('MP2/aug-cc-PVTZ')
--------------------------------------------------------------------------

  Memory set to   4.657 GiB by Python driver.
gradient() will perform analytic gradient computation.

*** tstart() called on gpu-2-7.local
*** at Sun Nov 12 07:19:30 2017

    SCF Algorithm Type (re)set to DF.

*** tstart() called on gpu-2-7.local
*** at Sun Nov 12 07:19:30 2017

   => Loading Basis Set <=

    Name: AUG-CC-PVTZ
    Role: ORBITAL
    Keyword: BASIS
    atoms 1-11  entry C          line   221 file /cbio/jclab/home/chayas/anaconda/envs/py35/share/psi4/basis/aug-cc-pvtz.gbs 
    atoms 12    entry N          line   267 file /cbio/jclab/home/chayas/anaconda/envs/py35/share/psi4/basis/aug-cc-pvtz.gbs 
    atoms 13    entry O          line   313 file /cbio/jclab/home/chayas/anaconda/envs/py35/share/psi4/basis/aug-cc-pvtz.gbs 
    atoms 14-23 entry H          line    34 file /cbio/jclab/home/chayas/anaconda/envs/py35/share/psi4/basis/aug-cc-pvtz.gbs 


         ---------------------------------------------------------
                                   SCF
            by Justin Turney, Rob Parrish, and Andy Simmonett
                              RHF Reference
                        8 Threads,   4768 MiB Core
         ---------------------------------------------------------

  ==> Geometry <==

    Molecular point group: c1
    Full point group: C1

    Geometry (in Angstrom), charge = 1, multiplicity = 1:

       Center              X                  Y                   Z               Mass       
    ------------   -----------------  -----------------  -----------------  -----------------
           C         -1.271974211615     0.719840998760    -0.579292992181    12.000000000000
           C         -0.278974211615     0.103840998760     1.534707007819    12.000000000000
           C         -2.349974211615     1.292840998760     0.093707007819    12.000000000000
           C         -1.356974211615     0.676840998760     2.208707007819    12.000000000000
           C          2.141025788385    -0.494159001240     0.036707007819    12.000000000000
           C          0.703025788385    -1.017159001240    -1.824292992181    12.000000000000
           C          3.196025788385    -1.071159001240    -0.656292992181    12.000000000000
           C          1.794025788385    -1.580159001240    -2.470292992181    12.000000000000
           C         -0.235974211615     0.124840998760     0.140707007819    12.000000000000
           C          0.883025788385    -0.469159001240    -0.557292992181    12.000000000000
           C         -2.392974211615     1.271840998760     1.487707007819    12.000000000000
           N          2.995025788385    -1.590159001240    -1.875292992181    14.003074004780
           O         -3.444974211615     1.831840998760     2.144707007819    15.994914619560
           H         -1.252974211615     0.743840998760    -1.666292992181     1.007825032070
           H          0.521025788385    -0.356159001240     2.110707007819     1.007825032070
           H         -3.153974211615     1.754840998760    -0.473292992181     1.007825032070
           H         -1.384974211615     0.657840998760     3.294707007819     1.007825032070
           H          2.310025788385    -0.075159001240     1.023707007819     1.007825032070
           H         -0.267974211615    -1.011159001240    -2.312292992181     1.007825032070
           H          4.205025788385    -1.135159001240    -0.273292992181     1.007825032070
           H          1.747025788385    -2.027159001240    -3.453292992181     1.007825032070
           H          3.783025788385    -2.008159001240    -2.368292992181     1.007825032070
           H         -3.331974211615     1.737840998760     3.103707007819     1.007825032070

  Running in c1 symmetry.

  Rotational constants: A =      0.09609  B =      0.01336  C =      0.01192 [cm^-1]
  Rotational constants: A =   2880.75800  B =    400.39673  C =    357.37209 [MHz]
  Nuclear repulsion =  713.208221899583236

  Charge       = 1
  Multiplicity = 1
  Electrons    = 90
  Nalpha       = 45
  Nbeta        = 45

  ==> Algorithm <==

  SCF Algorithm Type is DF.
  DIIS enabled.
  MOM disabled.
  Fractional occupation disabled.
  Guess Type is SAD.
  Energy threshold   = 1.00e-10
  Density threshold  = 1.00e-10
  Integral threshold = 0.00e+00

  ==> Primary Basis <==

  Basis Set: AUG-CC-PVTZ
    Blend: AUG-CC-PVTZ
    Number of shells: 272
    Number of basis function: 828
    Number of Cartesian functions: 965
    Spherical Harmonics?: true
    Max angular momentum: 3

   => Loading Basis Set <=

    Name: (AUG-CC-PVTZ AUX)
    Role: JKFIT
    Keyword: DF_BASIS_SCF
    atoms 1-11  entry C          line   161 file /cbio/jclab/home/chayas/anaconda/envs/py35/share/psi4/basis/aug-cc-pvtz-jkfit.gbs 
    atoms 12    entry N          line   223 file /cbio/jclab/home/chayas/anaconda/envs/py35/share/psi4/basis/aug-cc-pvtz-jkfit.gbs 
    atoms 13    entry O          line   285 file /cbio/jclab/home/chayas/anaconda/envs/py35/share/psi4/basis/aug-cc-pvtz-jkfit.gbs 
    atoms 14-23 entry H          line    69 file /cbio/jclab/home/chayas/anaconda/envs/py35/share/psi4/basis/aug-cc-pvtz-jkfit.gbs 

  ==> Pre-Iterations <==

   -------------------------------------------------------
    Irrep   Nso     Nmo     Nalpha   Nbeta   Ndocc  Nsocc
   -------------------------------------------------------
     A        828     828       0       0       0       0
   -------------------------------------------------------
    Total     828     828      45      45      45       0
   -------------------------------------------------------

  ==> Integral Setup <==

  ==> DFJK: Density-Fitted J/K Matrices <==

    J tasked:                  Yes
    K tasked:                  Yes
    wK tasked:                  No
    OpenMP threads:              8
    Integrals threads:           8
    Memory (MB):              3576
    Algorithm:                Disk
    Integral Cache:           NONE
    Schwarz Cutoff:          1E-12
    Fitting Condition:       1E-12

   => Auxiliary Basis Set <=

  Basis Set: (AUG-CC-PVTZ AUX)
    Blend: AUG-CC-PVTZ-JKFIT
    Number of shells: 530
    Number of basis function: 1812
    Number of Cartesian functions: 2253
    Spherical Harmonics?: true
    Max angular momentum: 4

  Minimum eigenvalue in the overlap matrix is 5.3103839503E-07.
  Using Symmetric Orthogonalization.

  SCF Guess: Superposition of Atomic Densities via on-the-fly atomic UHF.

  ==> Iterations <==

                           Total Energy        Delta E     RMS |[F,P]|

   @DF-RHF iter   0:  -557.30719638533583   -5.57307e+02   1.99529e-02 
   @DF-RHF iter   1:  -551.42835586358194    5.87884e+00   1.82167e-03 
   @DF-RHF iter   2:  -551.64072718603165   -2.12371e-01   6.20388e-04 DIIS
   @DF-RHF iter   3:  -551.66750883965142   -2.67817e-02   3.34819e-04 DIIS
   @DF-RHF iter   4:  -551.67488416015942   -7.37532e-03   8.86810e-05 DIIS
   @DF-RHF iter   5:  -551.67585274630130   -9.68586e-04   4.82164e-05 DIIS
   @DF-RHF iter   6:  -551.67608166857838   -2.28922e-04   1.29358e-05 DIIS
   @DF-RHF iter   7:  -551.67610915243279   -2.74839e-05   5.66886e-06 DIIS
   @DF-RHF iter   8:  -551.67611304473701   -3.89230e-06   1.87583e-06 DIIS
   @DF-RHF iter   9:  -551.67611400380702   -9.59070e-07   1.08855e-06 DIIS
   @DF-RHF iter  10:  -551.67611435203855   -3.48232e-07   4.51510e-07 DIIS
   @DF-RHF iter  11:  -551.67611441270105   -6.06625e-08   1.61453e-07 DIIS
   @DF-RHF iter  12:  -551.67611441928818   -6.58713e-09   4.04037e-08 DIIS
   @DF-RHF iter  13:  -551.67611442003590   -7.47718e-10   2.46891e-08 DIIS
   @DF-RHF iter  14:  -551.67611442019302   -1.57115e-10   1.14642e-08 DIIS
   @DF-RHF iter  15:  -551.67611442020723   -1.42109e-11   5.00941e-09 DIIS
   @DF-RHF iter  16:  -551.67611442021553   -8.29914e-12   1.99442e-09 DIIS
   @DF-RHF iter  17:  -551.67611442020313    1.23919e-11   7.29024e-10 DIIS
   @DF-RHF iter  18:  -551.67611442022076   -1.76215e-11   2.85580e-10 DIIS
   @DF-RHF iter  19:  -551.67611442020507    1.56888e-11   1.55541e-10 DIIS
   @DF-RHF iter  20:  -551.67611442020461    4.54747e-13   5.08210e-11 DIIS

  ==> Post-Iterations <==

    Orbital Energies (a.u.)
    -----------------------

    Doubly Occupied:                                                      

       1A    -20.703665     2A    -15.832383     3A    -11.483609  
       4A    -11.483280     5A    -11.445563     6A    -11.434650  
       7A    -11.413837     8A    -11.413766     9A    -11.380581  
      10A    -11.378824    11A    -11.371487    12A    -11.357935  
      13A    -11.354308    14A     -1.518513    15A     -1.510268  
      16A     -1.320661    17A     -1.264094    18A     -1.236470  
      19A     -1.154873    20A     -1.151704    21A     -1.067764  
      22A     -1.054176    23A     -0.976527    24A     -0.961509  
      25A     -0.950212    26A     -0.870592    27A     -0.859158  
      28A     -0.853939    29A     -0.821782    30A     -0.798171  
      31A     -0.781324    32A     -0.772817    33A     -0.757141  
      34A     -0.732592    35A     -0.720239    36A     -0.706270  
      37A     -0.704635    38A     -0.684018    39A     -0.654310  
      40A     -0.637260    41A     -0.620338    42A     -0.570345  
      43A     -0.537052    44A     -0.470299    45A     -0.437542  

    Virtual:                                                              

      46A     -0.104902    47A     -0.084327    48A     -0.063338  
      49A     -0.062810    50A     -0.059373    51A     -0.049151  
      52A     -0.043699    53A     -0.039410    54A     -0.034695  
      55A     -0.028404    56A     -0.025770    57A     -0.023733  
      58A     -0.016938    59A     -0.010406    60A     -0.006337  
      61A     -0.001386    62A      0.003571    63A      0.005938  
      64A      0.009149    65A      0.015287    66A      0.017510  
      67A      0.021523    68A      0.023932    69A      0.024779  
      70A      0.028533    71A      0.031974    72A      0.036749  
      73A      0.038548    74A      0.039986    75A      0.044970  
      76A      0.049289    77A      0.055213    78A      0.058097  
      79A      0.060378    80A      0.066933    81A      0.068362  
      82A      0.072711    83A      0.074443    84A      0.078160  
      85A      0.083895    86A      0.086244    87A      0.088288  
      88A      0.095360    89A      0.098325    90A      0.108323  
      91A      0.110565    92A      0.114694    93A      0.121044  
      94A      0.122974    95A      0.124793    96A      0.128330  
      97A      0.131954    98A      0.136996    99A      0.139864  
     100A      0.144679   101A      0.152609   102A      0.158138  
     103A      0.161781   104A      0.163596   105A      0.166991  
     106A      0.168093   107A      0.171090   108A      0.173681  
     109A      0.178035   110A      0.181578   111A      0.188014  
     112A      0.190439   113A      0.192377   114A      0.197231  
     115A      0.204464   116A      0.206213   117A      0.209970  
     118A      0.213142   119A      0.217994   120A      0.219578  
     121A      0.224170   122A      0.228179   123A      0.231289  
     124A      0.232979   125A      0.234160   126A      0.239577  
     127A      0.240721   128A      0.249923   129A      0.251617  
     130A      0.257894   131A      0.258738   132A      0.274107  
     133A      0.277941   134A      0.279384   135A      0.280260  
     136A      0.287288   137A      0.287405   138A      0.293082  
     139A      0.300184   140A      0.309261   141A      0.311696  
     142A      0.312221   143A      0.315967   144A      0.317882  
     145A      0.322698   146A      0.324437   147A      0.330680  
     148A      0.333966   149A      0.336458   150A      0.339579  
     151A      0.341068   152A      0.344200   153A      0.348918  
     154A      0.350823   155A      0.355332   156A      0.360803  
     157A      0.365511   158A      0.368354   159A      0.371297  
     160A      0.374187   161A      0.375609   162A      0.378734  
     163A      0.383749   164A      0.387472   165A      0.389535  
     166A      0.394360   167A      0.398785   168A      0.401072  
     169A      0.403817   170A      0.407693   171A      0.410887  
     172A      0.414495   173A      0.417181   174A      0.420216  
     175A      0.424743   176A      0.428381   177A      0.430815  
     178A      0.437221   179A      0.439281   180A      0.443190  
     181A      0.449263   182A      0.453547   183A      0.458459  
     184A      0.464184   185A      0.471663   186A      0.474940  
     187A      0.482614   188A      0.488314   189A      0.494848  
     190A      0.500840   191A      0.506802   192A      0.510495  
     193A      0.518402   194A      0.528485   195A      0.530075  
     196A      0.538272   197A      0.543075   198A      0.549765  
     199A      0.551240   200A      0.563475   201A      0.570890  
     202A      0.574408   203A      0.576940   204A      0.580960  
     205A      0.584667   206A      0.586963   207A      0.595702  
     208A      0.601132   209A      0.607534   210A      0.612421  
     211A      0.619938   212A      0.622141   213A      0.627210  
     214A      0.632589   215A      0.637494   216A      0.642798  
     217A      0.645147   218A      0.649630   219A      0.655828  
     220A      0.667427   221A      0.676427   222A      0.681333  
     223A      0.693623   224A      0.699995   225A      0.701791  
     226A      0.704149   227A      0.708598   228A      0.711452  
     229A      0.716616   230A      0.718689   231A      0.725292  
     232A      0.731041   233A      0.734723   234A      0.737718  
     235A      0.741040   236A      0.744711   237A      0.757402  
     238A      0.758524   239A      0.762891   240A      0.769115  
     241A      0.775164   242A      0.778134   243A      0.779981  
     244A      0.785101   245A      0.789061   246A      0.794651  
     247A      0.796243   248A      0.804001   249A      0.806361  
     250A      0.811250   251A      0.814591   252A      0.817912  
     253A      0.827474   254A      0.829083   255A      0.837000  
     256A      0.845271   257A      0.849135   258A      0.856544  
     259A      0.858441   260A      0.861972   261A      0.867721  
     262A      0.869262   263A      0.873456   264A      0.878432  
     265A      0.879867   266A      0.881999   267A      0.884943  
     268A      0.891896   269A      0.898113   270A      0.904447  
     271A      0.907422   272A      0.919189   273A      0.923252  
     274A      0.926503   275A      0.928819   276A      0.935075  
     277A      0.938239   278A      0.941948   279A      0.947088  
     280A      0.954971   281A      0.956219   282A      0.959150  
     283A      0.965367   284A      0.967944   285A      0.970521  
     286A      0.975300   287A      0.978630   288A      0.985248  
     289A      0.987664   290A      0.990819   291A      0.995232  
     292A      1.000121   293A      1.006406   294A      1.009879  
     295A      1.016152   296A      1.018387   297A      1.021385  
     298A      1.029209   299A      1.031912   300A      1.036175  
     301A      1.042861   302A      1.050335   303A      1.056191  
     304A      1.062576   305A      1.063554   306A      1.068838  
     307A      1.070944   308A      1.073872   309A      1.081172  
     310A      1.085807   311A      1.089509   312A      1.098306  
     313A      1.099635   314A      1.104235   315A      1.106419  
     316A      1.112852   317A      1.124246   318A      1.126498  
     319A      1.131922   320A      1.139893   321A      1.142207  
     322A      1.151686   323A      1.156138   324A      1.162041  
     325A      1.162437   326A      1.164165   327A      1.175024  
     328A      1.180055   329A      1.183210   330A      1.200834  
     331A      1.204857   332A      1.222928   333A      1.224640  
     334A      1.229966   335A      1.234429   336A      1.237941  
     337A      1.245494   338A      1.256946   339A      1.260361  
     340A      1.269768   341A      1.274866   342A      1.282878  
     343A      1.286944   344A      1.298052   345A      1.303100  
     346A      1.309709   347A      1.318014   348A      1.323726  
     349A      1.324851   350A      1.332244   351A      1.342827  
     352A      1.348523   353A      1.358767   354A      1.363074  
     355A      1.367260   356A      1.376229   357A      1.385009  
     358A      1.391220   359A      1.394172   360A      1.400687  
     361A      1.405524   362A      1.412201   363A      1.421279  
     364A      1.424836   365A      1.428840   366A      1.442387  
     367A      1.448111   368A      1.455671   369A      1.460811  
     370A      1.473787   371A      1.477312   372A      1.483166  
     373A      1.492462   374A      1.500154   375A      1.513952  
     376A      1.530433   377A      1.534493   378A      1.535944  
     379A      1.543171   380A      1.548563   381A      1.555692  
     382A      1.563476   383A      1.565692   384A      1.576255  
     385A      1.585105   386A      1.591578   387A      1.603788  
     388A      1.609031   389A      1.629865   390A      1.634215  
     391A      1.641897   392A      1.652559   393A      1.655222  
     394A      1.663385   395A      1.671737   396A      1.676965  
     397A      1.691106   398A      1.696245   399A      1.700833  
     400A      1.705476   401A      1.708465   402A      1.715826  
     403A      1.724501   404A      1.733320   405A      1.734623  
     406A      1.750058   407A      1.755827   408A      1.758138  
     409A      1.764496   410A      1.781189   411A      1.787322  
     412A      1.797390   413A      1.808584   414A      1.814159  
     415A      1.822324   416A      1.823677   417A      1.831353  
     418A      1.841556   419A      1.852864   420A      1.858624  
     421A      1.860628   422A      1.871916   423A      1.880409  
     424A      1.884358   425A      1.897871   426A      1.903939  
     427A      1.908831   428A      1.915398   429A      1.918944  
     430A      1.922437   431A      1.929946   432A      1.944337  
     433A      1.946975   434A      1.948411   435A      1.951377  
     436A      1.958273   437A      1.968674   438A      1.985933  
     439A      1.991053   440A      1.997267   441A      2.000573  
     442A      2.012748   443A      2.017009   444A      2.031029  
     445A      2.035553   446A      2.043797   447A      2.055969  
     448A      2.062179   449A      2.074085   450A      2.077063  
     451A      2.082971   452A      2.092039   453A      2.100324  
     454A      2.112521   455A      2.120374   456A      2.142089  
     457A      2.154993   458A      2.166407   459A      2.190525  
     460A      2.199781   461A      2.203411   462A      2.208292  
     463A      2.215276   464A      2.216820   465A      2.230847  
     466A      2.237457   467A      2.245399   468A      2.255319  
     469A      2.262051   470A      2.279674   471A      2.287024  
     472A      2.292259   473A      2.296885   474A      2.308077  
     475A      2.321889   476A      2.335465   477A      2.346556  
     478A      2.355028   479A      2.368084   480A      2.378926  
     481A      2.393242   482A      2.402443   483A      2.406542  
     484A      2.414855   485A      2.423098   486A      2.427066  
     487A      2.437651   488A      2.445928   489A      2.451910  
     490A      2.474203   491A      2.491383   492A      2.498028  
     493A      2.516233   494A      2.524218   495A      2.545850  
     496A      2.558346   497A      2.565758   498A      2.572677  
     499A      2.595442   500A      2.600683   501A      2.627562  
     502A      2.639498   503A      2.658397   504A      2.675574  
     505A      2.693326   506A      2.714291   507A      2.722736  
     508A      2.737437   509A      2.760406   510A      2.775080  
     511A      2.776760   512A      2.784922   513A      2.822400  
     514A      2.837323   515A      2.851043   516A      2.881341  
     517A      2.891373   518A      2.947801   519A      2.952629  
     520A      2.968708   521A      2.977995   522A      2.996867  
     523A      3.001696   524A      3.013519   525A      3.037163  
     526A      3.066126   527A      3.070422   528A      3.084724  
     529A      3.094299   530A      3.117128   531A      3.140462  
     532A      3.161441   533A      3.164495   534A      3.172665  
     535A      3.183924   536A      3.193932   537A      3.208489  
     538A      3.214666   539A      3.229270   540A      3.237019  
     541A      3.244645   542A      3.257229   543A      3.260063  
     544A      3.271883   545A      3.276032   546A      3.286690  
     547A      3.299104   548A      3.310508   549A      3.326772  
     550A      3.336276   551A      3.352399   552A      3.356461  
     553A      3.372260   554A      3.383464   555A      3.385526  
     556A      3.395486   557A      3.397643   558A      3.404603  
     559A      3.412174   560A      3.415594   561A      3.418601  
     562A      3.432743   563A      3.442164   564A      3.449440  
     565A      3.462910   566A      3.469615   567A      3.473003  
     568A      3.487983   569A      3.505290   570A      3.511010  
     571A      3.515780   572A      3.538448   573A      3.548771  
     574A      3.550984   575A      3.564747   576A      3.570765  
     577A      3.573401   578A      3.597126   579A      3.602549  
     580A      3.615678   581A      3.626266   582A      3.627208  
     583A      3.634004   584A      3.651249   585A      3.658439  
     586A      3.661486   587A      3.665723   588A      3.690512  
     589A      3.700121   590A      3.709453   591A      3.714071  
     592A      3.721225   593A      3.735863   594A      3.741259  
     595A      3.756026   596A      3.759309   597A      3.765610  
     598A      3.771788   599A      3.781923   600A      3.787286  
     601A      3.794852   602A      3.796951   603A      3.814302  
     604A      3.824355   605A      3.837731   606A      3.844011  
     607A      3.852123   608A      3.862358   609A      3.870395  
     610A      3.876471   611A      3.877813   612A      3.881408  
     613A      3.887277   614A      3.894801   615A      3.905809  
     616A      3.917399   617A      3.943998   618A      3.945187  
     619A      3.957402   620A      3.961936   621A      3.981786  
     622A      3.987684   623A      3.990705   624A      4.006357  
     625A      4.018226   626A      4.026493   627A      4.030960  
     628A      4.043611   629A      4.055928   630A      4.061540  
     631A      4.063571   632A      4.079585   633A      4.081952  
     634A      4.089559   635A      4.100872   636A      4.110278  
     637A      4.112727   638A      4.112923   639A      4.134858  
     640A      4.142032   641A      4.153462   642A      4.162288  
     643A      4.176361   644A      4.182211   645A      4.190078  
     646A      4.201270   647A      4.211736   648A      4.216434  
     649A      4.221546   650A      4.225069   651A      4.234991  
     652A      4.246837   653A      4.249585   654A      4.264767  
     655A      4.275966   656A      4.278615   657A      4.285373  
     658A      4.294468   659A      4.299810   660A      4.304374  
     661A      4.311871   662A      4.323313   663A      4.332369  
     664A      4.342976   665A      4.345454   666A      4.365174  
     667A      4.369633   668A      4.372699   669A      4.382662  
     670A      4.398703   671A      4.402108   672A      4.410410  
     673A      4.416721   674A      4.430389   675A      4.449495  
     676A      4.455758   677A      4.463601   678A      4.492120  
     679A      4.501835   680A      4.507626   681A      4.542481  
     682A      4.555948   683A      4.560827   684A      4.575061  
     685A      4.581983   686A      4.602672   687A      4.611797  
     688A      4.613782   689A      4.648178   690A      4.653006  
     691A      4.661122   692A      4.665626   693A      4.672584  
     694A      4.684321   695A      4.718453   696A      4.727350  
     697A      4.743773   698A      4.752714   699A      4.760811  
     700A      4.765621   701A      4.775405   702A      4.801492  
     703A      4.815909   704A      4.826253   705A      4.830147  
     706A      4.834878   707A      4.853501   708A      4.877084  
     709A      4.885971   710A      4.896289   711A      4.902650  
     712A      4.916772   713A      4.938478   714A      4.944613  
     715A      4.953111   716A      4.962290   717A      4.973555  
     718A      4.978295   719A      4.993331   720A      5.002647  
     721A      5.006144   722A      5.015894   723A      5.019107  
     724A      5.042375   725A      5.048408   726A      5.054973  
     727A      5.081663   728A      5.099400   729A      5.117130  
     730A      5.140078   731A      5.146256   732A      5.167823  
     733A      5.178397   734A      5.185257   735A      5.198670  
     736A      5.209001   737A      5.212392   738A      5.226274  
     739A      5.261673   740A      5.272580   741A      5.284812  
     742A      5.302485   743A      5.307247   744A      5.310573  
     745A      5.338575   746A      5.358283   747A      5.383714  
     748A      5.390344   749A      5.415169   750A      5.429964  
     751A      5.442993   752A      5.453018   753A      5.510444  
     754A      5.526076   755A      5.554759   756A      5.562993  
     757A      5.578542   758A      5.588953   759A      5.607758  
     760A      5.616406   761A      5.630609   762A      5.663895  
     763A      5.696211   764A      5.700747   765A      5.723931  
     766A      5.735990   767A      5.780284   768A      5.808483  
     769A      5.843501   770A      5.863743   771A      5.940216  
     772A      5.954648   773A      5.990352   774A      5.996588  
     775A      6.029907   776A      6.047033   777A      6.091417  
     778A      6.126149   779A      6.191565   780A      6.215866  
     781A      6.258671   782A      6.291197   783A      6.309568  
     784A      6.350704   785A      6.373298   786A      6.397631  
     787A      6.417394   788A      6.484576   789A      6.491311  
     790A      6.549473   791A      6.578961   792A      6.640966  
     793A      6.672005   794A      6.752850   795A      6.792222  
     796A      6.794106   797A      6.803820   798A      6.831935  
     799A      6.845428   800A      6.902037   801A      6.949720  
     802A      6.972006   803A      6.985191   804A      7.112165  
     805A      7.160926   806A      7.321782   807A      7.333371  
     808A      7.468261   809A      7.546167   810A      7.584924  
     811A      7.611082   812A      7.654621   813A      7.911984  
     814A      8.289322   815A      8.539702   816A     16.021150  
     817A     16.282696   818A     16.610117   819A     16.668141  
     820A     16.974977   821A     18.796143   822A     19.118060  
     823A     19.385472   824A     19.763511   825A     19.966879  
     826A     20.012548   827A     20.541095   828A     21.790770  

    Final Occupation by Irrep:
              A 
    DOCC [    45 ]

  Energy converged.

  @DF-RHF Final Energy:  -551.67611442020461

   => Energetics <=

    Nuclear Repulsion Energy =            713.2082218995832363
    One-Electron Energy =               -2149.3477064585999869
    Two-Electron Energy =                 884.4633701388120244
    DFT Exchange-Correlation Energy =       0.0000000000000000
    Empirical Dispersion Energy =           0.0000000000000000
    PCM Polarization Energy =               0.0000000000000000
    EFP Energy =                            0.0000000000000000
    Total Energy =                       -551.6761144202046125



Properties will be evaluated at   0.000000,   0.000000,   0.000000 Bohr

Properties computed using the SCF density matrix

  Nuclear Dipole Moment: (a.u.)
     X:     2.9505      Y:    -1.5977      Z:    -0.9348

  Electronic Dipole Moment: (a.u.)
     X:     0.2902      Y:    -0.1451      Z:    -0.4871

  Dipole Moment: (a.u.)
     X:     3.2408      Y:    -1.7428      Z:    -1.4218     Total:     3.9448

  Dipole Moment: (Debye)
     X:     8.2372      Y:    -4.4297      Z:    -3.6140     Total:    10.0267


*** tstop() called on gpu-2-7.local at Sun Nov 12 07:27:37 2017
Module time:
	user time   =    1148.81 seconds =      19.15 minutes
	system time =      52.29 seconds =       0.87 minutes
	total time  =        487 seconds =       8.12 minutes
Total time:
	user time   =    1148.81 seconds =      19.15 minutes
	system time =      52.29 seconds =       0.87 minutes
	total time  =        487 seconds =       8.12 minutes

  //>>>>>>>>>>>>>>>>>>>>>>>>>>>>>>>>>>>//
  //               DFMP2               //
  //<<<<<<<<<<<<<<<<<<<<<<<<<<<<<<<<<<<//

   => Loading Basis Set <=

    Name: (AUG-CC-PVTZ AUX)
    Role: RIFIT
    Keyword: DF_BASIS_MP2
    atoms 1-11  entry C          line   147 file /cbio/jclab/home/chayas/anaconda/envs/py35/share/psi4/basis/aug-cc-pvtz-ri.gbs 
    atoms 12    entry N          line   205 file /cbio/jclab/home/chayas/anaconda/envs/py35/share/psi4/basis/aug-cc-pvtz-ri.gbs 
    atoms 13    entry O          line   263 file /cbio/jclab/home/chayas/anaconda/envs/py35/share/psi4/basis/aug-cc-pvtz-ri.gbs 
    atoms 14-23 entry H          line    29 file /cbio/jclab/home/chayas/anaconda/envs/py35/share/psi4/basis/aug-cc-pvtz-ri.gbs 

	 --------------------------------------------------------
	                          DF-MP2                         
	      2nd-Order Density-Fitted Moller-Plesset Theory     
	              RMP2 Wavefunction,   8 Threads             
	                                                         
	        Rob Parrish, Justin Turney, Andy Simmonett,      
	           Ed Hohenstein, and C. David Sherrill          
	 --------------------------------------------------------

   => Auxiliary Basis Set <=

  Basis Set: (AUG-CC-PVTZ AUX)
    Blend: AUG-CC-PVTZ-RI
    Number of shells: 504
    Number of basis function: 1838
    Number of Cartesian functions: 2318
    Spherical Harmonics?: true
    Max angular momentum: 4

	 --------------------------------------------------------
	                 NBF =   828, NAUX =  1838
	 --------------------------------------------------------
	   CLASS    FOCC     OCC    AOCC    AVIR     VIR    FVIR
	   PAIRS       0      45      45     783     783       0
	 --------------------------------------------------------


         ------------------------------------------------------------
                                     CPHF                           
                                  Rob Parrish                       
         ------------------------------------------------------------

  ==> Geometry <==

    Molecular point group: c1
    Full point group: C1

    Geometry (in Angstrom), charge = 1, multiplicity = 1:

       Center              X                  Y                   Z               Mass       
    ------------   -----------------  -----------------  -----------------  -----------------
           C         -1.271974211615     0.719840998760    -0.579292992181    12.000000000000
           C         -0.278974211615     0.103840998760     1.534707007819    12.000000000000
           C         -2.349974211615     1.292840998760     0.093707007819    12.000000000000
           C         -1.356974211615     0.676840998760     2.208707007819    12.000000000000
           C          2.141025788385    -0.494159001240     0.036707007819    12.000000000000
           C          0.703025788385    -1.017159001240    -1.824292992181    12.000000000000
           C          3.196025788385    -1.071159001240    -0.656292992181    12.000000000000
           C          1.794025788385    -1.580159001240    -2.470292992181    12.000000000000
           C         -0.235974211615     0.124840998760     0.140707007819    12.000000000000
           C          0.883025788385    -0.469159001240    -0.557292992181    12.000000000000
           C         -2.392974211615     1.271840998760     1.487707007819    12.000000000000
           N          2.995025788385    -1.590159001240    -1.875292992181    14.003074004780
           O         -3.444974211615     1.831840998760     2.144707007819    15.994914619560
           H         -1.252974211615     0.743840998760    -1.666292992181     1.007825032070
           H          0.521025788385    -0.356159001240     2.110707007819     1.007825032070
           H         -3.153974211615     1.754840998760    -0.473292992181     1.007825032070
           H         -1.384974211615     0.657840998760     3.294707007819     1.007825032070
           H          2.310025788385    -0.075159001240     1.023707007819     1.007825032070
           H         -0.267974211615    -1.011159001240    -2.312292992181     1.007825032070
           H          4.205025788385    -1.135159001240    -0.273292992181     1.007825032070
           H          1.747025788385    -2.027159001240    -3.453292992181     1.007825032070
           H          3.783025788385    -2.008159001240    -2.368292992181     1.007825032070
           H         -3.331974211615     1.737840998760     3.103707007819     1.007825032070

  Nuclear repulsion =  713.208221899583236
  Reference energy  = -551.676114420204613

  ==> Basis Set <==

  Basis Set: AUG-CC-PVTZ
    Blend: AUG-CC-PVTZ
    Number of shells: 272
    Number of basis function: 828
    Number of Cartesian functions: 965
    Spherical Harmonics?: true
    Max angular momentum: 3

  ==> CGRSolver (by Rob Parrish) <==

   Number of roots    =         1
   Preconditioning    =    JACOBI
   Convergence cutoff =     1E-06
   Maximum iterations =       100

  ==> CPHFRHamiltonian (by Rob Parrish) <== 

  ==> DFJK: Density-Fitted J/K Matrices <==

    J tasked:                  Yes
    K tasked:                  Yes
    wK tasked:                  No
    OpenMP threads:              8
    Integrals threads:           8
    Memory (MB):              3576
    Algorithm:                Disk
    Integral Cache:           NONE
    Schwarz Cutoff:          1E-12
    Fitting Condition:       1E-12

   => Auxiliary Basis Set <=

  Basis Set: (AUG-CC-PVTZ AUX)
    Blend: AUG-CC-PVTZ-JKFIT
    Number of shells: 530
    Number of basis function: 1812
    Number of Cartesian functions: 2253
    Spherical Harmonics?: true
    Max angular momentum: 4

  ==> CPHF Iterations <==

  => Iterations <=

             Iter  Converged  Remaining    Residual
  CGR           1          0          1   1.128E-01
  CGR           2          0          1   5.139E-02
  CGR           3          0          1   2.989E-02
  CGR           4          0          1   9.640E-03
  CGR           5          0          1   4.521E-03
  CGR           6          0          1   2.258E-03
  CGR           7          0          1   6.951E-04
  CGR           8          0          1   2.801E-04
  CGR           9          0          1   1.342E-04
  CGR          10          0          1   4.575E-05
  CGR          11          0          1   1.477E-05
  CGR          12          0          1   5.472E-06
  CGR          13          0          1   1.708E-06
  CGR          14          1          0   5.452E-07

    CGRSolver converged.

  ==> DFCorrGrad: Density-Fitted Correlated Gradients <==

    OpenMP threads:              8
    Integrals threads:           8
    Memory (MB):              3576
    Schwarz Cutoff:          0E+00
    Fitting Condition:       1E-12

   => Auxiliary Basis Set <=

  Basis Set: (AUG-CC-PVTZ AUX)
    Blend: AUG-CC-PVTZ-JKFIT
    Number of shells: 530
    Number of basis function: 1812
    Number of Cartesian functions: 2253
    Spherical Harmonics?: true
    Max angular momentum: 4

	-----------------------------------------------------------
	 ==================> DF-MP2 Energies <==================== 
	-----------------------------------------------------------
	 Reference Energy          =    -551.6761144202046125 [Eh]
	 Singles Energy            =      -0.0000000000000001 [Eh]
	 Same-Spin Energy          =      -0.5966544186374190 [Eh]
	 Opposite-Spin Energy      =      -1.8256188815131174 [Eh]
	 Correlation Energy        =      -2.4222733001505361 [Eh]
	 Total Energy              =    -554.0983877203551629 [Eh]
	-----------------------------------------------------------
	 ================> DF-SCS-MP2 Energies <================== 
	-----------------------------------------------------------
	 SCS Same-Spin Scale       =       0.3333333333333333 [-]
	 SCS Opposite-Spin Scale   =       1.2000000000000000 [-]
	 SCS Same-Spin Energy      =      -0.1988848062124730 [Eh]
	 SCS Opposite-Spin Energy  =      -2.1907426578157407 [Eh]
	 SCS Correlation Energy    =      -2.3896274640282136 [Eh]
	 SCS Total Energy          =    -554.0657418842328070 [Eh]
	-----------------------------------------------------------


  -Total Gradient:
     Atom            X                  Y                   Z
    ------   -----------------  -----------------  -----------------
       1        0.013359718905    -0.002392197711    -0.006583910588
       2        0.006889838744    -0.008428998119    -0.009721507494
       3       -0.000383011994    -0.000020295126     0.007936065851
       4       -0.011998542290     0.006616233648     0.006054361218
       5       -0.017483180538     0.011338846397     0.008678298324
       6       -0.015882171490     0.006715039588     0.012695175023
       7        0.000486597108    -0.005325927416    -0.013375685449
       8        0.013060473115    -0.002324883981     0.004549237800
       9       -0.003256320647     0.001728145682     0.001681422567
      10        0.014447714080    -0.007360476127    -0.008774203320
      11        0.003346845105    -0.001484337811    -0.015015668483
      12       -0.001214535695     0.000904862956     0.001037806063
      13       -0.005611379143     0.002809199440     0.009293902993
      14        0.000121409280    -0.002109399125    -0.006170999575
      15        0.005701451903    -0.000974095636     0.002866244570
      16       -0.003366653107     0.001388570262    -0.005106431818
      17        0.000553416584     0.000139010182     0.004442666760
      18       -0.000530910252     0.001208107713     0.006841027860
      19       -0.006664757360     0.002220055141    -0.003189765632
      20        0.002649170518    -0.001168502001    -0.000140942799
      21        0.001335392293    -0.000903389632    -0.002187600286
      22        0.004841511969    -0.002608690437    -0.003183598793
      23       -0.000402077101     0.000033122116     0.007374105214


*** tstop() called on gpu-2-7.local at Sun Nov 12 08:01:14 2017
Module time:
	user time   =    5334.45 seconds =      88.91 minutes
	system time =     111.30 seconds =       1.85 minutes
	total time  =       2504 seconds =      41.73 minutes
Total time:
	user time   =    5334.45 seconds =      88.91 minutes
	system time =     111.30 seconds =       1.85 minutes
	total time  =       2504 seconds =      41.73 minutes

			-----------------------------------------
			 OPTKING 2.0: for geometry optimizations 
			  - R.A. King,  Bethel University        
			-----------------------------------------

	Internal coordinates to be generated automatically.
	Detected frag 1 with atoms:  1 2 3 4 5 6 7 8 9 10 11 12 13 14 15 16 17 18 19 20
	 21 22 23
	---Fragment 1 Bond Connectivity---
	 1 : 3 9 14
	 2 : 4 9 15
	 3 : 1 11 16
	 4 : 2 11 17
	 5 : 7 10 18
	 6 : 8 10 19
	 7 : 5 12 20
	 8 : 6 12 21
	 9 : 1 2 10
	 10 : 5 6 9
	 11 : 3 4 13
	 12 : 7 8 22
	 13 : 11 23
	 14 : 1
	 15 : 2
	 16 : 3
	 17 : 4
	 18 : 5
	 19 : 6
	 20 : 7
	 21 : 8
	 22 : 12
	 23 : 13

	Assuming in current code that numbering for constraints corresponds to unified fragment.
	Fixed dihedral atom list: 
	     1     9    10     5
	---Fragment 1 Geometry and Gradient---
	 C          -2.4036829080        1.3603023469       -1.0947051059
	 C          -0.5271848581        0.1962310490        2.9001759390
	 C          -4.4408076793        2.4431154210        0.1770805815
	 C          -2.5643096293        1.2790441232        4.1738513526
	 C           4.0459523835       -0.9338251784        0.0693661919
	 C           1.3285262044       -1.9221519459       -3.4474141414
	 C           6.0396134537       -2.0241971571       -1.2402140182
	 C           3.3902174154       -2.9860677588       -4.6681772232
	 C          -0.4459266344        0.2359152978        0.2658977098
	 C           1.6686769083       -0.8865820251       -1.0531311310
	 C          -4.5220659030        2.4034311722        2.8113588108
	 N           5.6597785010       -3.0049650201       -3.5437901741
	 O          -6.5100577948        3.4616778066        4.0529088801
	 H          -2.3677781115        1.4056557741       -3.1488374124
	 H           0.9845960482       -0.6730429721        3.9886581915
	 H          -5.9601474901        3.3161688944       -0.8943941358
	 H          -2.6172219611        1.2431393266        6.2260939329
	 H           4.3653161000       -0.1420299288        1.9345258851
	 H          -0.5063978706       -1.9108135891       -4.3696004942
	 H           7.9463471218       -2.1451396296       -0.5164489093
	 H           3.3014002871       -3.8307753402       -6.5257780118
	 H           7.1488826937       -3.7948705436       -4.4754251577
	 H          -6.2965187418        3.2840435502        5.8651562415
	             0.0133597189       -0.0023921977       -0.0065839106
	             0.0068898387       -0.0084289981       -0.0097215075
	            -0.0003830120       -0.0000202951        0.0079360659
	            -0.0119985423        0.0066162336        0.0060543612
	            -0.0174831805        0.0113388464        0.0086782983
	            -0.0158821715        0.0067150396        0.0126951750
	             0.0004865971       -0.0053259274       -0.0133756854
	             0.0130604731       -0.0023248840        0.0045492378
	            -0.0032563206        0.0017281457        0.0016814226
	             0.0144477141       -0.0073604761       -0.0087742033
	             0.0033468451       -0.0014843378       -0.0150156685
	            -0.0012145357        0.0009048630        0.0010378061
	            -0.0056113791        0.0028091994        0.0092939030
	             0.0001214093       -0.0021093991       -0.0061709996
	             0.0057014519       -0.0009740956        0.0028662446
	            -0.0033666531        0.0013885703       -0.0051064318
	             0.0005534166        0.0001390102        0.0044426668
	            -0.0005309103        0.0012081077        0.0068410279
	            -0.0066647574        0.0022200551       -0.0031897656
	             0.0026491705       -0.0011685020       -0.0001409428
	             0.0013353923       -0.0009033896       -0.0021876003
	             0.0048415120       -0.0026086904       -0.0031835988
	            -0.0004020771        0.0000331221        0.0073741052

	Previous optimization step data not found.  Starting new optimization.

	---Fragment 1 Intrafragment Coordinates---
	 - Coordinate -           - BOHR/RAD -       - ANG/DEG -
	 R(1,3)           =         2.634350	       1.394038
	 R(1,9)           =         2.635962	       1.394891
	 R(1,14)          =         2.054947	       1.087431
	 R(2,4)           =         2.635263	       1.394521
	 R(2,9)           =         2.635830	       1.394821
	 R(2,15)          =         2.055702	       1.087831
	 R(3,11)          =         2.635830	       1.394821
	 R(3,16)          =         2.053941	       1.086899
	 R(4,11)          =         2.636938	       1.395407
	 R(4,17)          =         2.053239	       1.086527
	 R(5,7)           =         2.622708	       1.387877
	 R(5,10)          =         2.629386	       1.391411
	 R(5,18)          =         2.051281	       1.085491
	 R(6,8)           =         2.621593	       1.387287
	 R(6,10)          =         2.630722	       1.392118
	 R(6,19)          =         2.053656	       1.086748
	 R(7,12)          =         2.532320	       1.340046
	 R(7,20)          =         2.043061	       1.081141
	 R(8,12)          =         2.532886	       1.340345
	 R(8,21)          =         2.042572	       1.080883
	 R(9,10)          =         2.733384	       1.446444
	 R(11,13)         =         2.571662	       1.360865
	 R(12,22)         =         1.925961	       1.019175
	 R(13,23)         =         1.833410	       0.970199
	 B(1,3,11)        =         2.094553	     120.009056
	 B(1,3,16)        =         2.088505	     119.662516
	 B(1,9,2)         =         2.093692	     119.959722
	 B(1,9,10)        =         2.095161	     120.043881
	 B(2,4,11)        =         2.093699	     119.960108
	 B(2,4,17)        =         2.089577	     119.723926
	 B(2,9,10)        =         2.094332	     119.996376
	 B(3,1,9)         =         2.094940	     120.031219
	 B(3,1,14)        =         2.079469	     119.144799
	 B(3,11,4)        =         2.094306	     119.994870
	 B(3,11,13)       =         2.094549	     120.008801
	 B(4,2,9)         =         2.095181	     120.045019
	 B(4,2,15)        =         2.078675	     119.099297
	 B(4,11,13)       =         2.094331	     119.996326
	 B(5,7,12)        =         2.095802	     120.080622
	 B(5,7,20)        =         2.161750	     123.859180
	 B(5,10,6)        =         2.092509	     119.891910
	 B(5,10,9)        =         2.095337	     120.053948
	 B(6,8,12)        =         2.095531	     120.065093
	 B(6,8,21)        =         2.161713	     123.857025
	 B(6,10,9)        =         2.095340	     120.054139
	 B(7,5,10)        =         2.073247	     118.788311
	 B(7,5,18)        =         2.089951	     119.745391
	 B(7,12,8)        =         2.135693	     122.366169
	 B(7,12,22)       =         2.074764	     118.875205
	 B(8,6,10)        =         2.073587	     118.807808
	 B(8,6,19)        =         2.089558	     119.722836
	 B(8,12,22)       =         2.072729	     118.758618
	 B(9,1,14)        =         2.108776	     120.823969
	 B(9,2,15)        =         2.109330	     120.855683
	 B(10,5,18)       =         2.119986	     121.466270
	 B(10,6,19)       =         2.120040	     121.469339
	 B(11,3,16)       =         2.100127	     120.328425
	 B(11,4,17)       =         2.099910	     120.315955
	 B(11,13,23)      =         1.925489	     110.322421
	 B(12,7,20)       =         2.025632	     116.060175
	 B(12,8,21)       =         2.025941	     116.077872
	 D(1,3,11,4)      =        -0.000325	      -0.018609
	 D(1,3,11,13)     =         3.140978	     179.964785
	 D(1,9,2,4)       =         0.000325	       0.018608
	 D(1,9,2,15)      =        -3.141497	    -179.994534
	 D(1,9,10,5)      =         2.617724	     149.984550
	 D(1,9,10,6)      =        -0.524233	     -30.036345
	 D(2,4,11,3)      =         0.000301	       0.017261
	 D(2,4,11,13)     =        -3.141002	    -179.966135
	 D(2,9,1,3)       =        -0.000348	      -0.019945
	 D(2,9,1,14)      =        -3.141221	    -179.978731
	 D(2,9,10,5)      =        -0.522952	     -29.962947
	 D(2,9,10,6)      =         2.618276	     150.016158
	 D(3,1,9,10)      =        -3.141025	    -179.967461
	 D(3,11,4,17)     =         3.141223	     179.978848
	 D(3,11,13,23)    =         3.140828	     179.956172
	 D(4,2,9,10)      =         3.141002	     179.966149
	 D(4,11,3,16)     =         3.141593	     180.000000
	 D(4,11,13,23)    =        -0.001055	      -0.060434
	 D(5,7,12,8)      =        -0.002047	      -0.117296
	 D(5,7,12,22)     =         3.140091	     179.913933
	 D(5,10,6,8)      =        -0.000381	      -0.021843
	 D(5,10,6,19)     =        -3.141137	    -179.973917
	 D(6,8,12,7)      =         0.001506	       0.086272
	 D(6,8,12,22)     =        -3.140631	    -179.944923
	 D(6,10,5,7)      =        -0.000140	      -0.008008
	 D(6,10,5,18)     =        -3.140654	    -179.946193
	 D(7,5,10,9)      =         3.141089	     179.971132
	 D(7,12,8,21)     =        -3.140679	    -179.947644
	 D(8,6,10,9)      =         3.141576	     179.999018
	 D(8,12,7,20)     =         3.140466	     179.935442
	 D(9,1,3,11)      =         0.000348	       0.019955
	 D(9,1,3,16)      =        -3.141571	    -179.998735
	 D(9,2,4,11)      =        -0.000301	      -0.017270
	 D(9,2,4,17)      =        -3.141228	    -179.979086
	 D(9,10,5,18)     =         0.000575	       0.032946
	 D(9,10,6,19)     =         0.000819	       0.046944
	 D(10,5,7,12)     =         0.001327	       0.076026
	 D(10,5,7,20)     =        -3.141261	    -179.981026
	 D(10,6,8,12)     =        -0.000265	      -0.015189
	 D(10,6,8,21)     =        -3.141218	    -179.978506
	 D(10,9,1,14)     =         0.001287	       0.073752
	 D(10,9,2,15)     =        -0.000820	      -0.046992
	 D(11,3,1,14)     =         3.141234	     179.979432
	 D(11,4,2,15)     =         3.141517	     179.995641
	 D(12,7,5,18)     =        -3.141326	    -179.984700
	 D(12,8,6,19)     =         3.140506	     179.937742
	 D(13,11,3,16)    =        -0.000286	      -0.016400
	 D(13,11,4,17)    =        -0.000079	      -0.004548
	 D(14,1,3,16)     =        -0.000685	      -0.039257
	 D(15,2,4,17)     =         0.000590	       0.033826
	 D(18,5,7,20)     =        -0.000729	      -0.041752
	 D(19,6,8,21)     =        -0.000446	      -0.025575
	 D(20,7,12,22)    =        -0.000582	      -0.033329
	 D(21,8,12,22)    =         0.000369	       0.021162

	Current energy   :      -554.0983877204

	Generating empirical Hessian (Schlegel '84) for each fragment.
	Adding user-defined constraint: Fragment 1; Coordinate 66:
		Value =     2.617724; Fixed value    =     2.617994
		Force =     0.000135; Force constant =     0.500000
	Removing off-diagonal coupling between coordinate 66 and others.
	Taking RFO optimization step.
	Going to follow RFO solution 1.
	Using RFO vector 1.

	Determining step-restricting scale parameter for RS-RFO.
	Maximum step size allowed    0.10000

	 Iter      |step|        alpha        rfo_root  
	------------------------------------------------
	    0     0.21302       1.00000           1
	    1     0.15954       4.50988           1
	    2     0.12807      12.40813           1
	    3     0.10881      24.43705           1
	    4     0.10118      32.10606           1
	    5     0.10003      33.46851           1
	    6     0.10000      33.49908           1
	------------------------------------------------
	Norm of target step-size    0.10000
	Projected energy change by RFO approximation:        -0.0045923635

	Back-transformation to cartesian coordinates...
	Could not converge backtransformation.
	Using first guess instead.

	--- Internal Coordinate Step in ANG or DEG, aJ/ANG or AJ/DEG ---
	 ---------------------------------------------------------------------------
	   Coordinate                Previous        Force       Change         New 
	   ----------                --------       ------       ------       ------
	    1 R(1,3)          =      1.394038    -0.102457    -0.010641     1.383397
	    2 R(1,9)          =      1.394891     0.022230     0.002486     1.397377
	    3 R(1,14)         =      1.087431    -0.050455    -0.006351     1.081080
	    4 R(2,4)          =      1.394521    -0.103019    -0.010612     1.383910
	    5 R(2,9)          =      1.394821     0.012466     0.001470     1.396291
	    6 R(2,15)         =      1.087831    -0.050441    -0.006383     1.081447
	    7 R(3,11)         =      1.394821    -0.056603    -0.006023     1.388798
	    8 R(3,16)         =      1.086899    -0.047327    -0.005953     1.080946
	    9 R(4,11)         =      1.395407    -0.007970    -0.000938     1.394470
	   10 R(4,17)         =      1.086527    -0.036447    -0.004607     1.081920
	   11 R(5,7)          =      1.387877    -0.115864    -0.011775     1.376102
	   12 R(5,10)         =      1.391411     0.066327     0.007075     1.398486
	   13 R(5,18)         =      1.085491    -0.054408    -0.006790     1.078701
	   14 R(6,8)          =      1.387287    -0.112604    -0.011379     1.375908
	   15 R(6,10)         =      1.392118     0.061851     0.006508     1.398626
	   16 R(6,19)         =      1.086748    -0.060962    -0.007689     1.079058
	   17 R(7,12)         =      1.340046     0.019923     0.001724     1.341770
	   18 R(7,20)         =      1.081141    -0.020528    -0.002557     1.078584
	   19 R(8,12)         =      1.340345     0.019308     0.001646     1.341992
	   20 R(8,21)         =      1.080883    -0.018990    -0.002332     1.078551
	   21 R(9,10)         =      1.446444     0.052425     0.006216     1.452661
	   22 R(11,13)        =      1.360865    -0.114232    -0.010084     1.350781
	   23 R(12,22)        =      1.019175    -0.052343    -0.005601     1.013574
	   24 R(13,23)        =      0.970199    -0.059640    -0.005314     0.964885
	   25 B(1,3,11)       =    120.009056    -0.000057    -0.164234   119.844822
	   26 B(1,3,16)       =    119.662516     0.000220     0.543371   120.205887
	   27 B(1,9,2)        =    119.959722    -0.000470    -0.836381   119.123340
	   28 B(1,9,10)       =    120.043881     0.000227     0.404181   120.448062
	   29 B(2,4,11)       =    119.960108     0.000062     0.101726   120.061834
	   30 B(2,4,17)       =    119.723926     0.000007     0.039006   119.762932
	   31 B(2,9,10)       =    119.996376     0.000243     0.432221   120.428597
	   32 B(3,1,9)        =    120.031219     0.000310     0.621889   120.653108
	   33 B(3,1,14)       =    119.144799    -0.000241    -0.520060   118.624739
	   34 B(3,11,4)       =    119.994870     0.000040     0.018775   120.013645
	   35 B(3,11,13)      =    120.008801    -0.001033    -1.905956   118.102845
	   36 B(4,2,9)        =    120.045019     0.000115     0.257779   120.302798
	   37 B(4,2,15)       =    119.099297    -0.000097    -0.226737   118.872561
	   38 B(4,11,13)      =    119.996326     0.000993     1.887184   121.883510
	   39 B(5,7,12)       =    120.080622    -0.000222    -0.481086   119.599536
	   40 B(5,7,20)       =    123.859180     0.000001    -0.023404   123.835776
	   41 B(5,10,6)       =    119.891910    -0.000838    -1.544240   118.347669
	   42 B(5,10,9)       =    120.053948     0.000440     0.810609   120.864557
	   43 B(6,8,12)       =    120.065093    -0.000217    -0.473384   119.591709
	   44 B(6,8,21)       =    123.857025     0.000001    -0.020269   123.836755
	   45 B(6,10,9)       =    120.054139     0.000398     0.733619   120.787759
	   46 B(7,5,10)       =    118.788311     0.000538     1.068681   119.856992
	   47 B(7,5,18)       =    119.745391    -0.000363    -0.766722   118.978669
	   48 B(7,12,8)       =    122.366169     0.000209     0.372365   122.738534
	   49 B(7,12,22)      =    118.875205    -0.000114    -0.207585   118.667620
	   50 B(8,6,10)       =    118.807808     0.000530     1.057664   119.865472
	   51 B(8,6,19)       =    119.722836    -0.000354    -0.746749   118.976087
	   52 B(8,12,22)      =    118.758618    -0.000095    -0.164778   118.593841
	   53 B(9,1,14)       =    120.823969    -0.000069    -0.103008   120.720961
	   54 B(9,2,15)       =    120.855683    -0.000018    -0.032726   120.822957
	   55 B(10,5,18)      =    121.466270    -0.000175    -0.302381   121.163889
	   56 B(10,6,19)      =    121.469339    -0.000176    -0.311334   121.158005
	   57 B(11,3,16)      =    120.328425    -0.000164    -0.379160   119.949265
	   58 B(11,4,17)      =    120.315955    -0.000068    -0.140720   120.175234
	   59 B(11,13,23)     =    110.322421    -0.000204    -0.493558   109.828862
	   60 B(12,7,20)      =    116.060175     0.000222     0.504231   116.564406
	   61 B(12,8,21)      =    116.077872     0.000216     0.493554   116.571426
	   62 D(1,3,11,4)     =     -0.018609     0.000005     0.094870     0.076261
	   63 D(1,3,11,13)    =    179.964785     0.000006     0.112941   180.077726
	   64 D(1,9,2,4)      =      0.018608     0.000005     0.094510     0.113117
	   65 D(1,9,2,15)     =   -179.994534    -0.000019    -0.369877  -180.364411
	   66 D(1,9,10,5)     =    149.984550    -0.000003    -0.025062   149.959488
	   67 D(1,9,10,6)     =    -30.036345    -0.000003    -0.049364   -30.085708
	   68 D(2,4,11,3)     =      0.017261     0.000005     0.105187     0.122448
	   69 D(2,4,11,13)    =   -179.966135     0.000005     0.087061  -179.879074
	   70 D(2,9,1,3)      =     -0.019945     0.000005     0.106661     0.086716
	   71 D(2,9,1,14)     =   -179.978731    -0.000018    -0.337125  -180.315856
	   72 D(2,9,10,5)     =    -29.962947    -0.000005    -0.071349   -30.034296
	   73 D(2,9,10,6)     =    150.016158    -0.000005    -0.095651   149.920507
	   74 D(3,1,9,10)     =   -179.967461     0.000003     0.060312  -179.907149
	   75 D(3,11,4,17)    =    179.978848     0.000008     0.145519   180.124367
	   76 D(3,11,13,23)   =    179.956172    -0.000001    -0.021608   179.934564
	   77 D(4,2,9,10)     =    179.966149     0.000007     0.140834   180.106983
	   78 D(4,11,3,16)    =    180.000000     0.000007     0.134706   180.134706
	   79 D(4,11,13,23)   =     -0.060434    -0.000000    -0.003507    -0.063942
	   80 D(5,7,12,8)     =     -0.117296     0.000000     0.005094    -0.112202
	   81 D(5,7,12,22)    =    179.913933    -0.000000     0.000126   179.914059
	   82 D(5,10,6,8)     =     -0.021843    -0.000001    -0.027426    -0.049268
	   83 D(5,10,6,19)    =   -179.973917    -0.000016    -0.318047  -180.291964
	   84 D(6,8,12,7)     =      0.086272    -0.000001    -0.021034     0.065238
	   85 D(6,8,12,22)    =   -179.944923    -0.000001    -0.016083  -179.961006
	   86 D(6,10,5,7)     =     -0.008008     0.000000     0.011100     0.003092
	   87 D(6,10,5,18)    =   -179.946193    -0.000016    -0.297226  -180.243419
	   88 D(7,5,10,9)     =    179.971132    -0.000000    -0.012157   179.958974
	   89 D(7,12,8,21)    =   -179.947644     0.000007     0.128306  -179.819338
	   90 D(8,6,10,9)     =    179.999018    -0.000000    -0.004204   179.994814
	   91 D(8,12,7,20)    =    179.935442     0.000007     0.138131   180.073573
	   92 D(9,1,3,11)     =      0.019955    -0.000010    -0.200967    -0.181012
	   93 D(9,1,3,16)     =   -179.998735    -0.000013    -0.240875  -180.239609
	   94 D(9,2,4,11)     =     -0.017270    -0.000011    -0.200005    -0.217275
	   95 D(9,2,4,17)     =   -179.979086    -0.000013    -0.240100  -180.219186
	   96 D(9,10,5,18)    =      0.032946    -0.000017    -0.320483    -0.287537
	   97 D(9,10,6,19)    =      0.046944    -0.000016    -0.294825    -0.247882
	   98 D(10,5,7,12)    =      0.076026     0.000000    -0.000443     0.075583
	   99 D(10,5,7,20)    =   -179.981026    -0.000007    -0.143434  -180.124460
	  100 D(10,6,8,12)    =     -0.015189     0.000001     0.032572     0.017384
	  101 D(10,6,8,21)    =   -179.978506    -0.000007    -0.128394  -180.106900
	  102 D(10,9,1,14)    =      0.073752    -0.000020    -0.383473    -0.309721
	  103 D(10,9,2,15)    =     -0.046992    -0.000017    -0.323552    -0.370545
	  104 D(11,3,1,14)    =    179.979432     0.000012     0.233821   180.213254
	  105 D(11,4,2,15)    =    179.995641     0.000013     0.255373   180.251015
	  106 D(12,7,5,18)    =   -179.984700     0.000016     0.301409  -179.683291
	  107 D(12,8,6,19)    =    179.937742     0.000017     0.317045   180.254787
	  108 D(13,11,3,16)   =     -0.016400     0.000008     0.152571     0.136172
	  109 D(13,11,4,17)   =     -0.004548     0.000007     0.127393     0.122845
	  110 D(14,1,3,16)    =     -0.039257     0.000010     0.193913     0.154656
	  111 D(15,2,4,17)    =      0.033826     0.000011     0.215278     0.249104
	  112 D(18,5,7,20)    =     -0.041752     0.000009     0.158418     0.116666
	  113 D(19,6,8,21)    =     -0.025575     0.000008     0.156079     0.130503
	  114 D(20,7,12,22)   =     -0.033329     0.000007     0.133163     0.099835
	  115 D(21,8,12,22)   =      0.021162     0.000007     0.133257     0.154419
	 ---------------------------------------------------------------------------
	Successfully symmetrized geometry.
	 Forces used to impose fixed constraints are not included.
	  Forces zeroed: 66 

  ==> Convergence Check <==

  Measures of convergence in internal coordinates in au.
  Criteria marked as inactive (o), active & met (*), and active & unmet ( ).
  --------------------------------------------------------------------------------------------- ~
   Step     Total Energy     Delta E     MAX Force     RMS Force      MAX Disp      RMS Disp    ~
  --------------------------------------------------------------------------------------------- ~
    Convergence Criteria    1.00e-06 *    3.00e-04 *             o    1.20e-03 *             o  ~
  --------------------------------------------------------------------------------------------- ~
      1    -554.09838772   -5.54e+02      1.41e-02      4.48e-03 o    3.33e-02      9.31e-03 o  ~
  ---------------------------------------------------------------------------------------------

	Writing optimization data to binary file.
	Structure for next step:
	Cartesian Geometry (in Angstrom)
	    C    -1.2816247621   0.7249576969  -0.5583184947
	    C    -0.2859873693   0.1080943987   1.5463637626
	    C    -2.3513112058   1.2949914105   0.1084800815
	    C    -1.3572897300   0.6742082724   2.2149682048
	    C     2.1583121607  -0.5031750433   0.0236778508
	    C     0.7179941701  -1.0238018714  -1.8266758646
	    C     3.2064160251  -1.0731791973  -0.6620558682
	    C     1.7939450265  -1.5828311001  -2.4770131565
	    C    -0.2370818118   0.1262995908   0.1510483792
	    C     0.8849991288  -0.4691747997  -0.5536272359
	    C    -2.3928769840   1.2707213452   1.4964441341
	    N     2.9967824028  -1.5910318038  -1.8819862491
	    O    -3.4544429230   1.8361794444   2.1112164428
	    H    -1.2676877478   0.7580984563  -1.6388001603
	    H     0.5045313841  -0.3529954366   2.1225622576
	    H    -3.1535594837   1.7595889249  -0.4473892501
	    H    -1.3879812647   0.6520477760   3.2962260482
	    H     2.3392077642  -0.0852652686   1.0015447397
	    H    -0.2454714028  -1.0263020553  -2.3125719705
	    H     4.2131135138  -1.1323152521  -0.2794236256
	    H     1.7375969334  -2.0289729499  -3.4573467262
	    H     3.7790420042  -2.0061948627  -2.3749785927
	    H    -3.3620326959   1.7513952961   3.0679164729
			--------------------------
			 OPTKING Finished Execution 
			--------------------------

    Structure for next step:
    Molecular point group: c1
    Full point group: C1

    Geometry (in Angstrom), charge = 1, multiplicity = 1:

    C           -1.282543207778     0.725357389307    -0.557995239782
    C           -0.286905814944     0.108494091054     1.546687017538
    C           -2.352229651456     1.295391102922     0.108803336395
    C           -1.358208175693     0.674607964825     2.215291459668
    C            2.157393714995    -0.502775350906     0.024001105713
    C            0.717075724429    -1.023402179074    -1.826352609655
    C            3.205497579433    -1.072779504929    -0.661732613291
    C            1.793026580834    -1.582431407722    -2.476689901624
    C           -0.238000257424     0.126699283175     0.151371634148
    C            0.884080683184    -0.468775107303    -0.553303981011
    C           -2.393795429639     1.271121037534     1.496767389042
    N            2.995863957097    -1.590632111460    -1.881662994193
    O           -3.455361368627     1.836579136741     2.111539697730
    H           -1.268606193429     0.758498148700    -1.638476905410
    H            0.503612938420    -0.352595744210     2.122885512450
    H           -3.154477929323     1.759988617307    -0.447065995229
    H           -1.388899710341     0.652447468394     3.296549303069
    H            2.338289318509    -0.084865576228     1.001867994559
    H           -0.246389848408    -1.025902362948    -2.312248715603
    H            4.212195068181    -1.131915559713    -0.279100370723
    H            1.736678487711    -2.028573257550    -3.457023471320
    H            3.778123558551    -2.005795170310    -2.374655337805
    H           -3.362951141544     1.751794988503     3.068239727838

gradient() will perform analytic gradient computation.

*** tstart() called on gpu-2-7.local
*** at Sun Nov 12 08:01:15 2017

    SCF Algorithm Type (re)set to DF.

*** tstart() called on gpu-2-7.local
*** at Sun Nov 12 08:01:15 2017

   => Loading Basis Set <=

    Name: AUG-CC-PVTZ
    Role: ORBITAL
    Keyword: BASIS
    atoms 1-11  entry C          line   221 file /cbio/jclab/home/chayas/anaconda/envs/py35/share/psi4/basis/aug-cc-pvtz.gbs 
    atoms 12    entry N          line   267 file /cbio/jclab/home/chayas/anaconda/envs/py35/share/psi4/basis/aug-cc-pvtz.gbs 
    atoms 13    entry O          line   313 file /cbio/jclab/home/chayas/anaconda/envs/py35/share/psi4/basis/aug-cc-pvtz.gbs 
    atoms 14-23 entry H          line    34 file /cbio/jclab/home/chayas/anaconda/envs/py35/share/psi4/basis/aug-cc-pvtz.gbs 


         ---------------------------------------------------------
                                   SCF
            by Justin Turney, Rob Parrish, and Andy Simmonett
                              RHF Reference
                        8 Threads,   4768 MiB Core
         ---------------------------------------------------------

  ==> Geometry <==

    Molecular point group: c1
    Full point group: C1

    Geometry (in Angstrom), charge = 1, multiplicity = 1:

       Center              X                  Y                   Z               Mass       
    ------------   -----------------  -----------------  -----------------  -----------------
           C         -1.282543207778     0.725357389307    -0.557995239782    12.000000000000
           C         -0.286905814944     0.108494091054     1.546687017538    12.000000000000
           C         -2.352229651456     1.295391102922     0.108803336395    12.000000000000
           C         -1.358208175693     0.674607964825     2.215291459668    12.000000000000
           C          2.157393714995    -0.502775350906     0.024001105713    12.000000000000
           C          0.717075724429    -1.023402179074    -1.826352609655    12.000000000000
           C          3.205497579433    -1.072779504929    -0.661732613291    12.000000000000
           C          1.793026580834    -1.582431407722    -2.476689901624    12.000000000000
           C         -0.238000257424     0.126699283175     0.151371634148    12.000000000000
           C          0.884080683184    -0.468775107303    -0.553303981011    12.000000000000
           C         -2.393795429639     1.271121037534     1.496767389042    12.000000000000
           N          2.995863957097    -1.590632111460    -1.881662994193    14.003074004780
           O         -3.455361368627     1.836579136741     2.111539697730    15.994914619560
           H         -1.268606193429     0.758498148700    -1.638476905410     1.007825032070
           H          0.503612938420    -0.352595744210     2.122885512450     1.007825032070
           H         -3.154477929323     1.759988617307    -0.447065995229     1.007825032070
           H         -1.388899710341     0.652447468394     3.296549303069     1.007825032070
           H          2.338289318509    -0.084865576228     1.001867994559     1.007825032070
           H         -0.246389848408    -1.025902362948    -2.312248715603     1.007825032070
           H          4.212195068181    -1.131915559713    -0.279100370723     1.007825032070
           H          1.736678487711    -2.028573257550    -3.457023471320     1.007825032070
           H          3.778123558551    -2.005795170310    -2.374655337805     1.007825032070
           H         -3.362951141544     1.751794988503     3.068239727838     1.007825032070

  Running in c1 symmetry.

  Rotational constants: A =      0.09641  B =      0.01331  C =      0.01189 [cm^-1]
  Rotational constants: A =   2890.19534  B =    398.89827  C =    356.36093 [MHz]
  Nuclear repulsion =  713.477314022961536

  Charge       = 1
  Multiplicity = 1
  Electrons    = 90
  Nalpha       = 45
  Nbeta        = 45

  ==> Algorithm <==

  SCF Algorithm Type is DF.
  DIIS enabled.
  MOM disabled.
  Fractional occupation disabled.
  Guess Type is READ.
  Energy threshold   = 1.00e-10
  Density threshold  = 1.00e-10
  Integral threshold = 0.00e+00

  ==> Primary Basis <==

  Basis Set: AUG-CC-PVTZ
    Blend: AUG-CC-PVTZ
    Number of shells: 272
    Number of basis function: 828
    Number of Cartesian functions: 965
    Spherical Harmonics?: true
    Max angular momentum: 3

   => Loading Basis Set <=

    Name: (AUG-CC-PVTZ AUX)
    Role: JKFIT
    Keyword: DF_BASIS_SCF
    atoms 1-11  entry C          line   161 file /cbio/jclab/home/chayas/anaconda/envs/py35/share/psi4/basis/aug-cc-pvtz-jkfit.gbs 
    atoms 12    entry N          line   223 file /cbio/jclab/home/chayas/anaconda/envs/py35/share/psi4/basis/aug-cc-pvtz-jkfit.gbs 
    atoms 13    entry O          line   285 file /cbio/jclab/home/chayas/anaconda/envs/py35/share/psi4/basis/aug-cc-pvtz-jkfit.gbs 
    atoms 14-23 entry H          line    69 file /cbio/jclab/home/chayas/anaconda/envs/py35/share/psi4/basis/aug-cc-pvtz-jkfit.gbs 

  Reading orbitals from file 180, no projection.

  ==> Pre-Iterations <==

   -------------------------------------------------------
    Irrep   Nso     Nmo     Nalpha   Nbeta   Ndocc  Nsocc
   -------------------------------------------------------
     A        828     828       0       0       0       0
   -------------------------------------------------------
    Total     828     828      45      45      45       0
   -------------------------------------------------------

  ==> Integral Setup <==

  ==> DFJK: Density-Fitted J/K Matrices <==

    J tasked:                  Yes
    K tasked:                  Yes
    wK tasked:                  No
    OpenMP threads:              8
    Integrals threads:           8
    Memory (MB):              3576
    Algorithm:                Disk
    Integral Cache:           NONE
    Schwarz Cutoff:          1E-12
    Fitting Condition:       1E-12

   => Auxiliary Basis Set <=

  Basis Set: (AUG-CC-PVTZ AUX)
    Blend: AUG-CC-PVTZ-JKFIT
    Number of shells: 530
    Number of basis function: 1812
    Number of Cartesian functions: 2253
    Spherical Harmonics?: true
    Max angular momentum: 4

  Minimum eigenvalue in the overlap matrix is 5.1893279729E-07.
  Using Symmetric Orthogonalization.

  SCF Guess: Orbitals guess was supplied from a previous computation.

  ==> Iterations <==

                           Total Energy        Delta E     RMS |[F,P]|

   @DF-RHF iter   0:  -551.79341305384207   -5.51793e+02   4.31300e-04 
   @DF-RHF iter   1:  -551.68092223481199    1.12491e-01   1.09351e-04 
   @DF-RHF iter   2:  -551.68132409308805   -4.01858e-04   6.75400e-05 DIIS
   @DF-RHF iter   3:  -551.68161841395568   -2.94321e-04   1.21793e-05 DIIS
   @DF-RHF iter   4:  -551.68162709676062   -8.68280e-06   3.49076e-06 DIIS
   @DF-RHF iter   5:  -551.68162928971537   -2.19295e-06   1.45959e-06 DIIS
   @DF-RHF iter   6:  -551.68162972865480   -4.38939e-07   8.37838e-07 DIIS
   @DF-RHF iter   7:  -551.68162990081635   -1.72162e-07   3.60138e-07 DIIS
   @DF-RHF iter   8:  -551.68162995454122   -5.37249e-08   1.14766e-07 DIIS
   @DF-RHF iter   9:  -551.68162995966554   -5.12432e-09   4.10426e-08 DIIS
   @DF-RHF iter  10:  -551.68162995998864   -3.23098e-10   1.91799e-08 DIIS
   @DF-RHF iter  11:  -551.68162996003275   -4.41105e-11   5.32417e-09 DIIS
   @DF-RHF iter  12:  -551.68162996003696   -4.20641e-12   2.04665e-09 DIIS
   @DF-RHF iter  13:  -551.68162996005765   -2.06910e-11   9.58579e-10 DIIS
   @DF-RHF iter  14:  -551.68162996004969    7.95808e-12   3.89080e-10 DIIS
   @DF-RHF iter  15:  -551.68162996004253    7.16227e-12   1.89485e-10 DIIS
   @DF-RHF iter  16:  -551.68162996002275    1.97815e-11   7.43167e-11 DIIS

  ==> Post-Iterations <==

    Orbital Energies (a.u.)
    -----------------------

    Doubly Occupied:                                                      

       1A    -20.705935     2A    -15.829286     3A    -11.480990  
       4A    -11.480774     5A    -11.448909     6A    -11.433820  
       7A    -11.411094     8A    -11.410843     9A    -11.379567  
      10A    -11.376950    11A    -11.372509    12A    -11.356038  
      13A    -11.349931    14A     -1.526360    15A     -1.508387  
      16A     -1.318447    17A     -1.266206    18A     -1.238191  
      19A     -1.156217    20A     -1.154544    21A     -1.064829  
      22A     -1.056255    23A     -0.978520    24A     -0.962013  
      25A     -0.952195    26A     -0.871934    27A     -0.860948  
      28A     -0.854636    29A     -0.821038    30A     -0.800193  
      31A     -0.783190    32A     -0.772509    33A     -0.757957  
      34A     -0.732677    35A     -0.721300    36A     -0.709315  
      37A     -0.705263    38A     -0.686784    39A     -0.657881  
      40A     -0.637059    41A     -0.620339    42A     -0.569978  
      43A     -0.538991    44A     -0.472707    45A     -0.437058  

    Virtual:                                                              

      46A     -0.105924    47A     -0.083523    48A     -0.062535  
      49A     -0.060280    50A     -0.058529    51A     -0.049036  
      52A     -0.043684    53A     -0.039329    54A     -0.034291  
      55A     -0.028182    56A     -0.025413    57A     -0.023544  
      58A     -0.016876    59A     -0.009049    60A     -0.005808  
      61A     -0.001468    62A      0.003633    63A      0.006433  
      64A      0.009451    65A      0.015587    66A      0.017564  
      67A      0.021467    68A      0.024092    69A      0.024977  
      70A      0.028765    71A      0.031973    72A      0.036604  
      73A      0.038303    74A      0.040259    75A      0.045079  
      76A      0.049344    77A      0.055506    78A      0.058276  
      79A      0.060498    80A      0.067430    81A      0.068243  
      82A      0.072732    83A      0.074461    84A      0.078047  
      85A      0.083927    86A      0.086481    87A      0.088585  
      88A      0.095477    89A      0.098291    90A      0.108618  
      91A      0.110807    92A      0.114829    93A      0.121258  
      94A      0.123159    95A      0.125221    96A      0.128861  
      97A      0.132656    98A      0.137416    99A      0.140189  
     100A      0.144860   101A      0.153018   102A      0.158006  
     103A      0.162162   104A      0.163756   105A      0.167391  
     106A      0.168717   107A      0.170952   108A      0.173632  
     109A      0.177576   110A      0.182819   111A      0.188766  
     112A      0.190361   113A      0.192068   114A      0.197355  
     115A      0.205328   116A      0.206727   117A      0.210344  
     118A      0.213529   119A      0.217755   120A      0.220313  
     121A      0.224697   122A      0.228581   123A      0.231055  
     124A      0.233470   125A      0.234611   126A      0.240762  
     127A      0.242577   128A      0.250463   129A      0.251477  
     130A      0.257684   131A      0.259105   132A      0.273704  
     133A      0.278215   134A      0.280117   135A      0.280747  
     136A      0.287173   137A      0.288114   138A      0.293478  
     139A      0.301307   140A      0.309016   141A      0.311368  
     142A      0.311797   143A      0.316344   144A      0.318703  
     145A      0.323534   146A      0.325018   147A      0.331182  
     148A      0.333843   149A      0.336421   150A      0.339580  
     151A      0.341744   152A      0.344021   153A      0.349160  
     154A      0.351000   155A      0.356438   156A      0.361030  
     157A      0.366032   158A      0.368452   159A      0.371169  
     160A      0.374700   161A      0.375560   162A      0.380052  
     163A      0.383998   164A      0.387834   165A      0.390156  
     166A      0.394671   167A      0.398364   168A      0.401552  
     169A      0.404179   170A      0.407581   171A      0.412597  
     172A      0.414542   173A      0.418772   174A      0.421192  
     175A      0.424334   176A      0.429329   177A      0.430326  
     178A      0.437958   179A      0.439194   180A      0.443369  
     181A      0.449072   182A      0.453600   183A      0.458749  
     184A      0.464225   185A      0.472175   186A      0.476047  
     187A      0.482204   188A      0.488649   189A      0.494535  
     190A      0.501566   191A      0.505977   192A      0.510153  
     193A      0.519001   194A      0.528886   195A      0.529441  
     196A      0.537523   197A      0.543192   198A      0.549679  
     199A      0.552061   200A      0.564378   201A      0.572018  
     202A      0.574928   203A      0.577967   204A      0.580812  
     205A      0.585280   206A      0.587894   207A      0.595974  
     208A      0.601791   209A      0.608691   210A      0.612948  
     211A      0.620265   212A      0.622958   213A      0.627249  
     214A      0.632770   215A      0.638769   216A      0.643289  
     217A      0.646790   218A      0.650603   219A      0.654352  
     220A      0.668395   221A      0.676665   222A      0.680690  
     223A      0.693663   224A      0.700948   225A      0.703272  
     226A      0.704938   227A      0.708348   228A      0.712403  
     229A      0.717337   230A      0.718899   231A      0.725337  
     232A      0.732944   233A      0.734682   234A      0.737795  
     235A      0.740000   236A      0.744606   237A      0.758390  
     238A      0.759628   239A      0.764178   240A      0.768790  
     241A      0.773619   242A      0.777928   243A      0.780701  
     244A      0.785140   245A      0.789432   246A      0.794702  
     247A      0.796738   248A      0.804445   249A      0.806233  
     250A      0.812127   251A      0.815926   252A      0.818552  
[...]
	 B(4,2,9)         =         2.107002	     120.722313
	 B(4,2,15)        =         2.073145	     118.782475
	 B(4,11,13)       =         2.154404	     123.438274
	 B(5,7,12)        =         2.085059	     119.465053
	 B(5,7,20)        =         2.157541	     123.618019
	 B(5,10,6)        =         2.039305	     116.843581
	 B(5,10,9)        =         2.122894	     121.632879
	 B(6,8,12)        =         2.085066	     119.465457
	 B(6,8,21)        =         2.157557	     123.618918
	 B(6,10,9)        =         2.120916	     121.519556
	 B(7,5,10)        =         2.109933	     120.890267
	 B(7,5,18)        =         2.065886	     118.366524
	 B(7,12,8)        =         2.137098	     122.446699
	 B(7,12,22)       =         2.073085	     118.779010
	 B(8,6,10)        =         2.109898	     120.888232
	 B(8,6,19)        =         2.066089	     118.378165
	 B(8,12,22)       =         2.073002	     118.774240
	 B(9,1,14)        =         2.101283	     120.394652
	 B(9,2,15)        =         2.101793	     120.423867
	 B(10,5,18)       =         2.106935	     120.718456
	 B(10,6,19)       =         2.106740	     120.707328
	 B(11,3,16)       =         2.073830	     118.821685
	 B(11,4,17)       =         2.094986	     120.033853
	 B(11,13,23)      =         1.930147	     110.589274
	 B(12,7,20)       =         2.040494	     116.911685
	 B(12,8,21)       =         2.040502	     116.912140
	 D(1,3,11,4)      =         0.008544	       0.489555
	 D(1,3,11,13)     =        -3.132874	    -179.500461
	 D(1,9,2,4)       =         0.014530	       0.832494
	 D(1,9,2,15)      =         3.101861	     177.723571
	 D(1,9,10,5)      =         2.619807	     150.103868
	 D(1,9,10,6)      =        -0.508711	     -29.146968
	 D(2,4,11,3)      =         0.007340	       0.420559
	 D(2,4,11,13)     =        -3.134439	    -179.590125
	 D(2,9,1,3)       =         0.001508	       0.086373
	 D(2,9,1,14)      =         3.094388	     177.295357
	 D(2,9,10,5)      =        -0.507570	     -29.081646
	 D(2,9,10,6)      =         2.647098	     151.667518
	 D(3,1,9,10)      =        -3.126152	    -179.115315
	 D(3,11,4,17)     =        -3.126404	    -179.129765
	 D(3,11,13,23)    =        -3.136893	    -179.730723
	 D(4,2,9,10)      =        -3.140999	    -179.965993
	 D(4,11,3,16)     =        -3.122462	    -178.903913
	 D(4,11,13,23)    =         0.004881	       0.279658
	 D(5,7,12,8)      =        -0.000387	      -0.022146
	 D(5,7,12,22)     =         3.139754	     179.894628
	 D(5,10,6,8)      =         0.003643	       0.208757
	 D(5,10,6,19)     =         3.112166	     178.313975
	 D(6,8,12,7)      =        -0.001609	      -0.092165
	 D(6,8,12,22)     =         3.141437	     179.991058
	 D(6,10,5,7)      =        -0.005640	      -0.323136
	 D(6,10,5,18)     =         3.103851	     177.837557
	 D(7,5,10,9)      =        -3.134740	    -179.607375
	 D(7,12,8,21)     =        -3.131778	    -179.437675
	 D(8,6,10,9)      =         3.132759	     179.493865
	 D(8,12,7,20)     =        -3.127969	    -179.219426
	 D(9,1,3,11)      =        -0.012942	      -0.741500
	 D(9,1,3,16)      =         3.117809	     178.637313
	 D(9,2,4,11)      =        -0.018971	      -1.086968
	 D(9,2,4,17)      =         3.114779	     178.463663
	 D(9,10,5,18)     =        -0.025249	      -1.446682
	 D(9,10,6,19)     =        -0.041904	      -2.400916
	 D(10,5,7,12)     =         0.004137	       0.237048
	 D(10,5,7,20)     =         3.130728	     179.377492
	 D(10,6,8,12)     =        -0.000136	      -0.007796
	 D(10,6,8,21)     =         3.129225	     179.291370
	 D(10,9,1,14)     =        -0.033272	      -1.906332
	 D(10,9,2,15)     =        -0.053667	      -3.074916
	 D(11,3,1,14)     =        -3.106616	    -177.995987
	 D(11,4,2,15)     =        -3.107180	    -178.028290
	 D(12,7,5,18)     =        -3.106092	    -177.965964
	 D(12,8,6,19)     =        -3.109412	    -178.156193
	 D(13,11,3,16)    =         0.019305	       1.106070
	 D(13,11,4,17)    =         0.015002	       0.859552
	 D(14,1,3,16)     =         0.024135	       1.382826
	 D(15,2,4,17)     =         0.026570	       1.522342
	 D(18,5,7,20)     =         0.020499	       1.174480
	 D(19,6,8,21)     =         0.019949	       1.142973
	 D(20,7,12,22)    =         0.012171	       0.697347
	 D(21,8,12,22)    =         0.011267	       0.645548

	Current energy   :      -554.1022098648

	Energy change for the previous step:
		Projected    :        -0.0000123844
		Actual       :        -0.0000030960

	Performing BFGS update.
	Previous computed or guess Hessian on step 1.
	Steps to be used in Hessian update: 4 3
	Adding user-defined constraint: Fragment 1; Coordinate 66:
		Value =     2.619807; Fixed value    =     2.617990
		Force =    -0.001090; Force constant =     0.600000
	Removing off-diagonal coupling between coordinate 66 and others.
	Taking RFO optimization step.
	Going to follow RFO solution 1.
	Using RFO vector 1.
	Norm of target step-size    0.00301
	Projected energy change by RFO approximation:         0.0000003057

	Back-transformation to cartesian coordinates...
	Successfully converged to displaced geometry.

	--- Internal Coordinate Step in ANG or DEG, aJ/ANG or AJ/DEG ---
	 ---------------------------------------------------------------------------
	   Coordinate                Previous        Force       Change         New 
	   ----------                --------       ------       ------       ------
	    1 R(1,3)          =      1.377248    -0.000313    -0.000072     1.377176
	    2 R(1,9)          =      1.399690     0.000731     0.000131     1.399821
	    3 R(1,14)         =      1.079634     0.000013    -0.000002     1.079631
	    4 R(2,4)          =      1.379803     0.000375     0.000052     1.379855
	    5 R(2,9)          =      1.397817    -0.000215    -0.000030     1.397787
	    6 R(2,15)         =      1.079697     0.000128     0.000022     1.079719
	    7 R(3,11)         =      1.393388     0.000318     0.000067     1.393456
	    8 R(3,16)         =      1.078506     0.000263     0.000049     1.078555
	    9 R(4,11)         =      1.393302    -0.000155    -0.000026     1.393277
	   10 R(4,17)         =      1.080295     0.000086     0.000015     1.080311
	   11 R(5,7)          =      1.371462     0.000389     0.000046     1.371508
	   12 R(5,10)         =      1.401675    -0.000047     0.000007     1.401682
	   13 R(5,18)         =      1.077505     0.000047     0.000007     1.077512
	   14 R(6,8)          =      1.371460     0.000378     0.000044     1.371504
	   15 R(6,10)         =      1.401776     0.000028     0.000016     1.401792
	   16 R(6,19)         =      1.077526     0.000041     0.000006     1.077532
	   17 R(7,12)         =      1.343628    -0.000341    -0.000040     1.343588
	   18 R(7,20)         =      1.077213     0.000092     0.000016     1.077229
	   19 R(8,12)         =      1.343603    -0.000289    -0.000035     1.343568
	   20 R(8,21)         =      1.077246     0.000084     0.000016     1.077262
	   21 R(9,10)         =      1.443376     0.000262    -0.000004     1.443372
	   22 R(11,13)        =      1.343066     0.000102    -0.000009     1.343056
	   23 R(12,22)        =      1.011609     0.000118     0.000016     1.011625
	   24 R(13,23)        =      0.963796     0.000225     0.000025     0.963821
	   25 B(1,3,11)       =    119.985448     0.000002     0.007423   119.992871
	   26 B(1,3,16)       =    121.190019     0.000002     0.017372   121.207390
	   27 B(1,9,2)        =    118.660797    -0.000001    -0.003992   118.656805
	   28 B(1,9,10)       =    120.656535    -0.000001    -0.003527   120.653008
	   29 B(2,4,11)       =    119.998700    -0.000001    -0.006074   119.992627
	   30 B(2,4,17)       =    119.965919    -0.000001    -0.005918   119.960001
	   31 B(2,9,10)       =    120.677787     0.000002     0.007338   120.685125
	   32 B(3,1,9)        =    120.812050    -0.000001    -0.005431   120.806619
	   33 B(3,1,14)       =    118.735861     0.000002     0.013125   118.748986
	   34 B(3,11,4)       =    119.810211    -0.000000    -0.001219   119.808992
	   35 B(3,11,13)      =    116.751514     0.000003     0.006454   116.757968
	   36 B(4,2,9)        =    120.722313     0.000002     0.008111   120.730424
	   37 B(4,2,15)       =    118.782475    -0.000001    -0.001610   118.780865
	   38 B(4,11,13)      =    123.438274    -0.000002    -0.005240   123.433034
	   39 B(5,7,12)       =    119.465053     0.000003     0.008809   119.473863
	   40 B(5,7,20)       =    123.618019    -0.000002    -0.010571   123.607448
	   41 B(5,10,6)       =    116.843581    -0.000000    -0.002221   116.841360
	   42 B(5,10,9)       =    121.632879    -0.000001    -0.000988   121.631891
	   43 B(6,8,12)       =    119.465457     0.000002     0.007565   119.473022
	   44 B(6,8,21)       =    123.618918    -0.000002    -0.009920   123.608998
	   45 B(6,10,9)       =    121.519556     0.000001     0.003192   121.522748
	   46 B(7,5,10)       =    120.890267    -0.000001    -0.002793   120.887473
	   47 B(7,5,18)       =    118.366524    -0.000001    -0.007092   118.359432
	   48 B(7,12,8)       =    122.446699    -0.000002    -0.009560   122.437139
	   49 B(7,12,22)      =    118.779010     0.000001     0.004273   118.783283
	   50 B(8,6,10)       =    120.888232    -0.000001    -0.001828   120.886403
	   51 B(8,6,19)       =    118.378165    -0.000001    -0.010777   118.367388
	   52 B(8,12,22)      =    118.774240     0.000001     0.005290   118.779530
	   53 B(9,1,14)       =    120.394652    -0.000001    -0.007599   120.387053
	   54 B(9,2,15)       =    120.423867    -0.000001    -0.007713   120.416154
	   55 B(10,5,18)      =    120.718456     0.000002     0.010132   120.728588
	   56 B(10,6,19)      =    120.707328     0.000003     0.012983   120.720310
	   57 B(11,3,16)      =    118.821685    -0.000004    -0.024421   118.797264
	   58 B(11,4,17)      =    120.033853     0.000002     0.012349   120.046202
	   59 B(11,13,23)     =    110.589274     0.000000     0.003011   110.592285
	   60 B(12,7,20)      =    116.911685    -0.000001     0.001539   116.913223
	   61 B(12,8,21)      =    116.912140    -0.000000     0.002165   116.914305
	   62 D(1,3,11,4)     =      0.489555     0.000000     0.034890     0.524444
	   63 D(1,3,11,13)    =   -179.500461     0.000000    -0.002497  -179.502958
	   64 D(1,9,2,4)      =      0.832494     0.000000     0.039183     0.871677
	   65 D(1,9,2,15)     =    177.723571     0.000000     0.012867   177.736437
	   66 D(1,9,10,5)     =    150.103868     0.000000     0.002488   150.106356
	   67 D(1,9,10,6)     =    -29.146968     0.000000     0.004088   -29.142880
	   68 D(2,4,11,3)     =      0.420559     0.000000     0.016906     0.437465
	   69 D(2,4,11,13)    =   -179.590125     0.000000     0.056910  -179.533215
	   70 D(2,9,1,3)      =      0.086373     0.000000     0.013169     0.099542
	   71 D(2,9,1,14)     =    177.295357     0.000000     0.015832   177.311189
	   72 D(2,9,10,5)     =    -29.081646     0.000000     0.017431   -29.064215
	   73 D(2,9,10,6)     =    151.667518     0.000000     0.019031   151.686549
	   74 D(3,1,9,10)     =   -179.115315     0.000000     0.027723  -179.087593
	   75 D(3,11,4,17)    =   -179.129765    -0.000000    -0.039146  -179.168911
	   76 D(3,11,13,23)   =   -179.730723     0.000000     0.022788  -179.707935
	   77 D(4,2,9,10)     =   -179.965993     0.000000     0.024534  -179.941459
	   78 D(4,11,3,16)    =   -178.903913    -0.000000    -0.006329  -178.910243
	   79 D(4,11,13,23)   =      0.279658    -0.000000    -0.016084     0.263574
	   80 D(5,7,12,8)     =     -0.022146    -0.000000    -0.013006    -0.035151
	   81 D(5,7,12,22)    =    179.894628    -0.000000    -0.010113   179.884515
	   82 D(5,10,6,8)     =      0.208757    -0.000000    -0.016154     0.192603
	   83 D(5,10,6,19)    =    178.313975    -0.000000    -0.002704   178.311271
	   84 D(6,8,12,7)     =     -0.092165    -0.000000    -0.006514    -0.098679
	   85 D(6,8,12,22)    =    179.991058    -0.000000    -0.009406   179.981652
	   86 D(6,10,5,7)     =     -0.323136     0.000000    -0.003351    -0.326488
	   87 D(6,10,5,18)    =    177.837557     0.000000     0.005692   177.843249
	   88 D(7,5,10,9)     =   -179.607375    -0.000000    -0.001861  -179.609237
	   89 D(7,12,8,21)    =   -179.437675     0.000000     0.011118  -179.426557
	   90 D(8,6,10,9)     =    179.493865    -0.000000    -0.017674   179.476192
	   91 D(8,12,7,20)    =   -179.219426     0.000000     0.004019  -179.215407
	   92 D(9,1,3,11)     =     -0.741500    -0.000000    -0.049930    -0.791430
	   93 D(9,1,3,16)     =    178.637313    -0.000000    -0.007958   178.629355
	   94 D(9,2,4,11)     =     -1.086968    -0.000000    -0.054176    -1.141144
	   95 D(9,2,4,17)     =    178.463663    -0.000000     0.001911   178.465574
	   96 D(9,10,5,18)    =     -1.446682    -0.000000     0.007182    -1.439500
	   97 D(9,10,6,19)    =     -2.400916    -0.000000    -0.004224    -2.405140
	   98 D(10,5,7,12)    =      0.237048     0.000000     0.017782     0.254830
	   99 D(10,5,7,20)    =    179.377492    -0.000000    -0.000328   179.377164
	  100 D(10,6,8,12)    =     -0.007796     0.000000     0.021357     0.013561
	  101 D(10,6,8,21)    =    179.291370    -0.000000     0.002573   179.293943
	  102 D(10,9,1,14)    =     -1.906332     0.000000     0.030387    -1.875945
	  103 D(10,9,2,15)    =     -3.074916     0.000000    -0.001782    -3.076698
	  104 D(11,3,1,14)    =   -177.995987    -0.000000    -0.051992  -178.047978
	  105 D(11,4,2,15)    =   -178.028290    -0.000000    -0.028090  -178.056379
	  106 D(12,7,5,18)    =   -177.965964     0.000000     0.008640  -177.957325
	  107 D(12,8,6,19)    =   -178.156193     0.000000     0.007780  -178.148414
	  108 D(13,11,3,16)   =      1.106070    -0.000000    -0.043716     1.062355
	  109 D(13,11,4,17)   =      0.859552     0.000000     0.000857     0.860409
	  110 D(14,1,3,16)    =      1.382826    -0.000000    -0.010019     1.372807
	  111 D(15,2,4,17)    =      1.522342     0.000000     0.027997     1.550339
	  112 D(18,5,7,20)    =      1.174480    -0.000000    -0.009471     1.165009
	  113 D(19,6,8,21)    =      1.142973    -0.000000    -0.011005     1.131968
	  114 D(20,7,12,22)   =      0.697347     0.000000     0.006912     0.704259
	  115 D(21,8,12,22)   =      0.645548     0.000000     0.008226     0.653774
	 ---------------------------------------------------------------------------
	Successfully symmetrized geometry.
	 Forces used to impose fixed constraints are not included.
	  Forces zeroed: 66 

  ==> Convergence Check <==

  Measures of convergence in internal coordinates in au.
  Criteria marked as inactive (o), active & met (*), and active & unmet ( ).
  ---------------------------------------------------------------------------------------------
   Step     Total Energy     Delta E     MAX Force     RMS Force      MAX Disp      RMS Disp   
  ---------------------------------------------------------------------------------------------
    Convergence Criteria    1.00e-06 *    3.00e-04 *             o    1.20e-03 *             o
  ---------------------------------------------------------------------------------------------
      5    -554.10220986   -3.10e-06      8.88e-05 *    2.05e-05 o    9.93e-04 *    2.80e-04 o  ~
  ---------------------------------------------------------------------------------------------


  **** Optimization is complete! (in 5 steps) ****

  ==> Optimization Summary <==

  Measures of convergence in internal coordinates in au.
  --------------------------------------------------------------------------------------------------------------- ~
   Step         Total Energy             Delta E       MAX Force       RMS Force        MAX Disp        RMS Disp  ~
  --------------------------------------------------------------------------------------------------------------- ~
      1    -554.098387720355   -554.098387720355      0.01406334      0.00448289      0.03326521      0.00931119  ~
      2    -554.101433383754     -0.003045663399      0.00555333      0.00152584      0.02344866      0.00931889  ~
      3    -554.102138996014     -0.000705612260      0.00167469      0.00034570      0.02323159      0.00643023  ~
      4    -554.102206768797     -0.000067772782      0.00045322      0.00007888      0.00283120      0.00109877  ~
      5    -554.102209864758     -0.000003095961      0.00008876      0.00002053      0.00099326      0.00028029  ~
  --------------------------------------------------------------------------------------------------------------- ~

	Writing optimization data to binary file.
	Final energy is   -554.1022098647577
	Final (previous) structure:
	Cartesian Geometry (in Angstrom)
	    C    -1.2941185166   0.7098224698  -0.5499577732
	    C    -0.2879527980   0.1149308721   1.5532625538
	    C    -2.3518779959   1.2889265944   0.1153214499
	    C    -1.3548475057   0.6772678027   2.2236118112
	    C     2.1559371107  -0.5162858264   0.0194040341
	    C     0.7279916863  -1.0208782607  -1.8273482050
	    C     3.2074507714  -1.0727520877  -0.6629246511
	    C     1.7997033478  -1.5682857801  -2.4851333767
	    C    -0.2430154709   0.1134163014   0.1561688856
	    C     0.8731598903  -0.4757488555  -0.5440962246
	    C    -2.3919163820   1.2720153005   1.5080318361
	    N     3.0042140564  -1.5811531270  -1.8899374785
	    O    -3.4579476162   1.8461691654   2.0891945622
	    H    -1.2670651635   0.7631780276  -1.6279327557
	    H     0.4890009147  -0.3690899644   2.1258121180
	    H    -3.1541587013   1.7692430238  -0.4220956446
	    H    -1.3890353697   0.6496658803   3.3030130746
	    H     2.3455297199  -0.0840178778   0.9880196832
	    H    -0.2358839066  -1.0469104570  -2.3083141861
	    H     4.2118895168  -1.1185614204  -0.2764118929
	    H     1.7359101249  -2.0085415780  -3.4662372727
	    H     3.7874603880  -1.9876408632  -2.3845548319
	    H    -3.3929697034   1.7880878908   3.0490422238
	Saving final (previous) structure.
			--------------------------
			 OPTKING Finished Execution 
			--------------------------

    Final optimized geometry and variables:
    Molecular point group: c1
    Full point group: C1

    Geometry (in Angstrom), charge = 1, multiplicity = 1:

    C           -1.294118516647     0.709822469838    -0.549957773166
    C           -0.287952797998     0.114930872065     1.553262553822
    C           -2.351877995896     1.288926594369     0.115321449943
    C           -1.354847505676     0.677267802651     2.223611811187
    C            2.155937110664    -0.516285826428     0.019404034095
    C            0.727991686297    -1.020878260726    -1.827348204984
    C            3.207450771356    -1.072752087698    -0.662924651066
    C            1.799703347770    -1.568285780148    -2.485133376689
    C           -0.243015470883     0.113416301360     0.156168885629
    C            0.873159890318    -0.475748855549    -0.544096224616
    C           -2.391916382036     1.272015300490     1.508031836053
    N            3.004214056427    -1.581153126956    -1.889937478500
    O           -3.457947616178     1.846169165407     2.089194562182
    H           -1.267065163499     0.763178027571    -1.627932755731
    H            0.489000914704    -0.369089964428     2.125812118019
    H           -3.154158701320     1.769243023761    -0.422095644560
    H           -1.389035369667     0.649665880348     3.303013074621
    H            2.345529719887    -0.084017877757     0.988019683244
    H           -0.235883906637    -1.046910456990    -2.308314186103
    H            4.211889516807    -1.118561420427    -0.276411892920
    H            1.735910124890    -2.008541578013    -3.466237272743
    H            3.787460388027    -1.987640863179    -2.384554831880
    H           -3.392969703414     1.788087890807     3.049042223828

	Cleaning optimization helper files.

*** Psi4 exiting successfully. Buy a developer a beer!
