
    -----------------------------------------------------------------------
          Psi4: An Open-Source Ab Initio Electronic Structure Package
                               Psi4 1.1 release

                         Git: Rev {HEAD} add49b9 


    R. M. Parrish, L. A. Burns, D. G. A. Smith, A. C. Simmonett,
    A. E. DePrince III, E. G. Hohenstein, U. Bozkaya, A. Yu. Sokolov,
    R. Di Remigio, R. M. Richard, J. F. Gonthier, A. M. James,
    H. R. McAlexander, A. Kumar, M. Saitow, X. Wang, B. P. Pritchard,
    P. Verma, H. F. Schaefer III, K. Patkowski, R. A. King, E. F. Valeev,
    F. A. Evangelista, J. M. Turney, T. D. Crawford, and C. D. Sherrill,
    J. Chem. Theory Comput. in press (2017).
    (doi: 10.1021/acs.jctc.7b00174)

    -----------------------------------------------------------------------


    Psi4 started on: Saturday, 11 November 2017 06:12PM

    Process ID:  11924
    PSIDATADIR: /cbio/jclab/home/chayas/anaconda/envs/py35/share/psi4
    Memory:     500.0 MiB
    Threads:    8
    
  ==> Input File <==

--------------------------------------------------------------------------

memory 5 Gb

molecule phepyrF {
  symmetry C1
  0 1 
  C      1.885   -1.036   -0.112
  C      0.807   -0.463   0.561
  C      2.921   -1.631   0.608
  C      0.764   -0.484   1.955
  C      5.278   -2.017   2.398
  C      3.672   -3.118   3.810
  C      6.272   -2.632   3.142
  C      4.738   -3.683   4.490
  C      2.878   -1.652   2.002
  C      3.955   -2.270   2.745
  C      1.800   -1.079   2.676
  N      6.036   -3.461   4.183
  F      1.744   -1.089   4.016
  H      1.918   -1.020   -1.198
  H      0.000   -0.000   -0.000
  H      3.755   -2.073   0.068
  H      -0.076   -0.038   2.480
  H      5.539   -1.360   1.575
  H      2.652   -3.339   4.109
  H      7.320   -2.465   2.913
  H      4.570   -4.353   5.327
  units Angstrom
}

dih_string = "3 9 10 5 45"
set optking fixed_dihedral = $dih_string

optimize('MP2/aug-cc-PVTZ')
--------------------------------------------------------------------------

  Memory set to   4.657 GiB by Python driver.
gradient() will perform analytic gradient computation.

*** tstart() called on gpu-2-6.local
*** at Sat Nov 11 18:12:59 2017

    SCF Algorithm Type (re)set to DF.

*** tstart() called on gpu-2-6.local
*** at Sat Nov 11 18:12:59 2017

   => Loading Basis Set <=

    Name: AUG-CC-PVTZ
    Role: ORBITAL
    Keyword: BASIS
    atoms 1-11  entry C          line   221 file /cbio/jclab/home/chayas/anaconda/envs/py35/share/psi4/basis/aug-cc-pvtz.gbs 
    atoms 12    entry N          line   267 file /cbio/jclab/home/chayas/anaconda/envs/py35/share/psi4/basis/aug-cc-pvtz.gbs 
    atoms 13    entry F          line   359 file /cbio/jclab/home/chayas/anaconda/envs/py35/share/psi4/basis/aug-cc-pvtz.gbs 
    atoms 14-21 entry H          line    34 file /cbio/jclab/home/chayas/anaconda/envs/py35/share/psi4/basis/aug-cc-pvtz.gbs 


         ---------------------------------------------------------
                                   SCF
            by Justin Turney, Rob Parrish, and Andy Simmonett
                              RHF Reference
                        8 Threads,   4768 MiB Core
         ---------------------------------------------------------

  ==> Geometry <==

    Molecular point group: c1
    Full point group: C1

    Geometry (in Angstrom), charge = 0, multiplicity = 1:

       Center              X                  Y                   Z               Mass       
    ------------   -----------------  -----------------  -----------------  -----------------
           C         -1.369139791874     0.840163592290    -2.663459389294    12.000000000000
           C         -2.447139791874     1.413163592290    -1.990459389294    12.000000000000
           C         -0.333139791874     0.245163592290    -1.943459389294    12.000000000000
           C         -2.490139791874     1.392163592290    -0.596459389294    12.000000000000
           C          2.023860208126    -0.140836407710    -0.153459389294    12.000000000000
           C          0.417860208126    -1.241836407710     1.258540610706    12.000000000000
           C          3.017860208126    -0.755836407710     0.590540610706    12.000000000000
           C          1.483860208126    -1.806836407710     1.938540610706    12.000000000000
           C         -0.376139791874     0.224163592290    -0.549459389294    12.000000000000
           C          0.700860208126    -0.393836407710     0.193540610706    12.000000000000
           C         -1.454139791874     0.797163592290     0.124540610706    12.000000000000
           N          2.781860208126    -1.584836407710     1.631540610706    14.003074004780
           F         -1.510139791874     0.787163592290     1.464540610706    18.998403224000
           H         -1.336139791874     0.856163592290    -3.749459389294     1.007825032070
           H         -3.254139791874     1.876163592290    -2.551459389294     1.007825032070
           H          0.500860208126    -0.196836407710    -2.483459389294     1.007825032070
           H         -3.330139791874     1.838163592290    -0.071459389294     1.007825032070
           H          2.284860208126     0.516163592290    -0.976459389294     1.007825032070
           H         -0.602139791874    -1.462836407710     1.557540610706     1.007825032070
           H          4.065860208126    -0.588836407710     0.361540610706     1.007825032070
           H          1.315860208126    -2.476836407710     2.775540610706     1.007825032070

  Running in c1 symmetry.

  Rotational constants: A =      0.06385  B =      0.01823  C =      0.01501 [cm^-1]
  Rotational constants: A =   1914.28075  B =    546.55006  C =    449.95266 [MHz]
  Nuclear repulsion =  716.553440752988877

  Charge       = 0
  Multiplicity = 1
  Electrons    = 90
  Nalpha       = 45
  Nbeta        = 45

  ==> Algorithm <==

  SCF Algorithm Type is DF.
  DIIS enabled.
  MOM disabled.
  Fractional occupation disabled.
  Guess Type is SAD.
  Energy threshold   = 1.00e-10
  Density threshold  = 1.00e-10
  Integral threshold = 0.00e+00

  ==> Primary Basis <==

  Basis Set: AUG-CC-PVTZ
    Blend: AUG-CC-PVTZ
    Number of shells: 254
    Number of basis function: 782
    Number of Cartesian functions: 915
    Spherical Harmonics?: true
    Max angular momentum: 3

   => Loading Basis Set <=

    Name: (AUG-CC-PVTZ AUX)
    Role: JKFIT
    Keyword: DF_BASIS_SCF
    atoms 1-11  entry C          line   161 file /cbio/jclab/home/chayas/anaconda/envs/py35/share/psi4/basis/aug-cc-pvtz-jkfit.gbs 
    atoms 12    entry N          line   223 file /cbio/jclab/home/chayas/anaconda/envs/py35/share/psi4/basis/aug-cc-pvtz-jkfit.gbs 
    atoms 13    entry F          line   347 file /cbio/jclab/home/chayas/anaconda/envs/py35/share/psi4/basis/aug-cc-pvtz-jkfit.gbs 
    atoms 14-21 entry H          line    69 file /cbio/jclab/home/chayas/anaconda/envs/py35/share/psi4/basis/aug-cc-pvtz-jkfit.gbs 

  ==> Pre-Iterations <==

   -------------------------------------------------------
    Irrep   Nso     Nmo     Nalpha   Nbeta   Ndocc  Nsocc
   -------------------------------------------------------
     A        782     782       0       0       0       0
   -------------------------------------------------------
    Total     782     782      45      45      45       0
   -------------------------------------------------------

  ==> Integral Setup <==

  ==> DFJK: Density-Fitted J/K Matrices <==

    J tasked:                  Yes
    K tasked:                  Yes
    wK tasked:                  No
    OpenMP threads:              8
    Integrals threads:           8
    Memory (MB):              3576
    Algorithm:                Disk
    Integral Cache:           NONE
    Schwarz Cutoff:          1E-12
    Fitting Condition:       1E-12

   => Auxiliary Basis Set <=

  Basis Set: (AUG-CC-PVTZ AUX)
    Blend: AUG-CC-PVTZ-JKFIT
    Number of shells: 502
    Number of basis function: 1720
    Number of Cartesian functions: 2143
    Spherical Harmonics?: true
    Max angular momentum: 4

  Minimum eigenvalue in the overlap matrix is 6.6472744007E-07.
  Using Symmetric Orthogonalization.

  SCF Guess: Superposition of Atomic Densities via on-the-fly atomic UHF.

  ==> Iterations <==

                           Total Energy        Delta E     RMS |[F,P]|

   @DF-RHF iter   0:  -580.41066689751369   -5.80411e+02   2.27047e-02 
   @DF-RHF iter   1:  -574.93192315793999    5.47874e+00   1.95456e-03 
   @DF-RHF iter   2:  -575.23061874195139   -2.98696e-01   9.04220e-04 DIIS
   @DF-RHF iter   3:  -575.26989401869241   -3.92753e-02   3.64166e-04 DIIS
   @DF-RHF iter   4:  -575.28214511420288   -1.22511e-02   1.15092e-04 DIIS
   @DF-RHF iter   5:  -575.28323784652503   -1.09273e-03   3.50511e-05 DIIS
   @DF-RHF iter   6:  -575.28342736026593   -1.89514e-04   1.49820e-05 DIIS
   @DF-RHF iter   7:  -575.28346109917868   -3.37389e-05   7.12139e-06 DIIS
   @DF-RHF iter   8:  -575.28346453803238   -3.43885e-06   2.15453e-06 DIIS
   @DF-RHF iter   9:  -575.28346513292229   -5.94890e-07   1.03697e-06 DIIS
   @DF-RHF iter  10:  -575.28346529310545   -1.60183e-07   4.80433e-07 DIIS
   @DF-RHF iter  11:  -575.28346534803131   -5.49259e-08   1.37561e-07 DIIS
   @DF-RHF iter  12:  -575.28346535556068   -7.52937e-09   5.21279e-08 DIIS
   @DF-RHF iter  13:  -575.28346535600872   -4.48040e-10   2.14568e-08 DIIS
   @DF-RHF iter  14:  -575.28346535606681   -5.80940e-11   6.13014e-09 DIIS
   @DF-RHF iter  15:  -575.28346535607716   -1.03455e-11   3.44759e-09 DIIS
   @DF-RHF iter  16:  -575.28346535608216   -5.00222e-12   1.68105e-09 DIIS
   @DF-RHF iter  17:  -575.28346535607375    8.41283e-12   8.29639e-10 DIIS
   @DF-RHF iter  18:  -575.28346535607545   -1.70530e-12   2.17495e-10 DIIS
   @DF-RHF iter  19:  -575.28346535606750    7.95808e-12   8.35962e-11 DIIS

  ==> Post-Iterations <==

    Orbital Energies (a.u.)
    -----------------------

    Doubly Occupied:                                                      

       1A    -26.323848     2A    -15.565776     3A    -11.342164  
       4A    -11.275351     5A    -11.274103     6A    -11.266720  
       7A    -11.261621     8A    -11.258864     9A    -11.258635  
      10A    -11.255955    11A    -11.250824    12A    -11.241074  
      13A    -11.238555    14A     -1.643265    15A     -1.251007  
      16A     -1.184048    17A     -1.114066    18A     -1.038546  
      19A     -1.032439    20A     -1.025921    21A     -0.892474  
      22A     -0.872531    23A     -0.845352    24A     -0.823470  
      25A     -0.757394    26A     -0.722442    27A     -0.717774  
      28A     -0.709509    29A     -0.669468    30A     -0.661657  
      31A     -0.652551    32A     -0.625747    33A     -0.611335  
      34A     -0.599141    35A     -0.587952    36A     -0.548788  
      37A     -0.538427    38A     -0.523132    39A     -0.515780  
      40A     -0.508355    41A     -0.420023    42A     -0.402832  
      43A     -0.353165    44A     -0.349816    45A     -0.332442  

    Virtual:                                                              

      46A      0.023605    47A      0.029809    48A      0.033724  
      49A      0.038049    50A      0.043753    51A      0.046795  
      52A      0.054103    53A      0.055748    54A      0.069702  
      55A      0.079040    56A      0.084064    57A      0.086931  
      58A      0.092176    59A      0.094268    60A      0.099076  
      61A      0.103208    62A      0.106923    63A      0.108764  
      64A      0.112825    65A      0.114386    66A      0.115804  
      67A      0.119797    68A      0.120700    69A      0.128883  
      70A      0.130195    71A      0.133126    72A      0.135607  
      73A      0.137282    74A      0.143350    75A      0.145486  
      76A      0.149489    77A      0.150930    78A      0.151534  
      79A      0.159136    80A      0.163706    81A      0.169694  
      82A      0.175756    83A      0.178542    84A      0.181065  
      85A      0.187875    86A      0.199151    87A      0.203306  
      88A      0.218048    89A      0.218744    90A      0.224909  
      91A      0.231004    92A      0.233203    93A      0.234680  
      94A      0.237315    95A      0.243233    96A      0.247291  
      97A      0.249035    98A      0.253354    99A      0.258577  
     100A      0.264819   101A      0.268066   102A      0.270350  
     103A      0.272943   104A      0.281935   105A      0.283549  
     106A      0.287916   107A      0.291171   108A      0.296768  
     109A      0.300417   110A      0.305189   111A      0.310273  
     112A      0.313582   113A      0.317706   114A      0.319208  
     115A      0.321482   116A      0.325259   117A      0.329874  
     118A      0.336783   119A      0.338730   120A      0.344652  
     121A      0.347131   122A      0.356536   123A      0.359108  
     124A      0.366621   125A      0.372545   126A      0.378654  
     127A      0.379163   128A      0.385989   129A      0.392631  
     130A      0.397688   131A      0.406429   132A      0.410137  
     133A      0.415961   134A      0.421404   135A      0.425357  
     136A      0.429843   137A      0.434860   138A      0.436400  
     139A      0.437714   140A      0.441961   141A      0.446691  
     142A      0.450115   143A      0.458332   144A      0.465967  
     145A      0.468066   146A      0.470112   147A      0.475582  
     148A      0.477007   149A      0.478498   150A      0.481309  
     151A      0.485344   152A      0.490729   153A      0.491225  
     154A      0.496348   155A      0.497614   156A      0.502049  
     157A      0.507723   158A      0.510448   159A      0.513791  
     160A      0.514563   161A      0.520654   162A      0.521335  
     163A      0.526925   164A      0.527873   165A      0.533006  
     166A      0.537283   167A      0.540098   168A      0.543755  
     169A      0.548972   170A      0.549754   171A      0.557368  
     172A      0.560807   173A      0.571160   174A      0.576466  
     175A      0.579976   176A      0.586088   177A      0.590974  
     178A      0.595523   179A      0.601581   180A      0.610124  
     181A      0.611711   182A      0.626429   183A      0.631718  
     184A      0.635923   185A      0.641352   186A      0.652500  
     187A      0.655178   188A      0.667225   189A      0.676999  
     190A      0.678535   191A      0.683880   192A      0.687543  
     193A      0.694741   194A      0.702304   195A      0.704231  
     196A      0.708968   197A      0.712810   198A      0.721104  
     199A      0.724877   200A      0.730055   201A      0.734099  
     202A      0.743245   203A      0.747704   204A      0.749204  
     205A      0.753274   206A      0.762990   207A      0.766049  
     208A      0.768078   209A      0.778277   210A      0.792773  
     211A      0.795244   212A      0.801991   213A      0.805139  
     214A      0.812672   215A      0.824017   216A      0.835108  
     217A      0.843661   218A      0.850851   219A      0.852400  
     220A      0.856748   221A      0.859483   222A      0.861493  
     223A      0.871508   224A      0.875454   225A      0.877482  
     226A      0.879968   227A      0.883171   228A      0.888584  
     229A      0.891454   230A      0.899380   231A      0.902403  
     232A      0.908445   233A      0.915296   234A      0.921447  
     235A      0.923153   236A      0.932199   237A      0.935543  
     238A      0.937802   239A      0.942769   240A      0.951313  
     241A      0.954083   242A      0.961706   243A      0.964868  
     244A      0.968711   245A      0.977088   246A      0.979670  
     247A      0.982901   248A      0.985215   249A      0.993327  
     250A      1.002069   251A      1.004469   252A      1.008402  
     253A      1.012978   254A      1.013882   255A      1.021962  
     256A      1.026752   257A      1.032237   258A      1.038591  
     259A      1.042397   260A      1.053499   261A      1.055133  
     262A      1.063613   263A      1.065961   264A      1.069518  
     265A      1.074100   266A      1.075342   267A      1.078925  
     268A      1.080466   269A      1.085096   270A      1.089740  
     271A      1.094046   272A      1.108416   273A      1.109924  
     274A      1.112840   275A      1.118255   276A      1.122652  
     277A      1.125719   278A      1.134083   279A      1.138816  
     280A      1.144567   281A      1.147327   282A      1.151753  
     283A      1.160879   284A      1.163646   285A      1.171168  
     286A      1.179341   287A      1.180902   288A      1.184572  
     289A      1.190428   290A      1.199049   291A      1.200712  
     292A      1.203552   293A      1.208235   294A      1.211347  
     295A      1.224335   296A      1.230438   297A      1.234589  
     298A      1.236116   299A      1.242446   300A      1.247101  
     301A      1.253911   302A      1.259744   303A      1.269498  
     304A      1.274020   305A      1.283968   306A      1.284963  
     307A      1.290896   308A      1.294684   309A      1.306782  
     310A      1.317385   311A      1.319226   312A      1.331733  
     313A      1.333775   314A      1.347058   315A      1.349097  
     316A      1.357973   317A      1.368383   318A      1.372616  
     319A      1.378449   320A      1.382410   321A      1.392206  
     322A      1.395652   323A      1.404104   324A      1.408693  
     325A      1.421720   326A      1.425291   327A      1.440389  
     328A      1.441548   329A      1.444801   330A      1.462559  
     331A      1.474920   332A      1.479943   333A      1.489427  
     334A      1.498277   335A      1.501705   336A      1.506329  
     337A      1.509197   338A      1.527669   339A      1.540058  
     340A      1.542889   341A      1.549727   342A      1.567681  
     343A      1.568945   344A      1.582032   345A      1.589396  
     346A      1.593224   347A      1.602649   348A      1.609028  
     349A      1.623706   350A      1.628113   351A      1.644988  
     352A      1.648972   353A      1.651435   354A      1.660447  
     355A      1.670712   356A      1.677080   357A      1.680332  
     358A      1.688665   359A      1.701321   360A      1.707519  
     361A      1.714512   362A      1.721585   363A      1.723514  
     364A      1.725928   365A      1.738278   366A      1.740557  
     367A      1.755846   368A      1.757448   369A      1.767618  
     370A      1.779219   371A      1.783711   372A      1.789840  
     373A      1.805544   374A      1.808011   375A      1.811441  
     376A      1.822826   377A      1.824688   378A      1.842191  
     379A      1.855668   380A      1.860735   381A      1.869657  
     382A      1.877710   383A      1.887088   384A      1.892678  
     385A      1.903546   386A      1.914538   387A      1.919412  
     388A      1.923408   389A      1.935885   390A      1.941584  
     391A      1.954347   392A      1.957072   393A      1.964753  
     394A      1.969594   395A      1.975872   396A      1.993103  
     397A      1.999382   398A      2.003343   399A      2.006638  
     400A      2.012629   401A      2.018337   402A      2.026384  
     403A      2.035000   404A      2.048584   405A      2.050820  
     406A      2.054133   407A      2.062329   408A      2.070779  
     409A      2.080809   410A      2.092556   411A      2.093683  
     412A      2.103234   413A      2.118104   414A      2.122951  
     415A      2.128033   416A      2.129770   417A      2.144478  
     418A      2.147983   419A      2.159080   420A      2.168096  
     421A      2.175313   422A      2.194446   423A      2.198151  
     424A      2.204664   425A      2.208381   426A      2.225220  
     427A      2.239483   428A      2.247651   429A      2.252207  
     430A      2.261192   431A      2.277900   432A      2.280597  
     433A      2.285166   434A      2.293295   435A      2.314709  
     436A      2.318224   437A      2.329323   438A      2.337326  
     439A      2.341384   440A      2.352440   441A      2.361087  
     442A      2.363174   443A      2.377728   444A      2.393838  
     445A      2.403827   446A      2.411124   447A      2.428171  
     448A      2.440739   449A      2.468929   450A      2.472659  
     451A      2.476663   452A      2.507379   453A      2.517802  
     454A      2.525743   455A      2.532995   456A      2.545842  
     457A      2.556082   458A      2.566312   459A      2.577238  
     460A      2.590153   461A      2.599344   462A      2.611740  
     463A      2.635399   464A      2.653251   465A      2.662991  
     466A      2.693062   467A      2.721756   468A      2.727283  
     469A      2.754164   470A      2.766227   471A      2.768687  
     472A      2.774614   473A      2.788777   474A      2.804750  
     475A      2.831520   476A      2.846433   477A      2.874268  
     478A      2.879921   479A      2.927357   480A      2.962789  
     481A      2.997029   482A      3.012493   483A      3.043371  
     484A      3.054488   485A      3.062945   486A      3.078843  
     487A      3.110063   488A      3.128768   489A      3.155456  
     490A      3.157026   491A      3.164095   492A      3.171178  
     493A      3.180830   494A      3.192837   495A      3.199392  
     496A      3.228670   497A      3.236416   498A      3.261342  
     499A      3.276356   500A      3.289797   501A      3.305001  
     502A      3.310113   503A      3.326079   504A      3.332411  
     505A      3.343765   506A      3.357725   507A      3.373183  
     508A      3.378264   509A      3.379923   510A      3.397250  
     511A      3.413634   512A      3.422859   513A      3.425466  
     514A      3.435835   515A      3.437922   516A      3.445091  
     517A      3.466238   518A      3.469832   519A      3.479528  
     520A      3.489832   521A      3.491778   522A      3.499177  
     523A      3.509628   524A      3.521648   525A      3.528415  
     526A      3.541390   527A      3.546910   528A      3.555050  
     529A      3.559327   530A      3.570082   531A      3.572374  
     532A      3.584910   533A      3.592104   534A      3.601517  
     535A      3.615344   536A      3.616114   537A      3.629865  
     538A      3.638776   539A      3.655248   540A      3.657234  
     541A      3.666342   542A      3.669781   543A      3.680227  
     544A      3.696247   545A      3.703064   546A      3.717106  
     547A      3.722506   548A      3.734423   549A      3.747456  
     550A      3.754797   551A      3.762859   552A      3.775069  
     553A      3.777540   554A      3.790791   555A      3.793306  
     556A      3.814324   557A      3.818510   558A      3.828789  
     559A      3.834811   560A      3.842480   561A      3.850758  
     562A      3.852912   563A      3.862923   564A      3.873257  
     565A      3.876138   566A      3.880679   567A      3.885422  
     568A      3.909418   569A      3.915693   570A      3.927942  
     571A      3.930763   572A      3.940085   573A      3.949349  
     574A      3.956976   575A      3.968183   576A      3.975517  
     577A      3.986965   578A      3.996381   579A      4.005787  
     580A      4.009371   581A      4.013315   582A      4.016026  
     583A      4.029065   584A      4.047035   585A      4.049971  
     586A      4.053265   587A      4.057472   588A      4.079685  
     589A      4.081352   590A      4.096604   591A      4.102836  
     592A      4.107038   593A      4.124998   594A      4.131658  
     595A      4.139898   596A      4.140327   597A      4.156456  
     598A      4.169946   599A      4.175389   600A      4.186578  
     601A      4.202554   602A      4.215525   603A      4.223902  
     604A      4.224942   605A      4.249125   606A      4.258627  
     607A      4.267611   608A      4.269373   609A      4.289249  
     610A      4.311599   611A      4.315854   612A      4.320146  
     613A      4.323880   614A      4.334929   615A      4.346735  
     616A      4.354116   617A      4.356246   618A      4.364324  
     619A      4.369280   620A      4.379593   621A      4.388112  
     622A      4.395870   623A      4.408181   624A      4.412515  
     625A      4.418108   626A      4.432446   627A      4.439013  
     628A      4.459057   629A      4.462618   630A      4.483435  
     631A      4.486029   632A      4.496180   633A      4.509996  
     634A      4.516220   635A      4.524095   636A      4.544167  
     637A      4.562619   638A      4.587864   639A      4.595297  
     640A      4.596550   641A      4.609205   642A      4.633005  
     643A      4.655361   644A      4.674938   645A      4.680983  
     646A      4.696912   647A      4.706279   648A      4.713113  
     649A      4.716460   650A      4.743810   651A      4.751650  
     652A      4.754507   653A      4.778422   654A      4.787686  
     655A      4.809005   656A      4.822953   657A      4.840724  
     658A      4.862122   659A      4.881306   660A      4.891622  
     661A      4.900931   662A      4.939126   663A      4.949500  
     664A      4.970552   665A      4.974002   666A      4.977004  
     667A      4.990764   668A      4.996085   669A      5.010429  
     670A      5.023042   671A      5.031570   672A      5.042940  
     673A      5.048840   674A      5.063011   675A      5.080615  
     676A      5.086009   677A      5.104105   678A      5.117480  
     679A      5.129402   680A      5.135591   681A      5.157921  
     682A      5.160285   683A      5.169222   684A      5.171469  
     685A      5.190418   686A      5.200878   687A      5.205889  
     688A      5.215688   689A      5.226657   690A      5.239148  
     691A      5.260720   692A      5.280660   693A      5.304478  
     694A      5.314754   695A      5.337474   696A      5.343347  
     697A      5.353986   698A      5.370148   699A      5.380409  
     700A      5.392721   701A      5.424766   702A      5.447256  
     703A      5.454647   704A      5.463801   705A      5.489140  
     706A      5.526300   707A      5.541379   708A      5.554632  
     709A      5.571967   710A      5.580199   711A      5.641806  
     712A      5.651338   713A      5.674448   714A      5.689524  
     715A      5.703231   716A      5.755545   717A      5.764134  
     718A      5.797728   719A      5.809171   720A      5.813683  
     721A      5.847372   722A      5.866276   723A      5.887964  
     724A      5.909299   725A      5.954447   726A      6.002239  
     727A      6.044808   728A      6.082323   729A      6.119462  
     730A      6.177054   731A      6.179987   732A      6.204973  
     733A      6.243310   734A      6.248654   735A      6.301622  
     736A      6.312928   737A      6.333333   738A      6.378922  
     739A      6.403747   740A      6.483484   741A      6.510601  
     742A      6.535646   743A      6.582570   744A      6.658225  
     745A      6.702088   746A      6.712801   747A      6.728883  
     748A      6.823011   749A      6.871557   750A      6.933886  
     751A      6.980949   752A      7.017928   753A      7.062564  
     754A      7.084092   755A      7.299982   756A      7.423691  
     757A      7.476268   758A      9.049533   759A      9.071486  
     760A      9.269286   761A      9.290028   762A      9.416664  
     763A      9.524193   764A      9.556060   765A      9.616479  
     766A      9.652452   767A      9.721121   768A     10.031310  
     769A     10.089397   770A     15.552637   771A     16.187965  
     772A     16.516499   773A     16.611984   774A     16.653978  
     775A     18.432739   776A     18.665965   777A     19.061087  
     778A     19.293778   779A     20.098426   780A     20.208073  
     781A     20.269230   782A     21.853394  

    Final Occupation by Irrep:
              A 
    DOCC [    45 ]

  Energy converged.

  @DF-RHF Final Energy:  -575.28346535606750

   => Energetics <=

    Nuclear Repulsion Energy =            716.5534407529888767
    One-Electron Energy =               -2204.9851346782916153
    Two-Electron Energy =                 913.1482285692351297
    DFT Exchange-Correlation Energy =       0.0000000000000000
    Empirical Dispersion Energy =           0.0000000000000000
    PCM Polarization Energy =               0.0000000000000000
    EFP Energy =                            0.0000000000000000
    Total Energy =                       -575.2834653560674951



Properties will be evaluated at   0.000000,   0.000000,   0.000000 Bohr

Properties computed using the SCF density matrix

  Nuclear Dipole Moment: (a.u.)
     X:     1.0836      Y:    -0.3993      Z:    -6.2027

  Electronic Dipole Moment: (a.u.)
     X:    -1.8817      Y:     0.8589      Z:     5.0638

  Dipole Moment: (a.u.)
     X:    -0.7981      Y:     0.4596      Z:    -1.1389     Total:     1.4647

  Dipole Moment: (Debye)
     X:    -2.0286      Y:     1.1683      Z:    -2.8949     Total:     3.7230


*** tstop() called on gpu-2-6.local at Sat Nov 11 18:20:11 2017
Module time:
	user time   =    1082.26 seconds =      18.04 minutes
	system time =      46.63 seconds =       0.78 minutes
	total time  =        432 seconds =       7.20 minutes
Total time:
	user time   =    1082.26 seconds =      18.04 minutes
	system time =      46.63 seconds =       0.78 minutes
	total time  =        432 seconds =       7.20 minutes

  //>>>>>>>>>>>>>>>>>>>>>>>>>>>>>>>>>>>//
  //               DFMP2               //
  //<<<<<<<<<<<<<<<<<<<<<<<<<<<<<<<<<<<//

   => Loading Basis Set <=

    Name: (AUG-CC-PVTZ AUX)
    Role: RIFIT
    Keyword: DF_BASIS_MP2
    atoms 1-11  entry C          line   147 file /cbio/jclab/home/chayas/anaconda/envs/py35/share/psi4/basis/aug-cc-pvtz-ri.gbs 
    atoms 12    entry N          line   205 file /cbio/jclab/home/chayas/anaconda/envs/py35/share/psi4/basis/aug-cc-pvtz-ri.gbs 
    atoms 13    entry F          line   321 file /cbio/jclab/home/chayas/anaconda/envs/py35/share/psi4/basis/aug-cc-pvtz-ri.gbs 
    atoms 14-21 entry H          line    29 file /cbio/jclab/home/chayas/anaconda/envs/py35/share/psi4/basis/aug-cc-pvtz-ri.gbs 

	 --------------------------------------------------------
	                          DF-MP2                         
	      2nd-Order Density-Fitted Moller-Plesset Theory     
	              RMP2 Wavefunction,   8 Threads             
	                                                         
	        Rob Parrish, Justin Turney, Andy Simmonett,      
	           Ed Hohenstein, and C. David Sherrill          
	 --------------------------------------------------------

   => Auxiliary Basis Set <=

  Basis Set: (AUG-CC-PVTZ AUX)
    Blend: AUG-CC-PVTZ-RI
    Number of shells: 476
    Number of basis function: 1746
    Number of Cartesian functions: 2208
    Spherical Harmonics?: true
    Max angular momentum: 4

	 --------------------------------------------------------
	                 NBF =   782, NAUX =  1746
	 --------------------------------------------------------
	   CLASS    FOCC     OCC    AOCC    AVIR     VIR    FVIR
	   PAIRS       0      45      45     737     737       0
	 --------------------------------------------------------


         ------------------------------------------------------------
                                     CPHF                           
                                  Rob Parrish                       
         ------------------------------------------------------------

  ==> Geometry <==

    Molecular point group: c1
    Full point group: C1

    Geometry (in Angstrom), charge = 0, multiplicity = 1:

       Center              X                  Y                   Z               Mass       
    ------------   -----------------  -----------------  -----------------  -----------------
           C         -1.369139791874     0.840163592290    -2.663459389294    12.000000000000
           C         -2.447139791874     1.413163592290    -1.990459389294    12.000000000000
           C         -0.333139791874     0.245163592290    -1.943459389294    12.000000000000
           C         -2.490139791874     1.392163592290    -0.596459389294    12.000000000000
           C          2.023860208126    -0.140836407710    -0.153459389294    12.000000000000
           C          0.417860208126    -1.241836407710     1.258540610706    12.000000000000
           C          3.017860208126    -0.755836407710     0.590540610706    12.000000000000
           C          1.483860208126    -1.806836407710     1.938540610706    12.000000000000
           C         -0.376139791874     0.224163592290    -0.549459389294    12.000000000000
           C          0.700860208126    -0.393836407710     0.193540610706    12.000000000000
           C         -1.454139791874     0.797163592290     0.124540610706    12.000000000000
           N          2.781860208126    -1.584836407710     1.631540610706    14.003074004780
           F         -1.510139791874     0.787163592290     1.464540610706    18.998403224000
           H         -1.336139791874     0.856163592290    -3.749459389294     1.007825032070
           H         -3.254139791874     1.876163592290    -2.551459389294     1.007825032070
           H          0.500860208126    -0.196836407710    -2.483459389294     1.007825032070
           H         -3.330139791874     1.838163592290    -0.071459389294     1.007825032070
           H          2.284860208126     0.516163592290    -0.976459389294     1.007825032070
           H         -0.602139791874    -1.462836407710     1.557540610706     1.007825032070
           H          4.065860208126    -0.588836407710     0.361540610706     1.007825032070
           H          1.315860208126    -2.476836407710     2.775540610706     1.007825032070

  Nuclear repulsion =  716.553440752988877
  Reference energy  = -575.283465356067495

  ==> Basis Set <==

  Basis Set: AUG-CC-PVTZ
    Blend: AUG-CC-PVTZ
    Number of shells: 254
    Number of basis function: 782
    Number of Cartesian functions: 915
    Spherical Harmonics?: true
    Max angular momentum: 3

  ==> CGRSolver (by Rob Parrish) <==

   Number of roots    =         1
   Preconditioning    =    JACOBI
   Convergence cutoff =     1E-06
   Maximum iterations =       100

  ==> CPHFRHamiltonian (by Rob Parrish) <== 

  ==> DFJK: Density-Fitted J/K Matrices <==

    J tasked:                  Yes
    K tasked:                  Yes
    wK tasked:                  No
    OpenMP threads:              8
    Integrals threads:           8
    Memory (MB):              3576
    Algorithm:                Disk
    Integral Cache:           NONE
    Schwarz Cutoff:          1E-12
    Fitting Condition:       1E-12

   => Auxiliary Basis Set <=

  Basis Set: (AUG-CC-PVTZ AUX)
    Blend: AUG-CC-PVTZ-JKFIT
    Number of shells: 502
    Number of basis function: 1720
    Number of Cartesian functions: 2143
    Spherical Harmonics?: true
    Max angular momentum: 4

  ==> CPHF Iterations <==

  => Iterations <=

             Iter  Converged  Remaining    Residual
  CGR           1          0          1   9.757E-02
  CGR           2          0          1   2.978E-02
  CGR           3          0          1   1.933E-02
  CGR           4          0          1   9.542E-03
  CGR           5          0          1   3.746E-03
  CGR           6          0          1   1.385E-03
  CGR           7          0          1   4.144E-04
  CGR           8          0          1   1.540E-04
  CGR           9          0          1   7.213E-05
  CGR          10          0          1   3.360E-05
  CGR          11          0          1   1.403E-05
  CGR          12          0          1   4.721E-06
  CGR          13          0          1   1.561E-06
  CGR          14          1          0   5.427E-07

    CGRSolver converged.

  ==> DFCorrGrad: Density-Fitted Correlated Gradients <==

    OpenMP threads:              8
    Integrals threads:           8
    Memory (MB):              3576
    Schwarz Cutoff:          0E+00
    Fitting Condition:       1E-12

   => Auxiliary Basis Set <=

  Basis Set: (AUG-CC-PVTZ AUX)
    Blend: AUG-CC-PVTZ-JKFIT
    Number of shells: 502
    Number of basis function: 1720
    Number of Cartesian functions: 2143
    Spherical Harmonics?: true
    Max angular momentum: 4

	-----------------------------------------------------------
	 ==================> DF-MP2 Energies <==================== 
	-----------------------------------------------------------
	 Reference Energy          =    -575.2834653560674951 [Eh]
	 Singles Energy            =      -0.0000000000000023 [Eh]
	 Same-Spin Energy          =      -0.6083652991226004 [Eh]
	 Opposite-Spin Energy      =      -1.8326030785018230 [Eh]
	 Correlation Energy        =      -2.4409683776244258 [Eh]
	 Total Energy              =    -577.7244337336919671 [Eh]
	-----------------------------------------------------------
	 ================> DF-SCS-MP2 Energies <================== 
	-----------------------------------------------------------
	 SCS Same-Spin Scale       =       0.3333333333333333 [-]
	 SCS Opposite-Spin Scale   =       1.2000000000000000 [-]
	 SCS Same-Spin Energy      =      -0.2027884330408668 [Eh]
	 SCS Opposite-Spin Energy  =      -2.1991236942021875 [Eh]
	 SCS Correlation Energy    =      -2.4019121272430564 [Eh]
	 SCS Total Energy          =    -577.6853774833105035 [Eh]
	-----------------------------------------------------------


  -Total Gradient:
     Atom            X                  Y                   Z
    ------   -----------------  -----------------  -----------------
       1       -0.001701537675     0.000553126119     0.000734831731
       2       -0.003810107717     0.002052498490    -0.002018593687
       3        0.011505673124    -0.009315749778     0.006401370532
       4        0.000657449317    -0.000225017652    -0.004737389395
       5       -0.002647643265     0.006388072893    -0.005028882869
       6       -0.007261221132     0.001957496933    -0.003302058838
       7       -0.003702092932     0.008503817796    -0.009658257915
       8       -0.013436248774     0.001660457479    -0.000953786709
       9       -0.000261359342     0.000581766841    -0.002663582733
      10        0.000896019004    -0.001323922467    -0.000804208968
      11        0.011632064859    -0.004295125592     0.024583292325
      12        0.012786644784    -0.007616181928     0.008710580347
      13       -0.000951923179    -0.001339821514     0.001723160441
      14        0.000291900249     0.000280131360    -0.005346132300
      15       -0.003499796600     0.002201462110    -0.003851373975
      16        0.003486175846    -0.000544461679    -0.006321074610
      17       -0.005062074588     0.002445434722     0.000870515448
      18        0.002813369449     0.001500600274    -0.003589594256
      19       -0.005287209560    -0.001552748929     0.002902672477
      20        0.003278385424    -0.000029399773    -0.000146611689
      21        0.000273532713    -0.001882435701     0.002495124638


*** tstop() called on gpu-2-6.local at Sat Nov 11 18:49:16 2017
Module time:
	user time   =    5446.41 seconds =      90.77 minutes
	system time =     108.13 seconds =       1.80 minutes
	total time  =       2177 seconds =      36.28 minutes
Total time:
	user time   =    5446.41 seconds =      90.77 minutes
	system time =     108.13 seconds =       1.80 minutes
	total time  =       2177 seconds =      36.28 minutes

			-----------------------------------------
			 OPTKING 2.0: for geometry optimizations 
			  - R.A. King,  Bethel University        
			-----------------------------------------

	Internal coordinates to be generated automatically.
	Detected frag 1 with atoms:  1 2 3 4 5 6 7 8 9 10 11 12 13 14 15 16 17 18 19 20
	 21
	---Fragment 1 Bond Connectivity---
	 1 : 2 3 14
	 2 : 1 4 15
	 3 : 1 9 16
	 4 : 2 11 17
	 5 : 7 10 18
	 6 : 8 10 19
	 7 : 5 12 20
	 8 : 6 12 21
	 9 : 3 10 11
	 10 : 5 6 9
	 11 : 4 9 13
	 12 : 7 8
	 13 : 11
	 14 : 1
	 15 : 2
	 16 : 3
	 17 : 4
	 18 : 5
	 19 : 6
	 20 : 7
	 21 : 8

	Assuming in current code that numbering for constraints corresponds to unified fragment.
	Fixed dihedral atom list: 
	     3     9    10     5
	---Fragment 1 Geometry and Gradient---
	 C          -2.5872992443        1.5876790962       -5.0332088118
	 C          -4.6244240155        2.6704921704       -3.7614231244
	 C          -0.6295429706        0.4632920472       -3.6726059962
	 C          -4.7056822392        2.6308079216       -1.1271448952
	 C           3.8245415246       -0.2661422401       -0.2899962183
	 C           0.7896413552       -2.3467307124        2.3782970813
	 C           5.7029293007       -1.4283238118        1.1159600246
	 C           2.8040894128       -3.4144259775        3.6633108517
	 C          -0.7108011943        0.4236077984       -1.0383277669
	 C           1.3244338508       -0.7442429517        0.3657387498
	 C          -2.7479259656        1.5064208725        0.2353476467
	 N           5.2569539333       -2.9949067760        3.0831649289
	 F          -2.8537506290        1.4875236112        2.7675806647
	 H          -2.5249382819        1.6179147144       -7.0854513921
	 H          -6.1494330048        3.5454353699       -4.8215594849
	 H           0.9464886242       -0.3719669036       -4.6930581079
	 H          -6.2930521909        3.4736257769       -0.1350386754
	 H           4.3177600453        0.9754078292       -1.8452408256
	 H          -1.1378793004       -2.7643601878        2.9433251951
	 H           7.6833622880       -1.1127395476        0.6832127402
	 H           2.4866154225       -4.6805424865        5.2450116249
	            -0.0017015377        0.0005531261        0.0007348317
	            -0.0038101077        0.0020524985       -0.0020185937
	             0.0115056731       -0.0093157498        0.0064013705
	             0.0006574493       -0.0002250177       -0.0047373894
	            -0.0026476433        0.0063880729       -0.0050288829
	            -0.0072612211        0.0019574969       -0.0033020588
	            -0.0037020929        0.0085038178       -0.0096582579
	            -0.0134362488        0.0016604575       -0.0009537867
	            -0.0002613593        0.0005817668       -0.0026635827
	             0.0008960190       -0.0013239225       -0.0008042090
	             0.0116320649       -0.0042951256        0.0245832923
	             0.0127866448       -0.0076161819        0.0087105803
	            -0.0009519232       -0.0013398215        0.0017231604
	             0.0002919002        0.0002801314       -0.0053461323
	            -0.0034997966        0.0022014621       -0.0038513740
	             0.0034861758       -0.0005444617       -0.0063210746
	            -0.0050620746        0.0024454347        0.0008705154
	             0.0028133694        0.0015006003       -0.0035895943
	            -0.0052872096       -0.0015527489        0.0029026725
	             0.0032783854       -0.0000293998       -0.0001466117
	             0.0002735327       -0.0018824357        0.0024951246

	Previous optimization step data not found.  Starting new optimization.

	---Fragment 1 Intrafragment Coordinates---
	 - Coordinate -           - BOHR/RAD -       - ANG/DEG -
	 R(1,2)           =         2.634350	       1.394038
	 R(1,3)           =         2.635962	       1.394891
	 R(1,14)          =         2.053412	       1.086619
	 R(2,4)           =         2.635830	       1.394821
	 R(2,15)          =         2.053063	       1.086434
	 R(3,9)           =         2.635830	       1.394821
	 R(3,16)          =         2.054959	       1.087437
	 R(4,11)          =         2.636938	       1.395407
	 R(4,17)          =         2.052891	       1.086343
	 R(5,7)           =         2.618343	       1.385567
	 R(5,10)          =         2.628518	       1.390952
	 R(5,18)          =         2.050243	       1.084942
	 R(6,8)           =         2.617104	       1.384912
	 R(6,10)          =         2.627615	       1.390474
	 R(6,19)          =         2.051586	       1.085653
	 R(7,12)          =         2.554011	       1.351524
	 R(7,20)          =         2.051580	       1.085649
	 R(8,12)          =         2.555212	       1.352160
	 R(8,21)          =         2.050760	       1.085216
	 R(9,10)          =         2.734494	       1.447032
	 R(9,11)          =         2.635263	       1.394521
	 R(11,13)         =         2.534514	       1.341207
	 B(1,2,4)         =         2.094553	     120.009056
	 B(1,2,15)        =         2.094721	     120.018646
	 B(1,3,9)         =         2.093692	     119.959722
	 B(1,3,16)        =         2.079074	     119.122177
	 B(2,1,3)         =         2.094940	     120.031219
	 B(2,1,14)        =         2.094311	     119.995189
	 B(2,4,11)        =         2.094306	     119.994870
	 B(2,4,17)        =         2.095140	     120.042665
	 B(3,1,14)        =         2.093934	     119.973570
	 B(3,9,10)        =         2.090528	     119.778448
	 B(3,9,11)        =         2.095181	     120.045019
	 B(4,2,15)        =         2.093912	     119.972298
	 B(4,11,9)        =         2.093699	     119.960108
	 B(4,11,13)       =         2.081063	     119.236128
	 B(5,7,12)        =         2.165881	     124.095814
	 B(5,7,20)        =         2.107117	     120.728883
	 B(5,10,6)        =         2.089308	     119.708530
	 B(5,10,9)        =         2.096875	     120.142101
	 B(6,8,12)        =         2.165704	     124.085691
	 B(6,8,21)        =         2.107629	     120.758219
	 B(6,10,9)        =         2.097001	     120.149319
	 B(7,5,10)        =         2.057437	     117.882433
	 B(7,5,18)        =         2.098473	     120.233661
	 B(7,12,8)        =         2.029971	     116.308759
	 B(8,6,10)        =         2.058071	     117.918755
	 B(8,6,19)        =         2.100063	     120.324756
	 B(9,3,16)        =         2.110419	     120.918077
	 B(9,11,13)       =         2.108422	     120.803676
	 B(10,5,18)       =         2.127274	     121.883798
	 B(10,6,19)       =         2.125051	     121.756481
	 B(10,9,11)       =         2.097476	     120.176533
	 B(11,4,17)       =         2.093740	     119.962450
	 B(12,7,20)       =         2.010184	     115.175061
	 B(12,8,21)       =         2.009852	     115.156023
	 D(1,2,4,11)      =        -0.000325	      -0.018609
	 D(1,2,4,17)      =        -3.141151	    -179.974682
	 D(1,3,9,10)      =        -3.141334	    -179.985190
	 D(1,3,9,11)      =         0.000325	       0.018608
	 D(2,1,3,9)       =        -0.000348	      -0.019945
	 D(2,1,3,16)      =        -3.140969	    -179.964243
	 D(2,4,11,9)      =         0.000301	       0.017261
	 D(2,4,11,13)     =         3.140029	     179.910408
	 D(3,1,2,4)       =         0.000348	       0.019955
	 D(3,1,2,15)      =        -3.141142	    -179.974167
	 D(3,9,10,5)      =         0.785350	      44.997227
	 D(3,9,10,6)      =        -2.357663	    -135.084155
	 D(3,9,11,4)      =        -0.000301	      -0.017270
	 D(3,9,11,13)     =        -3.139999	    -179.908714
	 D(4,2,1,14)      =         3.141002	     179.966134
	 D(4,11,9,10)     =         3.141358	     179.986543
	 D(5,7,12,8)      =         0.000843	       0.048311
	 D(5,10,6,8)      =         0.000028	       0.001597
	 D(5,10,6,19)     =        -3.140979	    -179.964844
	 D(5,10,9,11)     =        -2.356309	    -135.006576
	 D(6,8,12,7)      =        -0.000785	      -0.044987
	 D(6,10,5,7)      =         0.000024	       0.001372
	 D(6,10,5,18)     =        -3.139482	    -179.879071
	 D(6,10,9,11)     =         0.783863	      44.912042
	 D(7,5,10,9)      =         3.140202	     179.920349
	 D(7,12,8,21)     =         3.139163	     179.860797
	 D(8,6,10,9)      =        -3.140151	    -179.917374
	 D(8,12,7,20)     =         3.139317	     179.869632
	 D(9,3,1,14)      =        -3.141002	    -179.966136
	 D(9,10,5,18)     =         0.000697	       0.039907
	 D(9,10,6,19)     =         0.002028	       0.116184
	 D(9,11,4,17)     =         3.141128	     179.973370
	 D(10,5,7,12)     =        -0.000485	      -0.027789
	 D(10,5,7,20)     =        -3.138794	    -179.839668
	 D(10,6,8,12)     =         0.000373	       0.021362
	 D(10,6,8,21)     =        -3.139488	    -179.879399
	 D(10,9,3,16)     =        -0.000731	      -0.041910
	 D(10,9,11,13)    =         0.001660	       0.095099
	 D(11,4,2,15)     =         3.141165	     179.975516
	 D(11,9,3,16)     =         3.140927	     179.961888
	 D(12,7,5,18)     =         3.139057	     179.854710
	 D(12,8,6,19)     =         3.141389	     179.988305
	 D(13,11,4,17)    =        -0.002330	      -0.133484
	 D(14,1,2,15)     =        -0.000488	      -0.027988
	 D(14,1,3,16)     =         0.001563	       0.089566
	 D(15,2,4,17)     =         0.000339	       0.019443
	 D(18,5,7,20)     =         0.000748	       0.042830
	 D(19,6,8,21)     =         0.001528	       0.087544
	 R(6,13)          =         5.303523	       2.806503

	Current energy   :      -577.7244337337

	Generating empirical Hessian (Schlegel '84) for each fragment.
	Adding user-defined constraint: Fragment 1; Coordinate 67:
		Value =     0.785350; Fixed value    =     0.785398
		Force =     0.000024; Force constant =     0.500000
	Removing off-diagonal coupling between coordinate 67 and others.
	Taking RFO optimization step.
	Going to follow RFO solution 1.
	Using RFO vector 1.

	Determining step-restricting scale parameter for RS-RFO.
	Maximum step size allowed    0.10000

	 Iter      |step|        alpha        rfo_root  
	------------------------------------------------
	    0     0.17891       1.00000           1
	    1     0.14152       5.61314           1
	    2     0.11700      15.37784           1
	    3     0.10384      25.84400           1
	    4     0.10025      29.71551           1
	    5     0.10000      30.00949           1
	------------------------------------------------
	Norm of target step-size    0.10000
	Projected energy change by RFO approximation:        -0.0043798185

	Back-transformation to cartesian coordinates...
	Could not converge backtransformation.
	Using first guess instead.

	--- Internal Coordinate Step in ANG or DEG, aJ/ANG or AJ/DEG ---
	 ---------------------------------------------------------------------------
	   Coordinate                Previous        Force       Change         New 
	   ----------                --------       ------       ------       ------
	    1 R(1,2)          =      1.394038    -0.045628    -0.004972     1.389067
	    2 R(1,3)          =      1.394891    -0.057099    -0.006099     1.388792
	    3 R(1,14)         =      1.086619    -0.044126    -0.005892     1.080727
	    4 R(2,4)          =      1.394821    -0.066721    -0.007353     1.387469
	    5 R(2,15)         =      1.086434    -0.045532    -0.006049     1.080385
	    6 R(3,9)          =      1.394821    -0.019912    -0.001866     1.392955
	    7 R(3,16)         =      1.087437    -0.049710    -0.006637     1.080800
	    8 R(4,11)         =      1.395407    -0.109935    -0.011865     1.383542
	    9 R(4,17)         =      1.086343    -0.043987    -0.005746     1.080597
	   10 R(5,7)          =      1.385567     0.000615     0.000033     1.385600
	   11 R(5,10)         =      1.390952    -0.014347    -0.000970     1.389982
	   12 R(5,18)         =      1.084942    -0.035497    -0.004722     1.080220
	   13 R(6,8)          =      1.384912     0.003354     0.000360     1.385272
	   14 R(6,10)         =      1.390474    -0.008829    -0.000364     1.390110
	   15 R(6,19)         =      1.085653    -0.050115    -0.006679     1.078974
	   16 R(7,12)         =      1.351524    -0.119272    -0.011679     1.339845
	   17 R(7,20)         =      1.085649    -0.026292    -0.003502     1.082147
	   18 R(8,12)         =      1.352160    -0.117226    -0.011496     1.340665
	   19 R(8,21)         =      1.085216    -0.025080    -0.003329     1.081886
	   20 R(9,10)         =      1.447032     0.120904     0.015419     1.462451
	   21 R(9,11)         =      1.394521    -0.052812    -0.005202     1.389319
	   22 R(11,13)        =      1.341207    -0.017171    -0.001495     1.339712
	   23 B(1,2,4)        =    120.009056     0.000039     0.068236   120.077292
	   24 B(1,2,15)       =    120.018646     0.000072     0.205885   120.224531
	   25 B(1,3,9)        =    119.959722     0.000317     0.747248   120.706970
	   26 B(1,3,16)       =    119.122177     0.000144     0.417930   119.540107
	   27 B(2,1,3)        =    120.031219    -0.000081    -0.149999   119.881220
	   28 B(2,1,14)       =    119.995189     0.000039     0.071445   120.066635
	   29 B(2,4,11)       =    119.994870    -0.000274    -0.619249   119.375621
	   30 B(2,4,17)       =    120.042665     0.000289     0.706806   120.749471
	   31 B(3,1,14)       =    119.973570     0.000042     0.078477   120.052046
	   32 B(3,9,10)       =    119.778448     0.000623     1.142084   120.920532
	   33 B(3,9,11)       =    120.045019    -0.000835    -1.681548   118.363471
	   34 B(4,2,15)       =    119.972298    -0.000111    -0.274132   119.698166
	   35 B(4,11,9)       =    119.960108     0.000834     1.635185   121.595293
	   36 B(4,11,13)      =    119.236128    -0.000109    -0.277869   118.958258
	   37 B(5,7,12)       =    124.095814    -0.000034    -0.154954   123.940859
	   38 B(5,7,20)       =    120.728883    -0.000042    -0.078602   120.650280
	   39 B(5,10,6)       =    119.708530    -0.000857    -1.613643   118.094888
	   40 B(5,10,9)       =    120.142101     0.000418     0.727483   120.869584
	   41 B(6,8,12)       =    124.085691     0.000002    -0.063358   124.022333
	   42 B(6,8,21)       =    120.758219    -0.000060    -0.122043   120.636176
	   43 B(6,10,9)       =    120.149319     0.000440     0.886124   121.035442
	   44 B(7,5,10)       =    117.882433     0.000397     0.923742   118.806175
	   45 B(7,5,18)       =    120.233661    -0.000054    -0.086440   120.147221
	   46 B(7,12,8)       =    116.308759     0.000157     0.106700   116.415460
	   47 B(8,6,10)       =    117.918755     0.000335     0.801350   118.720105
	   48 B(8,6,19)       =    120.324756    -0.000072    -0.150274   120.174482
	   49 B(9,3,16)       =    120.918077    -0.000461    -1.165336   119.752741
	   50 B(9,11,13)      =    120.803676    -0.000725    -1.358236   119.445440
	   51 B(10,5,18)      =    121.883798    -0.000343    -0.837696   121.046101
	   52 B(10,6,19)      =    121.756481    -0.000264    -0.651559   121.104922
	   53 B(10,9,11)      =    120.176533     0.000212     0.539437   120.715970
	   54 B(11,4,17)      =    119.962450    -0.000015    -0.087544   119.874907
	   55 B(12,7,20)      =    115.175061     0.000077     0.233292   115.408352
	   56 B(12,8,21)      =    115.156023     0.000058     0.185404   115.341427
	   57 D(1,2,4,11)     =     -0.018609    -0.000002    -0.038007    -0.056616
	   58 D(1,2,4,17)     =   -179.974682    -0.000003    -0.067516  -180.042198
	   59 D(1,3,9,10)     =   -179.985190    -0.000000    -0.024532  -180.009722
	   60 D(1,3,9,11)     =      0.018608     0.000001     0.032093     0.050701
	   61 D(2,1,3,9)      =     -0.019945     0.000002     0.042675     0.022730
	   62 D(2,1,3,16)     =   -179.964243    -0.000007    -0.168479  -180.132722
	   63 D(2,4,11,9)     =      0.017261     0.000005     0.116558     0.133819
	   64 D(2,4,11,13)    =    179.910408    -0.000006    -0.144020   179.766388
	   65 D(3,1,2,4)      =      0.019955    -0.000002    -0.040035    -0.020081
	   66 D(3,1,2,15)     =   -179.974167    -0.000000    -0.008398  -179.982565
	   67 D(3,9,10,5)     =     44.997227    -0.000008    -0.070218    44.927008
	   68 D(3,9,10,6)     =   -135.084155    -0.000009    -0.097221  -135.181376
	   69 D(3,9,11,4)     =     -0.017270    -0.000005    -0.112793    -0.130063
	   70 D(3,9,11,13)    =   -179.908714     0.000006     0.147832  -179.760882
	   71 D(4,2,1,14)     =    179.966134    -0.000004    -0.100812   179.865322
	   72 D(4,11,9,10)    =    179.986543    -0.000003    -0.056312   179.930231
	   73 D(5,7,12,8)     =      0.048311    -0.000000    -0.003089     0.045223
	   74 D(5,10,6,8)     =      0.001597    -0.000007    -0.146544    -0.144947
	   75 D(5,10,6,19)    =   -179.964844     0.000003     0.074666  -179.890178
	   76 D(5,10,9,11)    =   -135.006576    -0.000010    -0.128261  -135.134837
	   77 D(6,8,12,7)     =     -0.044987    -0.000002    -0.047428    -0.092415
	   78 D(6,10,5,7)     =      0.001372     0.000005     0.101080     0.102452
	   79 D(6,10,5,18)    =   -179.879071     0.000011     0.239043  -179.640028
	   80 D(6,10,9,11)    =     44.912042    -0.000011    -0.155264    44.756779
	   81 D(7,5,10,9)     =    179.920349     0.000004     0.076829   179.997178
	   82 D(7,12,8,21)    =    179.860797    -0.000002    -0.045013   179.815784
	   83 D(8,6,10,9)     =   -179.917374    -0.000006    -0.122116  -180.039490
	   84 D(8,12,7,20)    =    179.869632    -0.000004    -0.082951   179.786680
	   85 D(9,3,1,14)     =   -179.966136     0.000005     0.103446  -179.862689
	   86 D(9,10,5,18)    =      0.039907     0.000010     0.214792     0.254699
	   87 D(9,10,6,19)    =      0.116184     0.000004     0.099095     0.215279
	   88 D(9,11,4,17)    =    179.973370     0.000006     0.146160   180.119529
	   89 D(10,5,7,12)    =     -0.027789    -0.000001    -0.026071    -0.053860
	   90 D(10,5,7,20)    =   -179.839668     0.000002     0.057268  -179.782401
	   91 D(10,6,8,12)    =      0.021362     0.000006     0.124682     0.146045
	   92 D(10,6,8,21)    =   -179.879399     0.000006     0.121869  -179.757529
	   93 D(10,9,3,16)    =     -0.041910     0.000009     0.187969     0.146060
	   94 D(10,9,11,13)   =      0.095099     0.000007     0.204313     0.299412
	   95 D(11,4,2,15)    =    179.975516    -0.000003    -0.069449   179.906067
	   96 D(11,9,3,16)    =    179.961888     0.000011     0.244594   180.206482
	   97 D(12,7,5,18)    =    179.854710    -0.000007    -0.163712   179.690998
	   98 D(12,8,6,19)    =    179.988305    -0.000004    -0.094590   179.893715
	   99 D(13,11,4,17)   =     -0.133484    -0.000004    -0.114418    -0.247902
	  100 D(14,1,2,15)    =     -0.027988    -0.000003    -0.069175    -0.097163
	  101 D(14,1,3,16)    =      0.089566    -0.000005    -0.107708    -0.018142
	  102 D(15,2,4,17)    =      0.019443    -0.000004    -0.098958    -0.079515
	  103 D(18,5,7,20)    =      0.042830    -0.000004    -0.080373    -0.037543
	  104 D(19,6,8,21)    =      0.087544    -0.000004    -0.097403    -0.009859
	  105 R(6,13)         =      2.806503     0.026658     0.010245     2.816748
	 ---------------------------------------------------------------------------
	Successfully symmetrized geometry.
	 Forces used to impose fixed constraints are not included.
	  Forces zeroed: 67 

  ==> Convergence Check <==

  Measures of convergence in internal coordinates in au.
  Criteria marked as inactive (o), active & met (*), and active & unmet ( ).
  --------------------------------------------------------------------------------------------- ~
   Step     Total Energy     Delta E     MAX Force     RMS Force      MAX Disp      RMS Disp    ~
  --------------------------------------------------------------------------------------------- ~
    Convergence Criteria    1.00e-06 *    3.00e-04 *             o    1.20e-03 *             o  ~
  --------------------------------------------------------------------------------------------- ~
      1    -577.72443373   -5.78e+02      1.47e-02      4.36e-03 o    2.93e-02      9.77e-03 o  ~
  ---------------------------------------------------------------------------------------------

	Writing optimization data to binary file.
	Structure for next step:
	Cartesian Geometry (in Angstrom)
	    C    -1.3874150035   0.8506871020  -2.6707694072
	    C    -2.4592568559   1.4198438634  -1.9949577625
	    C    -0.3546952030   0.2580612878  -1.9559068665
	    C    -2.4986431883   1.3961683005  -0.6082504020
	    C     2.0337445815  -0.1560383554  -0.1347363315
	    C     0.4378186248  -1.2435760308   1.2633483194
	    C     3.0274800032  -0.7686348041   0.6116572214
	    C     1.5020969030  -1.8084217581   1.9468975757
	    C    -0.3800982260   0.2264296312  -0.5635429331
	    C     0.7047614128  -0.3965722270   0.1938938379
	    C    -1.4632353752   0.8007589650   0.0900380729
	    N     2.7895237156  -1.5883141132   1.6444633516
	    F    -1.5074856250   0.7868033168   1.4289466791
	    H    -1.3579725837   0.8673007491  -3.7509676904
	    H    -3.2657598080   1.8820810916  -2.5455228005
	    H     0.4755471249  -0.1850327000  -2.4874091282
	    H    -3.3268245686   1.8362425525  -0.0714629118
	    H     2.2955576734   0.4986315605  -0.9531100193
	    H    -0.5758159889  -1.4653174875   1.5592527774
	    H     4.0718353360  -0.5995930004   0.3840858460
	    H     1.3299014214  -2.4750725057   2.7814053966
			--------------------------
			 OPTKING Finished Execution 
			--------------------------

    Structure for next step:
    Molecular point group: c1
    Full point group: C1

    Geometry (in Angstrom), charge = 0, multiplicity = 1:

    C           -1.387510237391     0.850610542933    -2.666053201646
    C           -2.459352089760     1.419767304308    -1.990241556948
    C           -0.354790436886     0.257984728775    -1.951190660938
    C           -2.498738422153     1.396091741444    -0.603534196424
    C            2.033649347572    -0.156114914446    -0.130020125897
    C            0.437723390933    -1.243652589795     1.268064524961
    C            3.027384769340    -0.768711363131     0.616373427006
    C            1.502001669098    -1.808498317160     1.951613781317
    C           -0.380193459888     0.226353072154    -0.558826727501
    C            0.704666178959    -0.396648786074     0.198610043501
    C           -1.463330609040     0.800682405974     0.094754278490
    N            2.789428481706    -1.588390672282     1.649179557235
    F           -1.507580858845     0.786726757761     1.433662884678
    H           -1.358067817626     0.867224190014    -3.746251484814
    H           -3.265855041928     1.882004532521    -2.540806594885
    H            0.475451891051    -0.185109259081    -2.482692922565
    H           -3.326919802510     1.836165993494    -0.066746706229
    H            2.295462439568     0.498555001430    -0.948393813752
    H           -0.575911222773    -1.465394046524     1.563968983012
    H            4.071740102168    -0.599669559405     0.388802051584
    H            1.329806187551    -2.475149064765     2.786121602167

gradient() will perform analytic gradient computation.

*** tstart() called on gpu-2-6.local
*** at Sat Nov 11 18:49:18 2017

    SCF Algorithm Type (re)set to DF.

*** tstart() called on gpu-2-6.local
*** at Sat Nov 11 18:49:18 2017

   => Loading Basis Set <=

    Name: AUG-CC-PVTZ
    Role: ORBITAL
    Keyword: BASIS
    atoms 1-11  entry C          line   221 file /cbio/jclab/home/chayas/anaconda/envs/py35/share/psi4/basis/aug-cc-pvtz.gbs 
    atoms 12    entry N          line   267 file /cbio/jclab/home/chayas/anaconda/envs/py35/share/psi4/basis/aug-cc-pvtz.gbs 
    atoms 13    entry F          line   359 file /cbio/jclab/home/chayas/anaconda/envs/py35/share/psi4/basis/aug-cc-pvtz.gbs 
    atoms 14-21 entry H          line    34 file /cbio/jclab/home/chayas/anaconda/envs/py35/share/psi4/basis/aug-cc-pvtz.gbs 


         ---------------------------------------------------------
                                   SCF
            by Justin Turney, Rob Parrish, and Andy Simmonett
                              RHF Reference
                        8 Threads,   4768 MiB Core
         ---------------------------------------------------------

  ==> Geometry <==

    Molecular point group: c1
    Full point group: C1

    Geometry (in Angstrom), charge = 0, multiplicity = 1:

       Center              X                  Y                   Z               Mass       
    ------------   -----------------  -----------------  -----------------  -----------------
           C         -1.387510237391     0.850610542933    -2.666053201646    12.000000000000
           C         -2.459352089760     1.419767304308    -1.990241556948    12.000000000000
           C         -0.354790436886     0.257984728775    -1.951190660938    12.000000000000
           C         -2.498738422153     1.396091741444    -0.603534196424    12.000000000000
           C          2.033649347572    -0.156114914446    -0.130020125897    12.000000000000
           C          0.437723390933    -1.243652589795     1.268064524961    12.000000000000
           C          3.027384769340    -0.768711363131     0.616373427006    12.000000000000
           C          1.502001669098    -1.808498317160     1.951613781317    12.000000000000
           C         -0.380193459888     0.226353072154    -0.558826727501    12.000000000000
           C          0.704666178959    -0.396648786074     0.198610043501    12.000000000000
           C         -1.463330609040     0.800682405974     0.094754278490    12.000000000000
           N          2.789428481706    -1.588390672282     1.649179557235    14.003074004780
           F         -1.507580858845     0.786726757761     1.433662884678    18.998403224000
           H         -1.358067817626     0.867224190014    -3.746251484814     1.007825032070
           H         -3.265855041928     1.882004532521    -2.540806594885     1.007825032070
           H          0.475451891051    -0.185109259081    -2.482692922565     1.007825032070
           H         -3.326919802510     1.836165993494    -0.066746706229     1.007825032070
           H          2.295462439568     0.498555001430    -0.948393813752     1.007825032070
           H         -0.575911222773    -1.465394046524     1.563968983012     1.007825032070
           H          4.071740102168    -0.599669559405     0.388802051584     1.007825032070
           H          1.329806187551    -2.475149064765     2.786121602167     1.007825032070

  Running in c1 symmetry.

  Rotational constants: A =      0.06506  B =      0.01800  C =      0.01490 [cm^-1]
  Rotational constants: A =   1950.38133  B =    539.73308  C =    446.77380 [MHz]
  Nuclear repulsion =  716.932118846929598

  Charge       = 0
  Multiplicity = 1
  Electrons    = 90
  Nalpha       = 45
  Nbeta        = 45

  ==> Algorithm <==

  SCF Algorithm Type is DF.
  DIIS enabled.
  MOM disabled.
  Fractional occupation disabled.
  Guess Type is READ.
  Energy threshold   = 1.00e-10
  Density threshold  = 1.00e-10
  Integral threshold = 0.00e+00

  ==> Primary Basis <==

  Basis Set: AUG-CC-PVTZ
    Blend: AUG-CC-PVTZ
    Number of shells: 254
    Number of basis function: 782
    Number of Cartesian functions: 915
    Spherical Harmonics?: true
    Max angular momentum: 3

   => Loading Basis Set <=

    Name: (AUG-CC-PVTZ AUX)
    Role: JKFIT
    Keyword: DF_BASIS_SCF
    atoms 1-11  entry C          line   161 file /cbio/jclab/home/chayas/anaconda/envs/py35/share/psi4/basis/aug-cc-pvtz-jkfit.gbs 
    atoms 12    entry N          line   223 file /cbio/jclab/home/chayas/anaconda/envs/py35/share/psi4/basis/aug-cc-pvtz-jkfit.gbs 
    atoms 13    entry F          line   347 file /cbio/jclab/home/chayas/anaconda/envs/py35/share/psi4/basis/aug-cc-pvtz-jkfit.gbs 
    atoms 14-21 entry H          line    69 file /cbio/jclab/home/chayas/anaconda/envs/py35/share/psi4/basis/aug-cc-pvtz-jkfit.gbs 

  Reading orbitals from file 180, no projection.

  ==> Pre-Iterations <==

   -------------------------------------------------------
    Irrep   Nso     Nmo     Nalpha   Nbeta   Ndocc  Nsocc
   -------------------------------------------------------
     A        782     782       0       0       0       0
   -------------------------------------------------------
    Total     782     782      45      45      45       0
   -------------------------------------------------------

  ==> Integral Setup <==

  ==> DFJK: Density-Fitted J/K Matrices <==

    J tasked:                  Yes
    K tasked:                  Yes
    wK tasked:                  No
    OpenMP threads:              8
    Integrals threads:           8
    Memory (MB):              3576
    Algorithm:                Disk
    Integral Cache:           NONE
    Schwarz Cutoff:          1E-12
    Fitting Condition:       1E-12

   => Auxiliary Basis Set <=

  Basis Set: (AUG-CC-PVTZ AUX)
    Blend: AUG-CC-PVTZ-JKFIT
    Number of shells: 502
    Number of basis function: 1720
    Number of Cartesian functions: 2143
    Spherical Harmonics?: true
    Max angular momentum: 4

  Minimum eigenvalue in the overlap matrix is 6.4238352255E-07.
  Using Symmetric Orthogonalization.

  SCF Guess: Orbitals guess was supplied from a previous computation.

  ==> Iterations <==

                           Total Energy        Delta E     RMS |[F,P]|

   @DF-RHF iter   0:  -575.37862869444939   -5.75379e+02   4.73236e-04 
   @DF-RHF iter   1:  -575.28837366398420    9.02550e-02   9.66740e-05 
   @DF-RHF iter   2:  -575.28882943198914   -4.55768e-04   8.70044e-05 DIIS
   @DF-RHF iter   3:  -575.28914891803049   -3.19486e-04   1.25158e-05 DIIS
   @DF-RHF iter   4:  -575.28915667237561   -7.75435e-06   3.97380e-06 DIIS
   @DF-RHF iter   5:  -575.28915862971792   -1.95734e-06   1.46870e-06 DIIS
   @DF-RHF iter   6:  -575.28915907570479   -4.45987e-07   9.13823e-07 DIIS
   @DF-RHF iter   7:  -575.28915925999524   -1.84290e-07   3.47068e-07 DIIS
   @DF-RHF iter   8:  -575.28915930078335   -4.07881e-08   1.23194e-07 DIIS
   @DF-RHF iter   9:  -575.28915930337632   -2.59297e-09   4.99025e-08 DIIS
   @DF-RHF iter  10:  -575.28915930359165   -2.15323e-10   1.41216e-08 DIIS
   @DF-RHF iter  11:  -575.28915930359415   -2.50111e-12   3.95247e-09 DIIS
   @DF-RHF iter  12:  -575.28915930360267   -8.52651e-12   1.71682e-09 DIIS
   @DF-RHF iter  13:  -575.28915930360279   -1.13687e-13   7.09212e-10 DIIS
   @DF-RHF iter  14:  -575.28915930360790   -5.11591e-12   3.08243e-10 DIIS
   @DF-RHF iter  15:  -575.28915930360608    1.81899e-12   1.32601e-10 DIIS
   @DF-RHF iter  16:  -575.28915930360029    5.79803e-12   4.86017e-11 DIIS

  ==> Post-Iterations <==

    Orbital Energies (a.u.)
    -----------------------

    Doubly Occupied:                                                      

       1A    -26.320967     2A    -15.563954     3A    -11.339074  
       4A    -11.273269     5A    -11.271990     6A    -11.268197  
       7A    -11.261656     8A    -11.257236     9A    -11.256684  
      10A    -11.252286    11A    -11.248259    12A    -11.240177  
      13A    -11.237558    14A     -1.642181    15A     -1.257116  
      16A     -1.186103    17A     -1.114995    18A     -1.039300  
      19A     -1.033963    20A     -1.028593    21A     -0.892621  
      22A     -0.873005    23A     -0.847835    24A     -0.825845  
      25A     -0.758109    26A     -0.722943    27A     -0.717876  
      28A     -0.708535    29A     -0.671562    30A     -0.663200  
      31A     -0.652779    32A     -0.626527    33A     -0.612245  
      34A     -0.597977    35A     -0.590828    36A     -0.550378  
      37A     -0.539510    38A     -0.525204    39A     -0.518263  
      40A     -0.509412    41A     -0.419622    42A     -0.404469  
      43A     -0.354495    44A     -0.348845    45A     -0.334464  

    Virtual:                                                              

      46A      0.023625    47A      0.029851    48A      0.033753  
      49A      0.038128    50A      0.043703    51A      0.046973  
      52A      0.054181    53A      0.055735    54A      0.070513  
      55A      0.079222    56A      0.084098    57A      0.086961  
      58A      0.092611    59A      0.094558    60A      0.099093  
      61A      0.103430    62A      0.107231    63A      0.108800  
      64A      0.112945    65A      0.114492    66A      0.115631  
      67A      0.119892    68A      0.120520    69A      0.128861  
      70A      0.130333    71A      0.133168    72A      0.135711  
      73A      0.137302    74A      0.143324    75A      0.145520  
      76A      0.149842    77A      0.150806    78A      0.151530  
      79A      0.159112    80A      0.163573    81A      0.169540  
      82A      0.175703    83A      0.178578    84A      0.180946  
      85A      0.187687    86A      0.199555    87A      0.203311  
      88A      0.217684    89A      0.218739    90A      0.224704  
      91A      0.231412    92A      0.232819    93A      0.234562  
      94A      0.237828    95A      0.242731    96A      0.246952  
      97A      0.248635    98A      0.253052    99A      0.258528  
     100A      0.264158   101A      0.268095   102A      0.270033  
     103A      0.273004   104A      0.282170   105A      0.283848  
     106A      0.288567   107A      0.292566   108A      0.296527  
     109A      0.301551   110A      0.305747   111A      0.311163  
     112A      0.314623   113A      0.317945   114A      0.319588  
     115A      0.321516   116A      0.326011   117A      0.330670  
     118A      0.337314   119A      0.338969   120A      0.345703  
     121A      0.347891   122A      0.356992   123A      0.359307  
     124A      0.367027   125A      0.372700   126A      0.379016  
     127A      0.380015   128A      0.387162   129A      0.393890  
     130A      0.398295   131A      0.406880   132A      0.409944  
     133A      0.415579   134A      0.422298   135A      0.424825  
     136A      0.430942   137A      0.434909   138A      0.436989  
     139A      0.437792   140A      0.443019   141A      0.447000  
     142A      0.450891   143A      0.458372   144A      0.465946  
     145A      0.469437   146A      0.470868   147A      0.476086  
     148A      0.477133   149A      0.478625   150A      0.481445  
     151A      0.485600   152A      0.491177   153A      0.492206  
     154A      0.496977   155A      0.497768   156A      0.501564  
     157A      0.507926   158A      0.511304   159A      0.514088  
     160A      0.514750   161A      0.521273   162A      0.522661  
     163A      0.527137   164A      0.529186   165A      0.533608  
     166A      0.538822   167A      0.540216   168A      0.543370  
     169A      0.548440   170A      0.549758   171A      0.556356  
     172A      0.561190   173A      0.572000   174A      0.575833  
     175A      0.579100   176A      0.585406   177A      0.591885  
     178A      0.597090   179A      0.602481   180A      0.608423  
     181A      0.611846   182A      0.624827   183A      0.631478  
     184A      0.636295   185A      0.641113   186A      0.652586  
     187A      0.656599   188A      0.667289   189A      0.677782  
     190A      0.680416   191A      0.683793   192A      0.687303  
     193A      0.694965   194A      0.700891   195A      0.703105  
     196A      0.710253   197A      0.713425   198A      0.723345  
     199A      0.725687   200A      0.731448   201A      0.737144  
     202A      0.742645   203A      0.748232   204A      0.750779  
     205A      0.754399   206A      0.763387   207A      0.766836  
     208A      0.768776   209A      0.779388   210A      0.791113  
     211A      0.796587   212A      0.803805   213A      0.806232  
     214A      0.814461   215A      0.826018   216A      0.835792  
     217A      0.845400   218A      0.851396   219A      0.853187  
     220A      0.857482   221A      0.859145   222A      0.863253  
     223A      0.872357   224A      0.876565   225A      0.878258  
     226A      0.879112   227A      0.882733   228A      0.888610  
     229A      0.892374   230A      0.899294   231A      0.902284  
     232A      0.910887   233A      0.914248   234A      0.920858  
     235A      0.924754   236A      0.932231   237A      0.937073  
     238A      0.938727   239A      0.942063   240A      0.950272  
     241A      0.953133   242A      0.961549   243A      0.964023  
     244A      0.968907   245A      0.977986   246A      0.980335  
     247A      0.984607   248A      0.984971   249A      0.993007  
     250A      1.001472   251A      1.002782   252A      1.009571  
     253A      1.012037   254A      1.015228   255A      1.022063  
     256A      1.026591   257A      1.032950   258A      1.039971  
     259A      1.042037   260A      1.052467   261A      1.053657  
     262A      1.064100   263A      1.068346   264A      1.068715  
     265A      1.073361   266A      1.076052   267A      1.076578  
     268A      1.081861   269A      1.085038   270A      1.089963  
     271A      1.095447   272A      1.108473   273A      1.110312  
     274A      1.113168   275A      1.119017   276A      1.122674  
     277A      1.125708   278A      1.134191   279A      1.138632  
     280A      1.144406   281A      1.147615   282A      1.152745  
     283A      1.160125   284A      1.163769   285A      1.171302  
     286A      1.181504   287A      1.183057   288A      1.185107  
     289A      1.192550   290A      1.198013   291A      1.200011  
     292A      1.203379   293A      1.208440   294A      1.212715  
     295A      1.225923   296A      1.231291   297A      1.235744  
     298A      1.236865   299A      1.242399   300A      1.245741  
     301A      1.254550   302A      1.262119   303A      1.270516  
     304A      1.274363   305A      1.282514   306A      1.286939  
     307A      1.291427   308A      1.296490   309A      1.309989  
     310A      1.319577   311A      1.320997   312A      1.333022  
     313A      1.335028   314A      1.346043   315A      1.350536  
     316A      1.359064   317A      1.367462   318A      1.372591  
     319A      1.379914   320A      1.380936   321A      1.394125  
     322A      1.397732   323A      1.405722   324A      1.410005  
     325A      1.423130   326A      1.424083   327A      1.438948  
     328A      1.442910   329A      1.446349   330A      1.465047  
     331A      1.476029   332A      1.482272   333A      1.489856  
     334A      1.497466   335A      1.500707   336A      1.506892  
     337A      1.509079   338A      1.527698   339A      1.540941  
     340A      1.543877   341A      1.550711   342A      1.567219  
     343A      1.569269   344A      1.583396   345A      1.589257  
     346A      1.592921   347A      1.603921   348A      1.605861  
     349A      1.625829   350A      1.627784   351A      1.645328  
     352A      1.651062   353A      1.654692   354A      1.659479  
     355A      1.669895   356A      1.677958   357A      1.681520  
     358A      1.690133   359A      1.702426   360A      1.710859  
     361A      1.716973   362A      1.721171   363A      1.725888  
     364A      1.730499   365A      1.741527   366A      1.746391  
     367A      1.756375   368A      1.757820   369A      1.768613  
     370A      1.782669   371A      1.787409   372A      1.793248  
     373A      1.811127   374A      1.812288   375A      1.815517  
     376A      1.825322   377A      1.831543   378A      1.845686  
     379A      1.854908   380A      1.867839   381A      1.870874  
     382A      1.879306   383A      1.887275   384A      1.896335  
     385A      1.907833   386A      1.916601   387A      1.921693  
     388A      1.927370   389A      1.936828   390A      1.943234  
     391A      1.953817   392A      1.956734   393A      1.964005  
     394A      1.968880   395A      1.977933   396A      1.992945  
     397A      2.002522   398A      2.004789   399A      2.010038  
     400A      2.013220   401A      2.019526   402A      2.027372  
     403A      2.037787   404A      2.048320   405A      2.051321  
     406A      2.059256   407A      2.064435   408A      2.073816  
     409A      2.080518   410A      2.092421   411A      2.093733  
     412A      2.103450   413A      2.117623   414A      2.121287  
     415A      2.129694   416A      2.130459   417A      2.144046  
     418A      2.146271   419A      2.157402   420A      2.170389  
[...]
	 R(5,7)           =         2.618563	       1.385684
	 R(5,10)          =         2.629021	       1.391218
	 R(5,18)          =         2.040421	       1.079744
	 R(6,8)           =         2.618468	       1.385634
	 R(6,10)          =         2.628715	       1.391056
	 R(6,19)          =         2.037508	       1.078203
	 R(7,12)          =         2.522106	       1.334641
	 R(7,20)          =         2.042825	       1.081017
	 R(8,12)          =         2.523335	       1.335292
	 R(8,21)          =         2.042531	       1.080861
	 R(9,10)          =         2.763450	       1.462355
	 R(9,11)          =         2.625713	       1.389467
	 R(11,13)         =         2.544979	       1.346745
	 B(1,2,4)         =         2.093126	     119.927279
	 B(1,2,15)        =         2.102169	     120.445425
	 B(1,3,9)         =         2.120432	     121.491795
	 B(1,3,16)        =         2.096641	     120.128657
	 B(2,1,3)         =         2.091870	     119.855326
	 B(2,1,14)        =         2.098008	     120.206999
	 B(2,4,11)        =         2.077001	     119.003403
	 B(2,4,17)        =         2.127167	     121.877705
	 B(3,1,14)        =         2.093272	     119.935668
	 B(3,9,10)        =         2.107652	     120.759556
	 B(3,9,11)        =         2.040307	     116.901003
	 B(4,2,15)        =         2.087889	     119.627222
	 B(4,11,9)        =         2.143615	     122.820106
	 B(4,11,13)       =         2.061399	     118.109451
	 B(5,7,12)        =         2.156960	     123.584701
	 B(5,7,20)        =         2.096332	     120.110980
	 B(5,10,6)        =         2.044553	     117.144272
	 B(5,10,9)        =         2.104032	     120.552130
	 B(6,8,12)        =         2.160794	     123.804376
	 B(6,8,21)        =         2.094132	     119.984929
	 B(6,10,9)        =         2.134539	     122.300093
	 B(7,5,10)        =         2.084953	     119.459004
	 B(7,5,18)        =         2.097592	     120.183169
	 B(7,12,8)        =         2.037951	     116.765978
	 B(8,6,10)        =         2.081098	     119.238137
	 B(8,6,19)        =         2.096894	     120.143191
	 B(9,3,16)        =         2.065946	     118.369995
	 B(9,11,13)       =         2.077968	     119.058774
	 B(10,5,18)       =         2.100536	     120.351872
	 B(10,6,19)       =         2.105119	     120.614420
	 B(10,9,11)       =         2.135186	     122.337161
	 B(11,4,17)       =         2.079007	     119.118347
	 B(12,7,20)       =         2.029884	     116.303767
	 B(12,8,21)       =         2.028259	     116.210677
	 D(1,2,4,11)      =        -0.002460	      -0.140923
	 D(1,2,4,17)      =         3.134402	     179.588025
	 D(1,3,9,10)      =         3.136722	     179.720917
	 D(1,3,9,11)      =         0.004495	       0.257564
	 D(2,1,3,9)       =        -0.001249	      -0.071560
	 D(2,1,3,16)      =         3.120398	     178.785658
	 D(2,4,11,9)      =         0.006079	       0.348305
	 D(2,4,11,13)     =         3.125755	     179.092567
	 D(3,1,2,4)       =         0.000151	       0.008679
	 D(3,1,2,15)      =        -3.139706	    -179.891902
	 D(3,9,10,5)      =         0.782940	      44.859142
	 D(3,9,10,6)      =        -2.346422	    -134.440106
	 D(3,9,11,4)      =        -0.006993	      -0.400690
	 D(3,9,11,13)     =        -3.126470	    -179.133562
	 D(4,2,1,14)      =         3.132744	     179.493013
	 D(4,11,9,10)     =        -3.139060	    -179.854893
	 D(5,7,12,8)      =        -0.002875	      -0.164719
	 D(5,10,6,8)      =        -0.012270	      -0.703004
	 D(5,10,6,19)     =        -3.140787	    -179.953865
	 D(5,10,9,11)     =        -2.368539	    -135.707278
	 D(6,8,12,7)      =         0.000501	       0.028708
	 D(6,10,5,7)      =         0.010122	       0.579940
	 D(6,10,5,18)     =        -3.116008	    -178.534103
	 D(6,10,9,11)     =         0.785284	      44.993474
	 D(7,5,10,9)      =        -3.119853	    -178.754431
	 D(7,12,8,21)     =         3.141239	     179.979722
	 D(8,6,10,9)      =         3.117487	     178.618840
	 D(8,12,7,20)     =         3.133996	     179.564738
	 D(9,3,1,14)      =        -3.133866	    -179.557306
	 D(9,10,5,18)     =         0.037202	       2.131526
	 D(9,10,6,19)     =        -0.011031	      -0.632021
	 D(9,11,4,17)     =        -3.130915	    -179.388226
	 D(10,5,7,12)     =        -0.002617	      -0.149934
	 D(10,5,7,20)     =        -3.139316	    -179.869571
	 D(10,6,8,12)     =         0.007296	       0.418004
	 D(10,6,8,21)     =        -3.133412	    -179.531256
	 D(10,9,3,16)     =         0.014734	       0.844220
	 D(10,9,11,13)    =         0.024648	       1.412235
	 D(11,4,2,15)     =         3.137412	     179.760475
	 D(11,9,3,16)     =        -3.117492	    -178.619134
	 D(12,7,5,18)     =         3.123539	     178.965630
	 D(12,8,6,19)     =         3.135876	     179.672469
	 D(13,11,4,17)    =        -0.011239	      -0.643964
	 D(14,1,2,15)     =        -0.007113	      -0.407568
	 D(14,1,3,16)     =        -0.012219	      -0.700089
	 D(15,2,4,17)     =        -0.008911	      -0.510577
	 D(18,5,7,20)     =        -0.013160	      -0.754007
	 D(19,6,8,21)     =        -0.004831	      -0.276791
	 R(6,13)          =         5.468850	       2.893991

	Current energy   :      -577.7278927593

	Energy change for the previous step:
		Projected    :         0.0000108311
		Actual       :        -0.0000003585

	Performing BFGS update.
	Previous computed or guess Hessian on step 1.
	Steps to be used in Hessian update: 5 4
	Adding user-defined constraint: Fragment 1; Coordinate 67:
		Value =     0.782940; Fixed value    =     0.785400
		Force =     0.001538; Force constant =     0.625000
	Removing off-diagonal coupling between coordinate 67 and others.
	Taking RFO optimization step.
	Going to follow RFO solution 1.
	Using RFO vector 1.
	Norm of target step-size    0.00487
	Projected energy change by RFO approximation:        -0.0000027774

	Back-transformation to cartesian coordinates...
	Could not converge backtransformation.
	Using first guess instead.

	--- Internal Coordinate Step in ANG or DEG, aJ/ANG or AJ/DEG ---
	 ---------------------------------------------------------------------------
	   Coordinate                Previous        Force       Change         New 
	   ----------                --------       ------       ------       ------
	    1 R(1,2)          =      1.388087     0.000176     0.000031     1.388119
	    2 R(1,3)          =      1.385495     0.000020     0.000010     1.385505
	    3 R(1,14)         =      1.078454    -0.000050     0.000000     1.078454
	    4 R(2,4)          =      1.386909    -0.000114    -0.000004     1.386905
	    5 R(2,15)         =      1.078775    -0.000032     0.000005     1.078780
	    6 R(3,9)          =      1.395248     0.000059     0.000022     1.395269
	    7 R(3,16)         =      1.079800    -0.000085    -0.000006     1.079794
	    8 R(4,11)         =      1.379452     0.000306     0.000063     1.379514
	    9 R(4,17)         =      1.077880    -0.000027     0.000003     1.077883
	   10 R(5,7)          =      1.385684     0.000106     0.000020     1.385704
	   11 R(5,10)         =      1.391218    -0.000275    -0.000034     1.391184
	   12 R(5,18)         =      1.079744    -0.000011     0.000005     1.079749
	   13 R(6,8)          =      1.385634     0.000184     0.000029     1.385663
	   14 R(6,10)         =      1.391056    -0.000287    -0.000040     1.391016
	   15 R(6,19)         =      1.078203     0.000029     0.000020     1.078223
	   16 R(7,12)         =      1.334641    -0.000091     0.000000     1.334641
	   17 R(7,20)         =      1.081017    -0.000089    -0.000012     1.081004
	   18 R(8,12)         =      1.335292    -0.000163    -0.000010     1.335282
	   19 R(8,21)         =      1.080861    -0.000128    -0.000019     1.080842
	   20 R(9,10)         =      1.462355     0.000874     0.000121     1.462476
	   21 R(9,11)         =      1.389467    -0.000383    -0.000035     1.389432
	   22 R(11,13)        =      1.346745    -0.001024    -0.000092     1.346652
	   23 B(1,2,4)        =    119.927279    -0.000000    -0.000840   119.926439
	   24 B(1,2,15)       =    120.445425    -0.000000    -0.000746   120.444680
	   25 B(1,3,9)        =    121.491795     0.000000     0.001298   121.493093
	   26 B(1,3,16)       =    120.128657    -0.000001    -0.005263   120.123394
	   27 B(2,1,3)        =    119.855326    -0.000001    -0.003543   119.851783
	   28 B(2,1,14)       =    120.206999     0.000001     0.002080   120.209079
	   29 B(2,4,11)       =    119.003403     0.000001     0.006350   119.009753
	   30 B(2,4,17)       =    121.877705    -0.000001    -0.005727   121.871978
	   31 B(3,1,14)       =    119.935668     0.000001     0.001715   119.937383
	   32 B(3,9,10)       =    120.759556    -0.000002    -0.010069   120.749487
	   33 B(3,9,11)       =    116.901003     0.000002     0.005626   116.906629
	   34 B(4,2,15)       =    119.627222     0.000000     0.001561   119.628783
	   35 B(4,11,9)       =    122.820106    -0.000002    -0.009113   122.810993
	   36 B(4,11,13)      =    118.109451     0.000002     0.002484   118.111934
	   37 B(5,7,12)       =    123.584701     0.000001     0.003860   123.588561
	   38 B(5,7,20)       =    120.110980     0.000001     0.006207   120.117187
	   39 B(5,10,6)       =    117.144272    -0.000000     0.000002   117.144274
	   40 B(5,10,9)       =    120.552130     0.000002     0.002330   120.554460
	   41 B(6,8,12)       =    123.804376     0.000000     0.002376   123.806751
	   42 B(6,8,21)       =    119.984929     0.000001     0.006205   119.991135
	   43 B(6,10,9)       =    122.300093    -0.000002    -0.002360   122.297733
	   44 B(7,5,10)       =    119.459004    -0.000000    -0.001046   119.457958
	   45 B(7,5,18)       =    120.183169     0.000000     0.000615   120.183785
	   46 B(7,12,8)       =    116.765978    -0.000002    -0.005630   116.760348
	   47 B(8,6,10)       =    119.238137     0.000000     0.000496   119.238633
	   48 B(8,6,19)       =    120.143191     0.000001     0.005662   120.148853
	   49 B(9,3,16)       =    118.369995     0.000001     0.003809   118.373804
	   50 B(9,11,13)      =    119.058774     0.000000     0.004686   119.063461
	   51 B(10,5,18)      =    120.351872     0.000000     0.000629   120.352501
	   52 B(10,6,19)      =    120.614420    -0.000001    -0.005973   120.608447
	   53 B(10,9,11)      =    122.337161    -0.000000     0.004415   122.341576
	   54 B(11,4,17)      =    119.118347    -0.000000    -0.000685   119.117662
	   55 B(12,7,20)      =    116.303767    -0.000002    -0.010720   116.293048
	   56 B(12,8,21)      =    116.210677    -0.000002    -0.008642   116.202035
	   57 D(1,2,4,11)     =     -0.140923     0.000000     0.014079    -0.126844
	   58 D(1,2,4,17)     =    179.588025     0.000000    -0.000748   179.587277
	   59 D(1,3,9,10)     =    179.720917    -0.000000     0.007900   179.728817
	   60 D(1,3,9,11)     =      0.257564     0.000000     0.011201     0.268765
	   61 D(2,1,3,9)      =     -0.071560     0.000000     0.031647    -0.039913
	   62 D(2,1,3,16)     =    178.785658     0.000000     0.022377   178.808034
	   63 D(2,4,11,9)     =      0.348305     0.000000     0.030745     0.379049
	   64 D(2,4,11,13)    =    179.092567    -0.000000    -0.069684   179.022882
	   65 D(3,1,2,4)      =      0.008679    -0.000000    -0.044445    -0.035766
	   66 D(3,1,2,15)     =   -179.891902    -0.000000    -0.028896  -179.920798
	   67 D(3,9,10,5)     =     44.859142     0.000002     0.024101    44.883243
	   68 D(3,9,10,6)     =   -134.440106     0.000001     0.026842  -134.413264
	   69 D(3,9,11,4)     =     -0.400690    -0.000001    -0.042897    -0.443587
	   70 D(3,9,11,13)    =   -179.133562     0.000000     0.058474  -179.075088
	   71 D(4,2,1,14)     =    179.493013    -0.000000    -0.010984   179.482030
	   72 D(4,11,9,10)    =   -179.854893     0.000000    -0.039456  -179.894349
	   73 D(5,7,12,8)     =     -0.164719     0.000000     0.056852    -0.107868
	   74 D(5,10,6,8)     =     -0.703004    -0.000000     0.014491    -0.688513
	   75 D(5,10,6,19)    =   -179.953865    -0.000000    -0.002077  -179.955942
	   76 D(5,10,9,11)    =   -135.707278     0.000001     0.020618  -135.686660
	   77 D(6,8,12,7)     =      0.028708     0.000000    -0.003194     0.025514
	   78 D(6,10,5,7)     =      0.579940     0.000001     0.034643     0.614583
	   79 D(6,10,5,18)    =   -178.534103     0.000000     0.019827  -178.514276
	   80 D(6,10,9,11)    =     44.993474     0.000001     0.023359    45.016833
	   81 D(7,5,10,9)     =   -178.754431    -0.000000     0.037264  -178.717167
	   82 D(7,12,8,21)    =    179.979722    -0.000000    -0.056810   179.922912
	   83 D(8,6,10,9)     =    178.618840     0.000001     0.011855   178.630696
	   84 D(8,12,7,20)    =    179.564738    -0.000001    -0.072408   179.492330
	   85 D(9,3,1,14)     =   -179.557306    -0.000000    -0.001725  -179.559031
	   86 D(9,10,5,18)    =      2.131526    -0.000000     0.022448     2.153974
	   87 D(9,10,6,19)    =     -0.632021     0.000001    -0.004713    -0.636733
	   88 D(9,11,4,17)    =   -179.388226     0.000000     0.045172  -179.343054
	   89 D(10,5,7,12)    =     -0.149934    -0.000001    -0.074001    -0.223935
	   90 D(10,5,7,20)    =   -179.869571     0.000000     0.060016  -179.809555
	   91 D(10,6,8,12)    =      0.418004    -0.000000    -0.032001     0.386004
	   92 D(10,6,8,21)    =   -179.531256     0.000000     0.023551  -179.507705
	   93 D(10,9,3,16)    =      0.844220    -0.000000     0.017113     0.861333
	   94 D(10,9,11,13)   =      1.412235     0.000001     0.061915     1.474150
	   95 D(11,4,2,15)    =    179.760475    -0.000000    -0.001344   179.759131
	   96 D(11,9,3,16)    =   -178.619134     0.000000     0.020414  -178.598720
	   97 D(12,7,5,18)    =    178.965630    -0.000001    -0.059210   178.906420
	   98 D(12,8,6,19)    =    179.672469     0.000000    -0.015599   179.656869
	   99 D(13,11,4,17)   =     -0.643964    -0.000000    -0.055257    -0.699221
	  100 D(14,1,2,15)    =     -0.407568     0.000000     0.004565    -0.403003
	  101 D(14,1,3,16)    =     -0.700089    -0.000000    -0.010995    -0.711084
	  102 D(15,2,4,17)    =     -0.510577    -0.000000    -0.016171    -0.526748
	  103 D(18,5,7,20)    =     -0.754007     0.000001     0.074807    -0.679199
	  104 D(19,6,8,21)    =     -0.276791     0.000000     0.039952    -0.236839
	  105 R(6,13)         =      2.893991     0.000336     0.000917     2.894908
	 ---------------------------------------------------------------------------
	Successfully symmetrized geometry.
	 Forces used to impose fixed constraints are not included.
	  Forces zeroed: 67 

  ==> Convergence Check <==

  Measures of convergence in internal coordinates in au.
  Criteria marked as inactive (o), active & met (*), and active & unmet ( ).
  ---------------------------------------------------------------------------------------------
   Step     Total Energy     Delta E     MAX Force     RMS Force      MAX Disp      RMS Disp   
  ---------------------------------------------------------------------------------------------
    Convergence Criteria    1.00e-06 *    3.00e-04 *             o    1.20e-03 *             o
  ---------------------------------------------------------------------------------------------
      6    -577.72789276   -3.59e-07 *    1.24e-04 *    2.80e-05 o    1.73e-03      4.76e-04 o  ~
  ---------------------------------------------------------------------------------------------


  **** Optimization is complete! (in 6 steps) ****

  ==> Optimization Summary <==

  Measures of convergence in internal coordinates in au.
  --------------------------------------------------------------------------------------------------------------- ~
   Step         Total Energy             Delta E       MAX Force       RMS Force        MAX Disp        RMS Disp  ~
  --------------------------------------------------------------------------------------------------------------- ~
      1    -577.724433733692   -577.724433733692      0.01467510      0.00435976      0.02934856      0.00977050  ~
      2    -577.727215305781     -0.002781572089      0.00416957      0.00135887      0.05982596      0.00976652  ~
      3    -577.727798535381     -0.000583229600      0.00192727      0.00033981      0.04634328      0.00555740  ~
      4    -577.727875905436     -0.000077370055      0.00062167      0.00013389      0.03288522      0.00366644  ~
      5    -577.727892400815     -0.000016495379      0.00028119      0.00007317      0.00691224      0.00114501  ~
      6    -577.727892759328     -0.000000358513      0.00013023      0.00003078      0.00173338      0.00047571  ~
  --------------------------------------------------------------------------------------------------------------- ~

	Writing optimization data to binary file.
	Final energy is   -577.7278927593280
	Final (previous) structure:
	Cartesian Geometry (in Angstrom)
	    C    -1.3743230505   0.8447013152  -2.6630860815
	    C    -2.4552395810   1.4183704423  -2.0078686896
	    C    -0.3543988405   0.2601232155  -1.9298608564
	    C    -2.5109834009   1.4048690767  -0.6221461478
	    C     2.0284465730  -0.1563721233  -0.1139761862
	    C     0.4591764836  -1.2544199184   1.2889016697
	    C     3.0355187812  -0.7824029282   0.6029695327
	    C     1.5323992919  -1.8358996797   1.9446871288
	    C    -0.3826727912   0.2327111780  -0.5351689419
	    C     0.6996496351  -0.3939976015   0.2226544706
	    C    -1.4831902270   0.8136820713   0.0828549798
	    N     2.8089121466  -1.6155368251   1.6207140637
	    F    -1.5465092744   0.8271771849   1.4280426178
	    H    -1.3303268979   0.8454273575  -3.7406417620
	    H    -3.2554573018   1.8745772750  -2.5693686312
	    H     0.4788758554  -0.2047012051  -2.4353902974
	    H    -3.3319175172   1.8466907040  -0.0811407800
	    H     2.2748954553   0.5211871835  -0.9177321576
	    H    -0.5494962928  -1.4784713835   1.5969616202
	    H     4.0716463218  -0.6037051764   0.3517651318
	    H     1.3591992230  -2.5122091420   2.7698342501
	Saving final (previous) structure.
			--------------------------
			 OPTKING Finished Execution 
			--------------------------

    Final optimized geometry and variables:
    Molecular point group: c1
    Full point group: C1

    Geometry (in Angstrom), charge = 0, multiplicity = 1:

    C           -1.374323050542     0.844701315226    -2.663086081533
    C           -2.455239581011     1.418370442308    -2.007868689601
    C           -0.354398840543     0.260123215509    -1.929860856352
    C           -2.510983400908     1.404869076728    -0.622146147812
    C            2.028446573047    -0.156372123338    -0.113976186172
    C            0.459176483565    -1.254419918415     1.288901669739
    C            3.035518781221    -0.782402928243     0.602969532692
    C            1.532399291942    -1.835899679662     1.944687128818
    C           -0.382672791159     0.232711178000    -0.535168941907
    C            0.699649635094    -0.393997601542     0.222654470641
    C           -1.483190227036     0.813682071296     0.082854979838
    N            2.808912146601    -1.615536825130     1.620714063732
    F           -1.546509274425     0.827177184950     1.428042617767
    H           -1.330326897898     0.845427357494    -3.740641761964
    H           -3.255457301774     1.874577275009    -2.569368631180
    H            0.478875855448    -0.204701205055    -2.435390297361
    H           -3.331917517187     1.846690703960    -0.081140780050
    H            2.274895455258     0.521187183516    -0.917732157643
    H           -0.549496292788    -1.478471383515     1.596961620155
    H            4.071646321848    -0.603705176414     0.351765131799
    H            1.359199223045    -2.512209141955     2.769834250113

	Cleaning optimization helper files.

*** Psi4 exiting successfully. Buy a developer a beer!
