
    -----------------------------------------------------------------------
          Psi4: An Open-Source Ab Initio Electronic Structure Package
                               Psi4 1.1 release

                         Git: Rev {HEAD} add49b9 


    R. M. Parrish, L. A. Burns, D. G. A. Smith, A. C. Simmonett,
    A. E. DePrince III, E. G. Hohenstein, U. Bozkaya, A. Yu. Sokolov,
    R. Di Remigio, R. M. Richard, J. F. Gonthier, A. M. James,
    H. R. McAlexander, A. Kumar, M. Saitow, X. Wang, B. P. Pritchard,
    P. Verma, H. F. Schaefer III, K. Patkowski, R. A. King, E. F. Valeev,
    F. A. Evangelista, J. M. Turney, T. D. Crawford, and C. D. Sherrill,
    J. Chem. Theory Comput. in press (2017).
    (doi: 10.1021/acs.jctc.7b00174)

    -----------------------------------------------------------------------


    Psi4 started on: Saturday, 11 November 2017 09:39PM

    Process ID:  24945
    PSIDATADIR: /cbio/jclab/home/chayas/anaconda/envs/py35/share/psi4
    Memory:     500.0 MiB
    Threads:    8
    
  ==> Input File <==

--------------------------------------------------------------------------

memory 5 Gb

molecule phepyrFOH_neutral {
  symmetry C1
  0 1 
  C      1.885   -1.036   -0.112
  C      0.807   -0.463   0.561
  C      5.074   -2.819   0.617
  C      4.078   -2.204   -1.484
  C      1.800   -1.079   2.676
  C      6.119   -3.375   -0.103
  C      5.168   -2.787   -2.110
  C      2.921   -1.631   0.608
  C      4.038   -2.225   -0.095
  C      0.764   -0.484   1.955
  C      2.878   -1.652   2.002
  N      6.194   -3.374   -1.453
  O      -0.289   0.076   2.612
  F      3.866   -2.220   2.709
  H      1.904   -1.012   -1.199
  H      0.002   -0.002   -0.006
  H      5.077   -2.856   1.701
  H      3.288   -1.749   -2.073
  H      1.772   -1.099   3.762
  H      6.951   -3.852   0.405
  H      5.248   -2.797   -3.192
  H      -0.175   -0.018   3.571
  units Angstrom
}

dih_string = "1 8 9 3 180.001"
set optking fixed_dihedral = $dih_string

optimize('MP2/aug-cc-PVTZ')
--------------------------------------------------------------------------

  Memory set to   4.657 GiB by Python driver.
gradient() will perform analytic gradient computation.

*** tstart() called on gpu-2-12.local
*** at Sat Nov 11 21:39:27 2017

    SCF Algorithm Type (re)set to DF.

*** tstart() called on gpu-2-12.local
*** at Sat Nov 11 21:39:27 2017

   => Loading Basis Set <=

    Name: AUG-CC-PVTZ
    Role: ORBITAL
    Keyword: BASIS
    atoms 1-11  entry C          line   221 file /cbio/jclab/home/chayas/anaconda/envs/py35/share/psi4/basis/aug-cc-pvtz.gbs 
    atoms 12    entry N          line   267 file /cbio/jclab/home/chayas/anaconda/envs/py35/share/psi4/basis/aug-cc-pvtz.gbs 
    atoms 13    entry O          line   313 file /cbio/jclab/home/chayas/anaconda/envs/py35/share/psi4/basis/aug-cc-pvtz.gbs 
    atoms 14    entry F          line   359 file /cbio/jclab/home/chayas/anaconda/envs/py35/share/psi4/basis/aug-cc-pvtz.gbs 
    atoms 15-22 entry H          line    34 file /cbio/jclab/home/chayas/anaconda/envs/py35/share/psi4/basis/aug-cc-pvtz.gbs 


         ---------------------------------------------------------
                                   SCF
            by Justin Turney, Rob Parrish, and Andy Simmonett
                              RHF Reference
                        8 Threads,   4768 MiB Core
         ---------------------------------------------------------

  ==> Geometry <==

    Molecular point group: c1
    Full point group: C1

    Geometry (in Angstrom), charge = 0, multiplicity = 1:

       Center              X                  Y                   Z               Mass       
    ------------   -----------------  -----------------  -----------------  -----------------
           C         -1.321404811653     0.755805550326    -0.799992440154    12.000000000000
           C         -2.399404811653     1.328805550326    -0.126992440154    12.000000000000
           C          1.867595188347    -1.027194449674    -0.070992440154    12.000000000000
           C          0.871595188347    -0.412194449674    -2.171992440154    12.000000000000
           C         -1.406404811653     0.712805550326     1.988007559846    12.000000000000
           C          2.912595188347    -1.583194449674    -0.790992440154    12.000000000000
           C          1.961595188347    -0.995194449674    -2.797992440154    12.000000000000
           C         -0.285404811653     0.160805550326    -0.079992440154    12.000000000000
           C          0.831595188347    -0.433194449674    -0.782992440154    12.000000000000
           C         -2.442404811653     1.307805550326     1.267007559846    12.000000000000
           C         -0.328404811653     0.139805550326     1.314007559846    12.000000000000
           N          2.987595188347    -1.582194449674    -2.140992440154    14.003074004780
           O         -3.495404811653     1.867805550326     1.924007559846    15.994914619560
           F          0.659595188347    -0.428194449674     2.021007559846    18.998403224000
           H         -1.302404811653     0.779805550326    -1.886992440154     1.007825032070
           H         -3.204404811653     1.789805550326    -0.693992440154     1.007825032070
           H          1.870595188347    -1.064194449674     1.013007559846     1.007825032070
           H          0.081595188347     0.042805550326    -2.760992440154     1.007825032070
           H         -1.434404811653     0.692805550326     3.074007559846     1.007825032070
           H          3.744595188347    -2.060194449674    -0.282992440154     1.007825032070
           H          2.041595188347    -1.005194449674    -3.879992440154     1.007825032070
           H         -3.381404811653     1.773805550326     2.883007559846     1.007825032070

  Running in c1 symmetry.

  Rotational constants: A =      0.06328  B =      0.01365  C =      0.01123 [cm^-1]
  Rotational constants: A =   1896.95344  B =    409.26847  C =    336.63860 [MHz]
  Nuclear repulsion =  818.103878420795695

  Charge       = 0
  Multiplicity = 1
  Electrons    = 98
  Nalpha       = 49
  Nbeta        = 49

  ==> Algorithm <==

  SCF Algorithm Type is DF.
  DIIS enabled.
  MOM disabled.
  Fractional occupation disabled.
  Guess Type is SAD.
  Energy threshold   = 1.00e-10
  Density threshold  = 1.00e-10
  Integral threshold = 0.00e+00

  ==> Primary Basis <==

  Basis Set: AUG-CC-PVTZ
    Blend: AUG-CC-PVTZ
    Number of shells: 268
    Number of basis function: 828
    Number of Cartesian functions: 970
    Spherical Harmonics?: true
    Max angular momentum: 3

   => Loading Basis Set <=

    Name: (AUG-CC-PVTZ AUX)
    Role: JKFIT
    Keyword: DF_BASIS_SCF
    atoms 1-11  entry C          line   161 file /cbio/jclab/home/chayas/anaconda/envs/py35/share/psi4/basis/aug-cc-pvtz-jkfit.gbs 
    atoms 12    entry N          line   223 file /cbio/jclab/home/chayas/anaconda/envs/py35/share/psi4/basis/aug-cc-pvtz-jkfit.gbs 
    atoms 13    entry O          line   285 file /cbio/jclab/home/chayas/anaconda/envs/py35/share/psi4/basis/aug-cc-pvtz-jkfit.gbs 
    atoms 14    entry F          line   347 file /cbio/jclab/home/chayas/anaconda/envs/py35/share/psi4/basis/aug-cc-pvtz-jkfit.gbs 
    atoms 15-22 entry H          line    69 file /cbio/jclab/home/chayas/anaconda/envs/py35/share/psi4/basis/aug-cc-pvtz-jkfit.gbs 

  ==> Pre-Iterations <==

   -------------------------------------------------------
    Irrep   Nso     Nmo     Nalpha   Nbeta   Ndocc  Nsocc
   -------------------------------------------------------
     A        828     828       0       0       0       0
   -------------------------------------------------------
    Total     828     828      49      49      49       0
   -------------------------------------------------------

  ==> Integral Setup <==

  ==> DFJK: Density-Fitted J/K Matrices <==

    J tasked:                  Yes
    K tasked:                  Yes
    wK tasked:                  No
    OpenMP threads:              8
    Integrals threads:           8
    Memory (MB):              3576
    Algorithm:                Disk
    Integral Cache:           NONE
    Schwarz Cutoff:          1E-12
    Fitting Condition:       1E-12

   => Auxiliary Basis Set <=

  Basis Set: (AUG-CC-PVTZ AUX)
    Blend: AUG-CC-PVTZ-JKFIT
    Number of shells: 532
    Number of basis function: 1824
    Number of Cartesian functions: 2274
    Spherical Harmonics?: true
    Max angular momentum: 4

  Minimum eigenvalue in the overlap matrix is 3.1925782314E-07.
  Using Symmetric Orthogonalization.

  SCF Guess: Superposition of Atomic Densities via on-the-fly atomic UHF.

  ==> Iterations <==

                           Total Energy        Delta E     RMS |[F,P]|

   @DF-RHF iter   0:  -656.10567356154547   -6.56106e+02   2.24417e-02 
   @DF-RHF iter   1:  -649.74030026125433    6.36537e+00   2.30267e-03 
   @DF-RHF iter   2:  -650.08487871605655   -3.44578e-01   8.47565e-04 DIIS
   @DF-RHF iter   3:  -650.13780378541912   -5.29251e-02   4.03786e-04 DIIS
   @DF-RHF iter   4:  -650.15314010765314   -1.53363e-02   1.10139e-04 DIIS
   @DF-RHF iter   5:  -650.15484351689599   -1.70341e-03   4.69221e-05 DIIS
   @DF-RHF iter   6:  -650.15510169392360   -2.58177e-04   1.39250e-05 DIIS
   @DF-RHF iter   7:  -650.15512950062202   -2.78067e-05   5.34018e-06 DIIS
   @DF-RHF iter   8:  -650.15513170430938   -2.20369e-06   1.91463e-06 DIIS
   @DF-RHF iter   9:  -650.15513212345581   -4.19146e-07   7.04379e-07 DIIS
   @DF-RHF iter  10:  -650.15513224585106   -1.22395e-07   3.98748e-07 DIIS
   @DF-RHF iter  11:  -650.15513229105477   -4.52037e-08   2.15658e-07 DIIS
   @DF-RHF iter  12:  -650.15513230167289   -1.06181e-08   7.83939e-08 DIIS
   @DF-RHF iter  13:  -650.15513230332851   -1.65562e-09   3.08680e-08 DIIS
   @DF-RHF iter  14:  -650.15513230361159   -2.83080e-10   1.39490e-08 DIIS
   @DF-RHF iter  15:  -650.15513230364229   -3.06954e-11   6.72414e-09 DIIS
   @DF-RHF iter  16:  -650.15513230365639   -1.40972e-11   2.88750e-09 DIIS
   @DF-RHF iter  17:  -650.15513230365127    5.11591e-12   1.08788e-09 DIIS
   @DF-RHF iter  18:  -650.15513230363274    1.85310e-11   4.62456e-10 DIIS
   @DF-RHF iter  19:  -650.15513230366071   -2.79670e-11   1.85313e-10 DIIS
   @DF-RHF iter  20:  -650.15513230364820    1.25056e-11   7.49097e-11 DIIS

  ==> Post-Iterations <==

    Orbital Energies (a.u.)
    -----------------------

    Doubly Occupied:                                                      

       1A    -26.337924     2A    -20.613057     3A    -15.558310  
       4A    -11.355310     5A    -11.332549     6A    -11.271085  
       7A    -11.267943     8A    -11.267851     9A    -11.263588  
      10A    -11.258656    11A    -11.256242    12A    -11.249980  
      13A    -11.235308    14A    -11.222848    15A     -1.663116  
      16A     -1.427542    17A     -1.244845    18A     -1.185386  
      19A     -1.110564    20A     -1.046734    21A     -1.030202  
      22A     -1.020441    23A     -0.898483    24A     -0.882705  
      25A     -0.854227    26A     -0.827409    27A     -0.775737  
      28A     -0.759981    29A     -0.725396    30A     -0.723090  
      31A     -0.713330    32A     -0.679720    33A     -0.652790  
      34A     -0.642004    35A     -0.627493    36A     -0.612547  
      37A     -0.608450    38A     -0.588512    39A     -0.576961  
      40A     -0.547673    41A     -0.543266    42A     -0.535405  
      43A     -0.504652    44A     -0.500074    45A     -0.412520  
      46A     -0.405908    47A     -0.363752    48A     -0.344577  
      49A     -0.309336  

    Virtual:                                                              

      50A      0.020477    51A      0.027760    52A      0.034921  
      53A      0.040018    54A      0.044202    55A      0.057515  
      56A      0.058268    57A      0.062097    58A      0.075368  
      59A      0.081273    60A      0.082321    61A      0.085771  
      62A      0.089317    63A      0.089928    64A      0.097818  
      65A      0.099647    66A      0.104336    67A      0.109972  
      68A      0.111343    69A      0.112842    70A      0.114410  
      71A      0.119091    72A      0.127750    73A      0.132550  
      74A      0.136899    75A      0.137508    76A      0.139369  
      77A      0.140423    78A      0.143917    79A      0.147720  
      80A      0.152333    81A      0.152847    82A      0.156471  
      83A      0.165538    84A      0.170246    85A      0.172188  
      86A      0.177655    87A      0.179710    88A      0.180724  
      89A      0.192632    90A      0.194010    91A      0.202104  
      92A      0.204565    93A      0.209947    94A      0.218166  
      95A      0.227714    96A      0.230949    97A      0.232822  
      98A      0.234934    99A      0.237434   100A      0.240296  
     101A      0.245560   102A      0.248896   103A      0.258656  
     104A      0.265871   105A      0.266696   106A      0.270342  
     107A      0.272315   108A      0.278928   109A      0.281570  
     110A      0.282699   111A      0.286695   112A      0.287767  
     113A      0.297752   114A      0.303789   115A      0.306697  
     116A      0.311420   117A      0.314225   118A      0.317566  
     119A      0.318368   120A      0.326771   121A      0.327507  
     122A      0.333692   123A      0.333785   124A      0.338601  
     125A      0.346612   126A      0.351668   127A      0.354051  
     128A      0.357124   129A      0.366679   130A      0.368643  
     131A      0.375673   132A      0.386341   133A      0.391430  
     134A      0.394263   135A      0.400286   136A      0.410605  
     137A      0.412339   138A      0.416096   139A      0.418755  
     140A      0.424943   141A      0.425133   142A      0.426814  
     143A      0.432001   144A      0.433496   145A      0.439579  
     146A      0.442394   147A      0.444334   148A      0.450696  
     149A      0.453080   150A      0.456577   151A      0.460082  
     152A      0.462058   153A      0.463841   154A      0.467364  
     155A      0.473794   156A      0.475903   157A      0.478122  
     158A      0.485169   159A      0.493125   160A      0.497836  
     161A      0.498939   162A      0.501930   163A      0.503716  
     164A      0.504216   165A      0.508776   166A      0.510104  
     167A      0.515413   168A      0.516822   169A      0.525647  
     170A      0.528767   171A      0.530955   172A      0.541016  
     173A      0.541748   174A      0.548505   175A      0.550362  
     176A      0.563224   177A      0.565087   178A      0.567486  
     179A      0.570959   180A      0.576674   181A      0.580574  
     182A      0.584075   183A      0.590833   184A      0.597159  
     185A      0.597604   186A      0.602003   187A      0.606145  
     188A      0.614183   189A      0.620780   190A      0.626541  
     191A      0.633191   192A      0.650418   193A      0.659335  
     194A      0.662834   195A      0.669148   196A      0.676989  
     197A      0.677249   198A      0.682996   199A      0.692687  
     200A      0.696735   201A      0.698615   202A      0.705953  
     203A      0.711304   204A      0.721457   205A      0.723591  
     206A      0.727626   207A      0.734763   208A      0.740241  
     209A      0.745470   210A      0.753394   211A      0.753898  
     212A      0.760522   213A      0.766320   214A      0.768795  
     215A      0.781978   216A      0.782704   217A      0.788656  
     218A      0.791005   219A      0.808226   220A      0.809055  
     221A      0.811638   222A      0.814365   223A      0.823894  
     224A      0.827682   225A      0.830004   226A      0.840219  
     227A      0.840969   228A      0.854143   229A      0.860797  
     230A      0.863392   231A      0.865978   232A      0.870330  
     233A      0.872204   234A      0.876389   235A      0.886852  
     236A      0.889873   237A      0.892266   238A      0.897900  
     239A      0.897968   240A      0.909485   241A      0.911113  
     242A      0.916369   243A      0.926255   244A      0.930561  
     245A      0.934244   246A      0.936196   247A      0.941693  
     248A      0.947759   249A      0.950997   250A      0.952484  
     251A      0.957457   252A      0.959525   253A      0.963536  
     254A      0.970931   255A      0.973266   256A      0.974628  
     257A      0.981629   258A      0.986634   259A      0.992658  
     260A      0.998337   261A      1.003524   262A      1.011036  
     263A      1.013800   264A      1.016654   265A      1.023395  
     266A      1.023655   267A      1.031148   268A      1.035901  
     269A      1.039003   270A      1.040760   271A      1.049400  
     272A      1.051612   273A      1.052499   274A      1.057993  
     275A      1.060827   276A      1.063383   277A      1.068635  
     278A      1.068757   279A      1.074501   280A      1.084784  
     281A      1.095322   282A      1.101637   283A      1.104361  
     284A      1.108043   285A      1.111763   286A      1.117969  
     287A      1.122354   288A      1.125925   289A      1.133091  
     290A      1.138203   291A      1.142138   292A      1.149167  
     293A      1.156524   294A      1.164914   295A      1.171211  
     296A      1.180642   297A      1.181719   298A      1.184979  
     299A      1.190629   300A      1.190984   301A      1.203317  
     302A      1.207446   303A      1.208065   304A      1.214702  
     305A      1.215901   306A      1.225472   307A      1.229075  
     308A      1.234295   309A      1.237978   310A      1.241008  
     311A      1.245524   312A      1.250799   313A      1.256862  
     314A      1.263493   315A      1.269052   316A      1.270903  
     317A      1.286715   318A      1.289199   319A      1.304591  
     320A      1.306888   321A      1.316656   322A      1.324454  
     323A      1.325178   324A      1.328701   325A      1.337588  
     326A      1.347129   327A      1.352126   328A      1.356052  
     329A      1.357303   330A      1.358154   331A      1.367844  
     332A      1.373926   333A      1.391766   334A      1.392155  
     335A      1.396559   336A      1.410536   337A      1.413115  
     338A      1.435459   339A      1.437089   340A      1.443386  
     341A      1.453065   342A      1.457662   343A      1.466678  
     344A      1.474289   345A      1.483588   346A      1.494693  
     347A      1.509187   348A      1.517013   349A      1.521708  
     350A      1.523029   351A      1.528432   352A      1.532995  
     353A      1.537809   354A      1.555269   355A      1.563241  
     356A      1.571259   357A      1.584377   358A      1.587528  
     359A      1.596596   360A      1.607799   361A      1.614208  
     362A      1.622691   363A      1.629859   364A      1.634258  
     365A      1.651325   366A      1.657755   367A      1.659856  
     368A      1.666206   369A      1.666977   370A      1.676938  
     371A      1.681226   372A      1.698701   373A      1.701254  
     374A      1.711437   375A      1.720948   376A      1.725674  
     377A      1.732096   378A      1.737151   379A      1.738829  
     380A      1.743871   381A      1.753333   382A      1.760869  
     383A      1.772270   384A      1.779402   385A      1.787494  
     386A      1.788047   387A      1.797882   388A      1.810964  
     389A      1.811532   390A      1.824099   391A      1.830950  
     392A      1.839823   393A      1.842114   394A      1.847709  
     395A      1.850064   396A      1.863194   397A      1.873817  
     398A      1.879689   399A      1.889308   400A      1.916295  
     401A      1.920580   402A      1.930623   403A      1.931510  
     404A      1.944522   405A      1.960730   406A      1.962171  
     407A      1.973325   408A      1.977112   409A      1.979578  
     410A      1.991769   411A      1.995467   412A      1.999722  
     413A      2.005853   414A      2.017632   415A      2.023280  
     416A      2.026584   417A      2.026719   418A      2.031600  
     419A      2.052525   420A      2.053668   421A      2.057514  
     422A      2.067262   423A      2.071419   424A      2.083729  
     425A      2.092387   426A      2.098212   427A      2.112978  
     428A      2.117701   429A      2.130716   430A      2.140193  
     431A      2.148226   432A      2.150119   433A      2.156248  
     434A      2.166865   435A      2.180802   436A      2.183788  
     437A      2.197050   438A      2.199581   439A      2.211715  
     440A      2.220299   441A      2.223713   442A      2.226309  
     443A      2.239865   444A      2.246932   445A      2.253952  
     446A      2.258270   447A      2.264952   448A      2.271484  
     449A      2.295779   450A      2.301781   451A      2.302628  
     452A      2.312233   453A      2.314807   454A      2.326923  
     455A      2.331460   456A      2.332179   457A      2.354777  
     458A      2.373752   459A      2.392129   460A      2.406681  
     461A      2.415940   462A      2.420376   463A      2.427305  
     464A      2.437192   465A      2.452844   466A      2.458139  
     467A      2.461770   468A      2.470598   469A      2.484926  
     470A      2.494459   471A      2.497245   472A      2.511409  
     473A      2.518117   474A      2.538908   475A      2.551732  
     476A      2.556761   477A      2.572406   478A      2.580014  
     479A      2.597718   480A      2.612494   481A      2.631244  
     482A      2.642884   483A      2.647108   484A      2.666867  
     485A      2.678874   486A      2.699539   487A      2.730200  
     488A      2.740070   489A      2.741804   490A      2.761697  
     491A      2.776593   492A      2.801115   493A      2.806198  
     494A      2.824559   495A      2.827457   496A      2.839678  
     497A      2.861165   498A      2.865947   499A      2.889432  
     500A      2.893656   501A      2.939662   502A      2.944420  
     503A      2.947077   504A      2.990344   505A      3.009053  
     506A      3.033605   507A      3.037029   508A      3.061246  
     509A      3.076012   510A      3.093693   511A      3.104476  
     512A      3.118601   513A      3.139640   514A      3.146844  
     515A      3.154419   516A      3.164036   517A      3.172742  
     518A      3.184140   519A      3.193616   520A      3.209357  
     521A      3.223762   522A      3.245606   523A      3.255368  
     524A      3.270219   525A      3.285470   526A      3.296527  
     527A      3.305977   528A      3.330395   529A      3.330888  
     530A      3.345486   531A      3.351547   532A      3.354654  
     533A      3.364051   534A      3.366886   535A      3.394040  
     536A      3.400975   537A      3.412807   538A      3.424514  
     539A      3.429017   540A      3.436021   541A      3.441657  
     542A      3.451697   543A      3.453941   544A      3.471546  
     545A      3.471983   546A      3.491212   547A      3.512413  
     548A      3.513571   549A      3.518938   550A      3.522151  
     551A      3.535534   552A      3.537251   553A      3.546719  
     554A      3.550811   555A      3.579527   556A      3.580419  
     557A      3.581760   558A      3.594147   559A      3.599842  
     560A      3.614646   561A      3.622793   562A      3.632155  
     563A      3.643520   564A      3.649015   565A      3.657328  
     566A      3.667004   567A      3.667977   568A      3.684659  
     569A      3.704192   570A      3.705863   571A      3.710110  
     572A      3.715877   573A      3.736162   574A      3.739312  
     575A      3.752029   576A      3.758239   577A      3.758680  
     578A      3.772222   579A      3.788951   580A      3.792638  
     581A      3.804132   582A      3.819923   583A      3.829353  
     584A      3.833408   585A      3.835548   586A      3.840299  
     587A      3.850754   588A      3.860871   589A      3.870933  
     590A      3.886022   591A      3.892374   592A      3.900146  
     593A      3.907822   594A      3.911983   595A      3.920514  
     596A      3.931685   597A      3.949421   598A      3.959068  
     599A      3.959484   600A      3.967148   601A      3.971798  
     602A      3.979112   603A      3.980070   604A      3.984210  
     605A      4.000729   606A      4.009965   607A      4.023544  
     608A      4.032305   609A      4.032982   610A      4.044303  
     611A      4.066654   612A      4.077924   613A      4.078591  
     614A      4.087365   615A      4.093052   616A      4.105879  
     617A      4.121707   618A      4.143909   619A      4.145713  
     620A      4.146623   621A      4.159404   622A      4.173416  
     623A      4.192189   624A      4.197137   625A      4.205435  
     626A      4.212167   627A      4.217016   628A      4.217767  
     629A      4.227327   630A      4.236941   631A      4.246913  
     632A      4.264990   633A      4.275158   634A      4.280851  
     635A      4.283640   636A      4.296052   637A      4.305023  
     638A      4.307618   639A      4.314323   640A      4.325038  
     641A      4.325552   642A      4.328587   643A      4.342523  
     644A      4.356872   645A      4.362514   646A      4.366843  
     647A      4.377561   648A      4.388046   649A      4.393892  
     650A      4.416009   651A      4.419110   652A      4.424133  
     653A      4.446223   654A      4.453785   655A      4.466521  
     656A      4.467662   657A      4.478397   658A      4.494646  
     659A      4.502072   660A      4.513685   661A      4.529651  
     662A      4.550554   663A      4.551879   664A      4.558771  
     665A      4.569331   666A      4.587494   667A      4.589947  
     668A      4.596450   669A      4.604586   670A      4.604857  
     671A      4.630560   672A      4.633348   673A      4.636228  
     674A      4.656068   675A      4.656707   676A      4.682088  
     677A      4.694886   678A      4.721829   679A      4.731827  
     680A      4.736890   681A      4.740070   682A      4.754505  
     683A      4.771568   684A      4.775567   685A      4.791296  
     686A      4.810907   687A      4.828769   688A      4.849685  
     689A      4.879798   690A      4.886668   691A      4.889160  
     692A      4.889618   693A      4.924813   694A      4.925989  
     695A      4.944004   696A      4.950836   697A      4.975320  
     698A      4.988595   699A      4.990665   700A      5.006970  
     701A      5.024612   702A      5.032337   703A      5.048929  
     704A      5.055194   705A      5.062589   706A      5.099393  
     707A      5.105105   708A      5.106025   709A      5.120469  
     710A      5.127971   711A      5.128829   712A      5.144083  
     713A      5.152254   714A      5.162976   715A      5.164461  
     716A      5.168526   717A      5.190617   718A      5.195745  
     719A      5.204095   720A      5.241292   721A      5.268538  
     722A      5.274191   723A      5.297869   724A      5.322707  
     725A      5.325361   726A      5.349795   727A      5.350791  
     728A      5.371251   729A      5.386872   730A      5.426076  
     731A      5.437427   732A      5.454833   733A      5.475148  
     734A      5.482732   735A      5.503973   736A      5.542788  
     737A      5.544930   738A      5.553219   739A      5.575359  
     740A      5.585277   741A      5.593207   742A      5.611185  
     743A      5.653112   744A      5.699636   745A      5.737824  
     746A      5.752020   747A      5.752880   748A      5.781967  
     749A      5.790347   750A      5.797696   751A      5.833206  
     752A      5.841753   753A      5.843129   754A      5.894096  
     755A      5.903535   756A      5.914995   757A      5.957324  
     758A      6.007077   759A      6.036678   760A      6.086546  
     761A      6.117928   762A      6.181097   763A      6.223452  
     764A      6.239214   765A      6.264205   766A      6.293364  
     767A      6.364828   768A      6.383621   769A      6.417428  
     770A      6.438865   771A      6.474765   772A      6.517864  
     773A      6.552469   774A      6.619610   775A      6.661544  
     776A      6.686710   777A      6.709982   778A      6.733849  
     779A      6.755981   780A      6.773395   781A      6.806159  
     782A      6.878452   783A      6.891589   784A      6.904547  
     785A      6.937047   786A      6.984373   787A      6.998307  
     788A      7.054244   789A      7.096214   790A      7.116678  
     791A      7.211356   792A      7.246732   793A      7.405727  
     794A      7.409218   795A      7.460654   796A      7.531738  
     797A      7.663737   798A      7.694996   799A      7.748413  
     800A      8.006061   801A      8.381141   802A      8.632884  
     803A      9.081160   804A      9.234817   805A      9.280702  
     806A      9.400779   807A      9.420532   808A      9.518756  
     809A      9.629682   810A      9.643959   811A      9.700042  
     812A      9.731495   813A     10.123218   814A     10.166294  
     815A     15.625658   816A     16.299567   817A     16.651492  
     818A     17.003177   819A     17.086391   820A     17.669350  
     821A     18.679630   822A     18.975258   823A     19.952817  
     824A     20.245635   825A     20.871532   826A     21.003221  
     827A     21.188172   828A     21.281418  

    Final Occupation by Irrep:
              A 
    DOCC [    49 ]

  Energy converged.

  @DF-RHF Final Energy:  -650.15513230364820

   => Energetics <=

    Nuclear Repulsion Energy =            818.1038784207956951
    One-Electron Energy =               -2510.8470582484187617
    Two-Electron Energy =                1042.5880475239746374
    DFT Exchange-Correlation Energy =       0.0000000000000000
    Empirical Dispersion Energy =           0.0000000000000000
    PCM Polarization Energy =               0.0000000000000000
    EFP Energy =                            0.0000000000000000
    Total Energy =                       -650.1551323036483154



Properties will be evaluated at   0.000000,   0.000000,   0.000000 Bohr

Properties computed using the SCF density matrix

  Nuclear Dipole Moment: (a.u.)
     X:    -2.1329      Y:     1.3076      Z:    -4.2675

  Electronic Dipole Moment: (a.u.)
     X:     0.9677      Y:    -0.6924      Z:     5.1076

  Dipole Moment: (a.u.)
     X:    -1.1652      Y:     0.6151      Z:     0.8401     Total:     1.5626

  Dipole Moment: (Debye)
     X:    -2.9616      Y:     1.5635      Z:     2.1352     Total:     3.9718


*** tstop() called on gpu-2-12.local at Sat Nov 11 21:48:29 2017
Module time:
	user time   =    1290.45 seconds =      21.51 minutes
	system time =      55.51 seconds =       0.93 minutes
	total time  =        542 seconds =       9.03 minutes
Total time:
	user time   =    1290.45 seconds =      21.51 minutes
	system time =      55.51 seconds =       0.93 minutes
	total time  =        542 seconds =       9.03 minutes

  //>>>>>>>>>>>>>>>>>>>>>>>>>>>>>>>>>>>//
  //               DFMP2               //
  //<<<<<<<<<<<<<<<<<<<<<<<<<<<<<<<<<<<//

   => Loading Basis Set <=

    Name: (AUG-CC-PVTZ AUX)
    Role: RIFIT
    Keyword: DF_BASIS_MP2
    atoms 1-11  entry C          line   147 file /cbio/jclab/home/chayas/anaconda/envs/py35/share/psi4/basis/aug-cc-pvtz-ri.gbs 
    atoms 12    entry N          line   205 file /cbio/jclab/home/chayas/anaconda/envs/py35/share/psi4/basis/aug-cc-pvtz-ri.gbs 
    atoms 13    entry O          line   263 file /cbio/jclab/home/chayas/anaconda/envs/py35/share/psi4/basis/aug-cc-pvtz-ri.gbs 
    atoms 14    entry F          line   321 file /cbio/jclab/home/chayas/anaconda/envs/py35/share/psi4/basis/aug-cc-pvtz-ri.gbs 
    atoms 15-22 entry H          line    29 file /cbio/jclab/home/chayas/anaconda/envs/py35/share/psi4/basis/aug-cc-pvtz-ri.gbs 

	 --------------------------------------------------------
	                          DF-MP2                         
	      2nd-Order Density-Fitted Moller-Plesset Theory     
	              RMP2 Wavefunction,   8 Threads             
	                                                         
	        Rob Parrish, Justin Turney, Andy Simmonett,      
	           Ed Hohenstein, and C. David Sherrill          
	 --------------------------------------------------------

   => Auxiliary Basis Set <=

  Basis Set: (AUG-CC-PVTZ AUX)
    Blend: AUG-CC-PVTZ-RI
    Number of shells: 504
    Number of basis function: 1852
    Number of Cartesian functions: 2344
    Spherical Harmonics?: true
    Max angular momentum: 4

	 --------------------------------------------------------
	                 NBF =   828, NAUX =  1852
	 --------------------------------------------------------
	   CLASS    FOCC     OCC    AOCC    AVIR     VIR    FVIR
	   PAIRS       0      49      49     779     779       0
	 --------------------------------------------------------


         ------------------------------------------------------------
                                     CPHF                           
                                  Rob Parrish                       
         ------------------------------------------------------------

  ==> Geometry <==

    Molecular point group: c1
    Full point group: C1

    Geometry (in Angstrom), charge = 0, multiplicity = 1:

       Center              X                  Y                   Z               Mass       
    ------------   -----------------  -----------------  -----------------  -----------------
           C         -1.321404811653     0.755805550326    -0.799992440154    12.000000000000
           C         -2.399404811653     1.328805550326    -0.126992440154    12.000000000000
           C          1.867595188347    -1.027194449674    -0.070992440154    12.000000000000
           C          0.871595188347    -0.412194449674    -2.171992440154    12.000000000000
           C         -1.406404811653     0.712805550326     1.988007559846    12.000000000000
           C          2.912595188347    -1.583194449674    -0.790992440154    12.000000000000
           C          1.961595188347    -0.995194449674    -2.797992440154    12.000000000000
           C         -0.285404811653     0.160805550326    -0.079992440154    12.000000000000
           C          0.831595188347    -0.433194449674    -0.782992440154    12.000000000000
           C         -2.442404811653     1.307805550326     1.267007559846    12.000000000000
           C         -0.328404811653     0.139805550326     1.314007559846    12.000000000000
           N          2.987595188347    -1.582194449674    -2.140992440154    14.003074004780
           O         -3.495404811653     1.867805550326     1.924007559846    15.994914619560
           F          0.659595188347    -0.428194449674     2.021007559846    18.998403224000
           H         -1.302404811653     0.779805550326    -1.886992440154     1.007825032070
           H         -3.204404811653     1.789805550326    -0.693992440154     1.007825032070
           H          1.870595188347    -1.064194449674     1.013007559846     1.007825032070
           H          0.081595188347     0.042805550326    -2.760992440154     1.007825032070
           H         -1.434404811653     0.692805550326     3.074007559846     1.007825032070
           H          3.744595188347    -2.060194449674    -0.282992440154     1.007825032070
           H          2.041595188347    -1.005194449674    -3.879992440154     1.007825032070
           H         -3.381404811653     1.773805550326     2.883007559846     1.007825032070

  Nuclear repulsion =  818.103878420795695
  Reference energy  = -650.155132303648202

  ==> Basis Set <==

  Basis Set: AUG-CC-PVTZ
    Blend: AUG-CC-PVTZ
    Number of shells: 268
    Number of basis function: 828
    Number of Cartesian functions: 970
    Spherical Harmonics?: true
    Max angular momentum: 3

  ==> CGRSolver (by Rob Parrish) <==

   Number of roots    =         1
   Preconditioning    =    JACOBI
   Convergence cutoff =     1E-06
   Maximum iterations =       100

  ==> CPHFRHamiltonian (by Rob Parrish) <== 

  ==> DFJK: Density-Fitted J/K Matrices <==

    J tasked:                  Yes
    K tasked:                  Yes
    wK tasked:                  No
    OpenMP threads:              8
    Integrals threads:           8
    Memory (MB):              3576
    Algorithm:                Disk
    Integral Cache:           NONE
    Schwarz Cutoff:          1E-12
    Fitting Condition:       1E-12

   => Auxiliary Basis Set <=

  Basis Set: (AUG-CC-PVTZ AUX)
    Blend: AUG-CC-PVTZ-JKFIT
    Number of shells: 532
    Number of basis function: 1824
    Number of Cartesian functions: 2274
    Spherical Harmonics?: true
    Max angular momentum: 4

  ==> CPHF Iterations <==

  => Iterations <=

             Iter  Converged  Remaining    Residual
  CGR           1          0          1   1.056E-01
  CGR           2          0          1   3.714E-02
  CGR           3          0          1   2.589E-02
  CGR           4          0          1   1.090E-02
  CGR           5          0          1   4.638E-03
  CGR           6          0          1   1.762E-03
  CGR           7          0          1   5.069E-04
  CGR           8          0          1   1.692E-04
  CGR           9          0          1   5.910E-05
  CGR          10          0          1   2.183E-05
  CGR          11          0          1   1.152E-05
  CGR          12          0          1   4.708E-06
  CGR          13          0          1   1.963E-06
  CGR          14          1          0   6.174E-07

    CGRSolver converged.

  ==> DFCorrGrad: Density-Fitted Correlated Gradients <==

    OpenMP threads:              8
    Integrals threads:           8
    Memory (MB):              3576
    Schwarz Cutoff:          0E+00
    Fitting Condition:       1E-12

   => Auxiliary Basis Set <=

  Basis Set: (AUG-CC-PVTZ AUX)
    Blend: AUG-CC-PVTZ-JKFIT
    Number of shells: 532
    Number of basis function: 1824
    Number of Cartesian functions: 2274
    Spherical Harmonics?: true
    Max angular momentum: 4

	-----------------------------------------------------------
	 ==================> DF-MP2 Energies <==================== 
	-----------------------------------------------------------
	 Reference Energy          =    -650.1551323036482017 [Eh]
	 Singles Energy            =      -0.0000000000000001 [Eh]
	 Same-Spin Energy          =      -0.6799869858658587 [Eh]
	 Opposite-Spin Energy      =      -2.0231439807756431 [Eh]
	 Correlation Energy        =      -2.7031309666415018 [Eh]
	 Total Energy              =    -652.8582632702897399 [Eh]
	-----------------------------------------------------------
	 ================> DF-SCS-MP2 Energies <================== 
	-----------------------------------------------------------
	 SCS Same-Spin Scale       =       0.3333333333333333 [-]
	 SCS Opposite-Spin Scale   =       1.2000000000000000 [-]
	 SCS Same-Spin Energy      =      -0.2266623286219529 [Eh]
	 SCS Opposite-Spin Energy  =      -2.4277727769307718 [Eh]
	 SCS Correlation Energy    =      -2.6544351055527247 [Eh]
	 SCS Total Energy          =    -652.8095674092008949 [Eh]
	-----------------------------------------------------------


  -Total Gradient:
     Atom            X                  Y                   Z
    ------   -----------------  -----------------  -----------------
       1        0.013967565379    -0.007032779138    -0.017808246244
       2        0.001752712695    -0.001107969899     0.005817654607
       3       -0.017360441068     0.009602656758     0.008362837207
       4       -0.010488599184     0.005641013922     0.004245666502
       5       -0.008827587601     0.004829119708     0.000812252664
       6       -0.003406864084     0.001293840477     0.016265426660
       7       -0.009752893999     0.005289690923    -0.002588063455
       8       -0.008519053180     0.004495628101     0.002415277213
       9        0.004914191379    -0.002577744877    -0.004689504592
      10       -0.008232925767     0.004762495305    -0.006456228957
      11        0.029291590459    -0.016357436908     0.006678415432
      12        0.011135242781    -0.005766130527    -0.008010784376
      13        0.002511409052    -0.001389378081     0.000784921811
      14        0.018628763021    -0.009587795735    -0.021317695739
      15        0.001385429929    -0.000451367580    -0.010433875641
      16       -0.002979793651     0.001738403578    -0.005289216803
      17       -0.008120411206     0.003702121861     0.021436480294
      18       -0.007341490736     0.004155410369    -0.001945773133
      19       -0.001015154448     0.000401341101     0.004149847265
      20        0.002564742301    -0.001501553842     0.000708701684
      21        0.001025867127    -0.000462016085    -0.002449585810
      22       -0.001132299200     0.000322450567     0.009311493436


*** tstop() called on gpu-2-12.local at Sat Nov 11 22:25:39 2017
Module time:
	user time   =    5852.22 seconds =      97.54 minutes
	system time =     115.02 seconds =       1.92 minutes
	total time  =       2772 seconds =      46.20 minutes
Total time:
	user time   =    5852.22 seconds =      97.54 minutes
	system time =     115.02 seconds =       1.92 minutes
	total time  =       2772 seconds =      46.20 minutes

			-----------------------------------------
			 OPTKING 2.0: for geometry optimizations 
			  - R.A. King,  Bethel University        
			-----------------------------------------

	Internal coordinates to be generated automatically.
	Detected frag 1 with atoms:  1 2 3 4 5 6 7 8 9 10 11 12 13 14 15 16 17 18 19 20
	 21 22
	---Fragment 1 Bond Connectivity---
	 1 : 2 8 15
	 2 : 1 10 16
	 3 : 6 9 17
	 4 : 7 9 18
	 5 : 10 11 19
	 6 : 3 12 20
	 7 : 4 12 21
	 8 : 1 9 11
	 9 : 3 4 8
	 10 : 2 5 13
	 11 : 5 8 14
	 12 : 6 7
	 13 : 10 22
	 14 : 11
	 15 : 1
	 16 : 2
	 17 : 3
	 18 : 4
	 19 : 5
	 20 : 6
	 21 : 7
	 22 : 13

	Assuming in current code that numbering for constraints corresponds to unified fragment.
	Fixed dihedral atom list: 
	     1     8     9     3
	---Fragment 1 Geometry and Gradient---
	 C          -2.4970932047        1.4282654998       -1.5117666203
	 C          -4.5342179760        2.5110785740       -0.2399809328
	 C           3.5292434331       -1.9411161951       -0.1341562694
	 C           1.6470762047       -0.7789346234       -4.1044708746
	 C          -2.6577199260        1.3470072761        3.7567898382
	 C           5.5040072419       -2.9918039250       -1.4947590851
	 C           3.7068776896       -1.8806449589       -5.2874394338
	 C          -0.5393369310        0.3038784508       -0.1511638046
	 C           1.5714871594       -0.8186188722       -1.4796412760
	 C          -4.6154761997        2.4713943252        2.3942972964
	 C          -0.6205951547        0.2641942020        2.4831144246
	 N           5.6457367019       -2.9899141989       -4.0458893645
	 O          -6.6053578176        3.5296409596        3.6358473657
	 F           1.2464542645       -0.8091702415        3.8191508006
	 H          -2.4611884082        1.4736189270       -3.5658989267
	 H          -6.0554475129        3.3822423212       -1.3114556502
	 H           3.5349126115       -2.0110360620        1.9143068587
	 H           0.1541925597        0.0808907671       -5.2175195669
	 H          -2.7106322577        1.3092127535        5.8090324185
	 H           7.0762593845       -3.8932032904       -0.5347782096
	 H           3.8580557802       -1.8995422202       -7.3321231096
	 H          -6.3899290384        3.3520067031        5.4480947271
	             0.0139675654       -0.0070327791       -0.0178082462
	             0.0017527127       -0.0011079699        0.0058176546
	            -0.0173604411        0.0096026568        0.0083628372
	            -0.0104885992        0.0056410139        0.0042456665
	            -0.0088275876        0.0048291197        0.0008122527
	            -0.0034068641        0.0012938405        0.0162654267
	            -0.0097528940        0.0052896909       -0.0025880635
	            -0.0085190532        0.0044956281        0.0024152772
	             0.0049141914       -0.0025777449       -0.0046895046
	            -0.0082329258        0.0047624953       -0.0064562290
	             0.0292915905       -0.0163574369        0.0066784154
	             0.0111352428       -0.0057661305       -0.0080107844
	             0.0025114091       -0.0013893781        0.0007849218
	             0.0186287630       -0.0095877957       -0.0213176957
	             0.0013854299       -0.0004513676       -0.0104338756
	            -0.0029797937        0.0017384036       -0.0052892168
	            -0.0081204112        0.0037021219        0.0214364803
	            -0.0073414907        0.0041554104       -0.0019457731
	            -0.0010151544        0.0004013411        0.0041498473
	             0.0025647423       -0.0015015538        0.0007087017
	             0.0010258671       -0.0004620161       -0.0024495858
	            -0.0011322992        0.0003224506        0.0093114934

	Previous optimization step data not found.  Starting new optimization.

	---Fragment 1 Intrafragment Coordinates---
	 - Coordinate -           - BOHR/RAD -       - ANG/DEG -
	 R(1,2)           =         2.634350	       1.394038
	 R(1,8)           =         2.635962	       1.394891
	 R(1,15)          =         2.054947	       1.087431
	 R(2,10)          =         2.635830	       1.394821
	 R(2,16)          =         2.054537	       1.087214
	 R(3,6)           =         2.618182	       1.385482
	 R(3,9)           =         2.627383	       1.390351
	 R(3,17)          =         2.049664	       1.084635
	 R(4,7)           =         2.618389	       1.385592
	 R(4,9)           =         2.626218	       1.389735
	 R(4,18)          =         2.051068	       1.085378
	 R(5,10)          =         2.636938	       1.395407
	 R(5,11)          =         2.635263	       1.394521
	 R(5,19)          =         2.053272	       1.086545
	 R(6,12)          =         2.555065	       1.352082
	 R(6,20)          =         2.050868	       1.085273
	 R(7,12)          =         2.555602	       1.352366
	 R(7,21)          =         2.050352	       1.085000
	 R(8,9)           =         2.735038	       1.447320
	 R(8,11)          =         2.635830	       1.394821
	 R(10,13)         =         2.573123	       1.361638
	 R(11,14)         =         2.534359	       1.341125
	 R(13,22)         =         1.833631	       0.970316
	 B(1,2,10)        =         2.094553	     120.009056
	 B(1,2,16)        =         2.088723	     119.675016
	 B(1,8,9)         =         2.091569	     119.838095
	 B(1,8,11)        =         2.093692	     119.959722
	 B(2,1,8)         =         2.094940	     120.031219
	 B(2,1,15)        =         2.079469	     119.144799
	 B(2,10,5)        =         2.094306	     119.994870
	 B(2,10,13)       =         2.094247	     119.991510
	 B(3,6,12)        =         2.165684	     124.084561
	 B(3,6,20)        =         2.107561	     120.754361
	 B(3,9,4)         =         2.090749	     119.791101
	 B(3,9,8)         =         2.096330	     120.110888
	 B(4,7,12)        =         2.165141	     124.053421
	 B(4,7,21)        =         2.108802	     120.825465
	 B(4,9,8)         =         2.096106	     120.098002
	 B(5,10,13)       =         2.094633	     120.013619
	 B(5,11,8)        =         2.095181	     120.045019
	 B(5,11,14)       =         2.081414	     119.256220
	 B(6,3,9)         =         2.057078	     117.861898
	 B(6,3,17)        =         2.098551	     120.238089
	 B(6,12,7)        =         2.030078	     116.314923
	 B(7,4,9)         =         2.057639	     117.894043
	 B(7,4,18)        =         2.098781	     120.251308
	 B(8,1,15)        =         2.108776	     120.823969
	 B(8,11,14)       =         2.106591	     120.698759
	 B(9,3,17)        =         2.127553	     121.899835
	 B(9,4,18)        =         2.126765	     121.854649
	 B(9,8,11)        =         2.097924	     120.202184
	 B(10,2,16)       =         2.099909	     120.315896
	 B(10,5,11)       =         2.093699	     119.960108
	 B(10,5,19)       =         2.100355	     120.341451
	 B(10,13,22)      =         1.924294	     110.253909
	 B(11,5,19)       =         2.089132	     119.698439
	 B(12,6,20)       =         2.009940	     115.161077
	 B(12,7,21)       =         2.009242	     115.121094
	 D(1,2,10,5)      =        -0.000325	      -0.018609
	 D(1,2,10,13)     =         3.141388	     179.988267
	 D(1,8,9,3)       =         3.141052	     179.969024
	 D(1,8,9,4)       =        -0.001121	      -0.064212
	 D(1,8,11,5)      =         0.000325	       0.018608
	 D(1,8,11,14)     =        -3.141528	    -179.996269
	 D(2,1,8,9)       =         3.141277	     179.981897
	 D(2,1,8,11)      =        -0.000348	      -0.019945
	 D(2,10,5,11)     =         0.000301	       0.017261
	 D(2,10,5,19)     =        -3.141029	    -179.967685
	 D(2,10,13,22)    =         3.141285	     179.982383
	 D(3,6,12,7)      =        -0.001343	      -0.076939
	 D(3,9,4,7)       =         0.000493	       0.028234
	 D(3,9,4,18)      =        -3.141006	    -179.966412
	 D(3,9,8,11)      =        -0.000508	      -0.029130
	 D(4,7,12,6)      =         0.000738	       0.042271
	 D(4,9,3,6)       =        -0.001034	      -0.059236
	 D(4,9,3,17)      =        -3.139956	    -179.906224
	 D(4,9,8,11)      =         3.140504	     179.937634
	 D(5,10,2,16)     =         3.140149	     179.917291
	 D(5,10,13,22)    =        -0.000187	      -0.010740
	 D(5,11,8,9)      =        -3.141300	    -179.983240
	 D(6,3,9,8)       =         3.139980	     179.907630
	 D(6,12,7,21)     =         3.141435	     179.990943
	 D(7,4,9,8)       =        -3.140522	    -179.938636
	 D(7,12,6,20)     =         3.140016	     179.909637
	 D(8,1,2,10)      =         0.000348	       0.019955
	 D(8,1,2,16)      =        -3.140133	    -179.916358
	 D(8,9,3,17)      =         0.001058	       0.060642
	 D(8,9,4,18)      =         0.001164	       0.066717
	 D(8,11,5,10)     =        -0.000301	      -0.017270
	 D(8,11,5,19)     =         3.141030	     179.967774
	 D(9,3,6,12)      =         0.001517	       0.086902
	 D(9,3,6,20)      =        -3.139829	    -179.898960
	 D(9,4,7,12)      =        -0.000348	      -0.019946
	 D(9,4,7,21)      =        -3.140996	    -179.965828
	 D(9,8,1,15)      =         0.000403	       0.023110
	 D(9,8,11,14)     =         0.000033	       0.001883
	 D(10,2,1,15)     =         3.141234	     179.979432
	 D(10,5,11,14)    =         3.141547	     179.997392
	 D(11,5,10,13)    =        -3.141411	    -179.989616
	 D(11,8,1,15)     =        -3.141221	    -179.978731
	 D(12,6,3,17)     =         3.140485	     179.936541
	 D(12,7,4,18)     =         3.141153	     179.974790
	 D(13,10,2,16)    =        -0.001324	      -0.075833
	 D(13,10,5,19)    =         0.000444	       0.025437
	 D(14,11,5,19)    =        -0.000307	      -0.017564
	 D(15,1,2,16)     =         0.000753	       0.043120
	 D(17,3,6,20)     =        -0.000861	      -0.049321
	 D(18,4,7,21)     =         0.000505	       0.028908
	 R(3,14)          =         4.703304	       2.488881

	Current energy   :      -652.8582632703

	Generating empirical Hessian (Schlegel '84) for each fragment.
	Adding user-defined constraint: Fragment 1; Coordinate 61:
		Value =     3.141052; Fixed value    =    -3.141575
		Force =    -3.141314; Force constant =     0.500000
	Removing off-diagonal coupling between coordinate 61 and others.
	Taking RFO optimization step.
	Going to follow RFO solution 1.
	Using RFO vector 1.

	Determining step-restricting scale parameter for RS-RFO.
	Maximum step size allowed    0.10000

	 Iter      |step|        alpha        rfo_root  
	------------------------------------------------
	    0     0.94856       1.00000           1
	    1     0.57035       2.88880           1
	    2     0.35121       7.80618           1
	    3     0.22555      19.18847           1
	    4     0.15524      40.81132           1
	    5     0.11869      70.09950           1
	    6     0.10351      92.31323           1
	    7     0.10017      98.60725           1
	    8     0.10000      98.94222           1
	------------------------------------------------
	Norm of target step-size    0.10000
	Projected energy change by RFO approximation:        -0.1986896411

	Back-transformation to cartesian coordinates...
	Could not converge backtransformation.
	Using first guess instead.

	--- Internal Coordinate Step in ANG or DEG, aJ/ANG or AJ/DEG ---
	 ---------------------------------------------------------------------------
	   Coordinate                Previous        Force       Change         New 
	   ----------                --------       ------       ------       ------
	    1 R(1,2)          =      1.394038    -0.070013    -0.000154     1.393884
	    2 R(1,8)          =      1.394891     0.023796     0.000554     1.395445
	    3 R(1,15)         =      1.087431    -0.086045    -0.000147     1.087284
	    4 R(2,10)         =      1.394821    -0.089136    -0.000178     1.394644
	    5 R(2,16)         =      1.087214    -0.046976     0.000151     1.087365
	    6 R(3,6)          =      1.385482     0.021265     0.000158     1.385640
	    7 R(3,9)          =      1.390351     0.090082     0.000866     1.391217
	    8 R(3,17)         =      1.084635    -0.175280    -0.000420     1.084216
	    9 R(4,7)          =      1.385592    -0.021715     0.000048     1.385640
	   10 R(4,9)          =      1.389735     0.053580     0.000200     1.389935
	   11 R(4,18)         =      1.085378    -0.067075     0.000004     1.085383
	   12 R(5,10)         =      1.395407    -0.070590     0.000067     1.395474
	   13 R(5,11)         =      1.394521    -0.112805    -0.000290     1.394231
	   14 R(5,19)         =      1.086545    -0.034327    -0.000062     1.086483
	   15 R(6,12)         =      1.352082    -0.138798    -0.000345     1.351737
	   16 R(6,20)         =      1.085273    -0.024369     0.000303     1.085575
	   17 R(7,12)         =      1.352366    -0.143312    -0.000100     1.352267
	   18 R(7,21)         =      1.085000    -0.020784    -0.000034     1.084966
	   19 R(8,9)          =      1.447320     0.196949     0.000629     1.447949
	   20 R(8,11)         =      1.394821    -0.075661    -0.000209     1.394612
	   21 R(10,13)        =      1.361638    -0.027734    -0.000016     1.361622
	   22 R(11,14)        =      1.341125    -0.049693     0.000053     1.341178
	   23 R(13,22)        =      0.970316    -0.074467    -0.000138     0.970178
	   24 B(1,2,10)       =    120.009056    -0.000055    -0.014237   119.994819
	   25 B(1,2,16)       =    119.675016     0.000236     0.013619   119.688636
	   26 B(1,8,9)        =    119.838095     0.001461     0.041223   119.879317
	   27 B(1,8,11)       =    119.959722    -0.001716    -0.065217   119.894504
	   28 B(2,1,8)        =    120.031219     0.000830     0.035436   120.066655
	   29 B(2,1,15)       =    119.144799    -0.000521    -0.034856   119.109943
	   30 B(2,10,5)       =    119.994870    -0.000174     0.000635   119.995505
	   31 B(2,10,13)      =    119.991510    -0.000684    -0.038293   119.953218
	   32 B(3,6,12)       =    124.084561     0.000434     0.001702   124.086263
	   33 B(3,6,20)       =    120.754361    -0.000277    -0.004410   120.749951
	   34 B(3,9,4)        =    119.791101    -0.001509    -0.058597   119.732504
	   35 B(3,9,8)        =    120.110888     0.000955     0.024593   120.135481
	   36 B(4,7,12)       =    124.053421     0.000110     0.011216   124.064636
	   37 B(4,7,21)       =    120.825465    -0.000127    -0.015432   120.810033
	   38 B(4,9,8)        =    120.098002     0.000572     0.020075   120.118077
	   39 B(5,10,13)      =    120.013619     0.000858     0.037520   120.051139
	   40 B(5,11,8)       =    120.045019     0.001326     0.043251   120.088270
	   41 B(5,11,14)      =    119.256220    -0.000446    -0.011978   119.244243
	   42 B(6,3,9)        =    117.861898     0.000197     0.014344   117.876241
	   43 B(6,3,17)       =    120.238089    -0.000816    -0.049511   120.188578
	   44 B(6,12,7)       =    116.314923    -0.000011     0.007253   116.322176
	   45 B(7,4,9)        =    117.894043     0.000770     0.020361   117.914404
	   46 B(7,4,18)       =    120.251308    -0.000615    -0.015442   120.235866
	   47 B(8,1,15)       =    120.823969    -0.000310    -0.000691   120.823278
	   48 B(8,11,14)      =    120.698759    -0.000881    -0.031347   120.667412
	   49 B(9,3,17)       =    121.899835     0.000614     0.034930   121.934765
	   50 B(9,4,18)       =    121.854649    -0.000155    -0.004963   121.849686
	   51 B(9,8,11)       =    120.202184     0.000254     0.009527   120.211711
	   52 B(10,2,16)      =    120.315896    -0.000179     0.000645   120.316541
	   53 B(10,5,11)      =    119.960108    -0.000214    -0.003261   119.956847
	   54 B(10,5,19)      =    120.341451     0.000189     0.011298   120.352749
	   55 B(10,13,22)     =    110.253909    -0.000353    -0.025450   110.228459
	   56 B(11,5,19)      =    119.698439     0.000026    -0.008077   119.690362
	   57 B(12,6,20)      =    115.161077    -0.000156     0.002641   115.163718
	   58 B(12,7,21)      =    115.121094     0.000015     0.004040   115.125135
	   59 D(1,2,10,5)     =     -0.018609     0.000708     0.116265     0.097656
	   60 D(1,2,10,13)    =    179.988267    -0.000159    -0.025498   179.962769
	   61 D(1,8,9,3)      =    179.969024    -0.022166    -3.640136   176.328888
	   62 D(1,8,9,4)      =     -0.064212    -0.013668    -2.245308    -2.309520
	   63 D(1,8,11,5)     =      0.018608     0.003934     0.643995     0.662603
	   64 D(1,8,11,14)    =   -179.996269     0.003403     0.557802  -179.438467
	   65 D(2,1,8,9)      =    179.981897     0.004471     0.734873   180.716770
	   66 D(2,1,8,11)     =     -0.019945    -0.003930    -0.643791    -0.663736
	   67 D(2,10,5,11)    =      0.017261    -0.000705    -0.116156    -0.098895
	   68 D(2,10,5,19)    =   -179.967685    -0.001246    -0.205009  -180.172694
	   69 D(2,10,13,22)   =    179.982383     0.000434     0.070834   180.053218
	   70 D(3,6,12,7)     =     -0.076939     0.000740     0.121544     0.044605
	   71 D(3,9,4,7)      =      0.028234     0.003975     0.650819     0.679054
	   72 D(3,9,4,18)     =   -179.966412     0.003479     0.569614  -179.396798
	   73 D(3,9,8,11)     =     -0.029130    -0.013744    -2.257047    -2.286176
	   74 D(4,7,12,6)     =      0.042271    -0.000740    -0.121112    -0.078840
	   75 D(4,9,3,6)      =     -0.059236    -0.003974    -0.650227    -0.709463
	   76 D(4,9,3,17)     =   -179.906224    -0.003480    -0.569126  -180.475351
	   77 D(4,9,8,11)     =    179.937634    -0.005247    -0.862218   179.075416
	   78 D(5,10,2,16)    =    179.917291     0.001245     0.204254   180.121545
	   79 D(5,10,13,22)   =     -0.010740    -0.000434    -0.071006    -0.081746
	   80 D(5,11,8,9)     =   -179.983240    -0.004498    -0.739304  -180.722544
	   81 D(6,3,9,8)      =    179.907630     0.004498     0.739234   180.646865
	   82 D(6,12,7,21)    =    179.990943    -0.001400    -0.230133   179.760810
	   83 D(7,4,9,8)      =   -179.938636    -0.004496    -0.738398  -180.677034
	   84 D(7,12,6,20)    =    179.909637     0.001401     0.229622   180.139259
	   85 D(8,1,2,10)     =      0.019955     0.001611     0.264130     0.284085
	   86 D(8,1,2,16)     =   -179.916358     0.001078     0.176704  -179.739654
	   87 D(8,9,3,17)     =      0.060642     0.004992     0.820334     0.880977
	   88 D(8,9,4,18)     =      0.066717    -0.004992    -0.819603    -0.752886
	   89 D(8,11,5,10)    =     -0.017270    -0.001617    -0.264579    -0.281849
	   90 D(8,11,5,19)    =    179.967774    -0.001079    -0.176315   179.791459
	   91 D(9,3,6,12)     =      0.086902     0.001604     0.262166     0.349068
	   92 D(9,3,6,20)     =   -179.898960     0.000907     0.148342  -179.750618
	   93 D(9,4,7,12)     =     -0.019946    -0.001605    -0.263393    -0.283339
	   94 D(9,4,7,21)     =   -179.965828    -0.000908    -0.148478  -180.114306
	   95 D(9,8,1,15)     =      0.023110     0.005005     0.822768     0.845878
	   96 D(9,8,11,14)    =      0.001883    -0.005029    -0.825497    -0.823614
	   97 D(10,2,1,15)    =    179.979432     0.001085     0.177751   180.157183
	   98 D(10,5,11,14)   =    179.997392    -0.001094    -0.179608   179.817784
	   99 D(11,5,10,13)   =   -179.989616     0.000163     0.025742  -179.963874
	  100 D(11,8,1,15)    =   -179.978731    -0.003396    -0.555896  -180.534627
	  101 D(12,6,3,17)    =    179.936541     0.001119     0.182674   180.119215
	  102 D(12,7,4,18)    =    179.974790    -0.001117    -0.183552   179.791238
	  103 D(13,10,2,16)   =     -0.075833     0.000377     0.062491    -0.013342
	  104 D(13,10,5,19)   =      0.025437    -0.000379    -0.063111    -0.037673
	  105 D(14,11,5,19)   =     -0.017564    -0.000556    -0.091344    -0.108908
	  106 D(15,1,2,16)    =      0.043120     0.000552     0.090325     0.133445
	  107 D(17,3,6,20)    =     -0.049321     0.000422     0.068850     0.019529
	  108 D(18,4,7,21)    =      0.028908    -0.000421    -0.068638    -0.039729
	  109 R(3,14)         =      2.488881     0.258784     0.001965     2.490846
	 ---------------------------------------------------------------------------
	Successfully symmetrized geometry.
	 Forces used to impose fixed constraints are not included.
	  Forces zeroed: 61 

  ==> Convergence Check <==

  Measures of convergence in internal coordinates in au.
  Criteria marked as inactive (o), active & met (*), and active & unmet ( ).
  --------------------------------------------------------------------------------------------- ~
   Step     Total Energy     Delta E     MAX Force     RMS Force      MAX Disp      RMS Disp    ~
  --------------------------------------------------------------------------------------------- ~
    Convergence Criteria    1.00e-06 *    3.00e-04 *             o    1.20e-03 *             o  ~
  --------------------------------------------------------------------------------------------- ~
      1    -652.85826327   -6.53e+02      7.87e-01      1.48e-01 o    6.35e-02      9.58e-03 o  ~
  ---------------------------------------------------------------------------------------------

	Writing optimization data to binary file.
	Structure for next step:
	Cartesian Geometry (in Angstrom)
	    C    -1.3168833524   0.7662285711  -0.7989383175
	    C    -2.3879806657   1.3511392078  -0.1254825938
	    C     1.8763723882  -1.0127749284  -0.0708580137
	    C     0.8569822403  -0.4409654096  -2.1730762817
	    C    -1.4167712337   0.6950680690   1.9874838010
	    C     2.9289686494  -1.5548722179  -0.7906988230
	    C     1.9557242517  -1.0081961834  -2.7983878092
	    C    -0.2980146614   0.1390225537  -0.0807561703
	    C     0.8205479178  -0.4536622855  -0.7836773592
	    C    -2.4390331893   1.3150063286   1.2677578298
	    C    -0.3459367730   0.1103371410   1.3127368084
	    N     2.9962990447  -1.5679009171  -2.1406953279
	    O    -3.4853538351   1.8873117039   1.9247926745
	    F     0.6305804988  -0.4784045850   2.0188220327
	    H    -1.2903297449   0.8050374347  -1.8852046581
	    H    -3.1806977364   1.8345374475  -0.6914229970
	    H     1.8885148120  -1.0349567615   1.0130629512
	    H     0.0568985151  -0.0052369789  -2.7630442848
	    H    -1.4492628242   0.6659945933   3.0730913176
	    H     3.7748388310  -2.0067178934  -0.2819621224
	    H     2.0316814023  -1.0255972888  -3.8805518327
	    H    -3.3780503915   1.7813245060   2.8831754929
			--------------------------
			 OPTKING Finished Execution 
			--------------------------

    Structure for next step:
    Molecular point group: c1
    Full point group: C1

    Geometry (in Angstrom), charge = 0, multiplicity = 1:

    C           -1.313914341892     0.771299334435    -0.798756022260
    C           -2.385011655284     1.356209971119    -0.125300298570
    C            1.879341398667    -1.007704165054    -0.070675718396
    C            0.859951250775    -0.435894646262    -2.172893986427
    C           -1.413802223263     0.700138832377     1.987666096313
    C            2.931937659821    -1.549801454505    -0.790516527770
    C            1.958693262167    -1.003125420011    -2.798205513949
    C           -0.295045650974     0.144093317039    -0.080573875056
    C            0.823516928301    -0.448591522133    -0.783495063960
    C           -2.436064178787     1.320077091921     1.267940125107
    C           -0.342967762568     0.115407904347     1.312919103661
    N            2.999268055187    -1.562830153719    -2.140513032645
    O           -3.482384824590     1.892382467275     1.924974969790
    F            0.633549509234    -0.473333821686     2.019004327956
    H           -1.287360734477     0.810108198097    -1.885022362851
    H           -3.177728725922     1.839608210807    -0.691240701748
    H            1.891483822457    -1.029885998144     1.013245246466
    H            0.059867525596    -0.000166215507    -2.762861989529
    H           -1.446293813750     0.671065356698     3.073273612871
    H            3.777807841419    -2.001647130094    -0.281779827171
    H            2.034650412739    -1.020526525422    -3.880369537476
    H           -3.375081380990     1.786395269327     2.883357788118

gradient() will perform analytic gradient computation.

*** tstart() called on gpu-2-12.local
*** at Sat Nov 11 22:25:41 2017

    SCF Algorithm Type (re)set to DF.

*** tstart() called on gpu-2-12.local
*** at Sat Nov 11 22:25:41 2017

   => Loading Basis Set <=

    Name: AUG-CC-PVTZ
    Role: ORBITAL
    Keyword: BASIS
    atoms 1-11  entry C          line   221 file /cbio/jclab/home/chayas/anaconda/envs/py35/share/psi4/basis/aug-cc-pvtz.gbs 
    atoms 12    entry N          line   267 file /cbio/jclab/home/chayas/anaconda/envs/py35/share/psi4/basis/aug-cc-pvtz.gbs 
    atoms 13    entry O          line   313 file /cbio/jclab/home/chayas/anaconda/envs/py35/share/psi4/basis/aug-cc-pvtz.gbs 
    atoms 14    entry F          line   359 file /cbio/jclab/home/chayas/anaconda/envs/py35/share/psi4/basis/aug-cc-pvtz.gbs 
    atoms 15-22 entry H          line    34 file /cbio/jclab/home/chayas/anaconda/envs/py35/share/psi4/basis/aug-cc-pvtz.gbs 


         ---------------------------------------------------------
                                   SCF
            by Justin Turney, Rob Parrish, and Andy Simmonett
                              RHF Reference
                        8 Threads,   4768 MiB Core
         ---------------------------------------------------------

  ==> Geometry <==

    Molecular point group: c1
    Full point group: C1

    Geometry (in Angstrom), charge = 0, multiplicity = 1:

       Center              X                  Y                   Z               Mass       
    ------------   -----------------  -----------------  -----------------  -----------------
           C         -1.313914341892     0.771299334435    -0.798756022260    12.000000000000
           C         -2.385011655284     1.356209971119    -0.125300298570    12.000000000000
           C          1.879341398667    -1.007704165054    -0.070675718396    12.000000000000
           C          0.859951250775    -0.435894646262    -2.172893986427    12.000000000000
           C         -1.413802223263     0.700138832377     1.987666096313    12.000000000000
           C          2.931937659821    -1.549801454505    -0.790516527770    12.000000000000
           C          1.958693262167    -1.003125420011    -2.798205513949    12.000000000000
           C         -0.295045650974     0.144093317039    -0.080573875056    12.000000000000
           C          0.823516928301    -0.448591522133    -0.783495063960    12.000000000000
           C         -2.436064178787     1.320077091921     1.267940125107    12.000000000000
           C         -0.342967762568     0.115407904347     1.312919103661    12.000000000000
           N          2.999268055187    -1.562830153719    -2.140513032645    14.003074004780
           O         -3.482384824590     1.892382467275     1.924974969790    15.994914619560
           F          0.633549509234    -0.473333821686     2.019004327956    18.998403224000
           H         -1.287360734477     0.810108198097    -1.885022362851     1.007825032070
           H         -3.177728725922     1.839608210807    -0.691240701748     1.007825032070
           H          1.891483822457    -1.029885998144     1.013245246466     1.007825032070
           H          0.059867525596    -0.000166215507    -2.762861989529     1.007825032070
           H         -1.446293813750     0.671065356698     3.073273612871     1.007825032070
           H          3.777807841419    -2.001647130094    -0.281779827171     1.007825032070
           H          2.034650412739    -1.020526525422    -3.880369537476     1.007825032070
           H         -3.375081380990     1.786395269327     2.883357788118     1.007825032070

  Running in c1 symmetry.

  Rotational constants: A =      0.06328  B =      0.01364  C =      0.01123 [cm^-1]
  Rotational constants: A =   1897.04839  B =    409.01089  C =    336.52865 [MHz]
  Nuclear repulsion =  817.987436284500859

  Charge       = 0
  Multiplicity = 1
  Electrons    = 98
  Nalpha       = 49
  Nbeta        = 49

  ==> Algorithm <==

  SCF Algorithm Type is DF.
  DIIS enabled.
  MOM disabled.
  Fractional occupation disabled.
  Guess Type is READ.
  Energy threshold   = 1.00e-10
  Density threshold  = 1.00e-10
  Integral threshold = 0.00e+00

  ==> Primary Basis <==

  Basis Set: AUG-CC-PVTZ
    Blend: AUG-CC-PVTZ
    Number of shells: 268
    Number of basis function: 828
    Number of Cartesian functions: 970
    Spherical Harmonics?: true
    Max angular momentum: 3

   => Loading Basis Set <=

    Name: (AUG-CC-PVTZ AUX)
    Role: JKFIT
    Keyword: DF_BASIS_SCF
    atoms 1-11  entry C          line   161 file /cbio/jclab/home/chayas/anaconda/envs/py35/share/psi4/basis/aug-cc-pvtz-jkfit.gbs 
    atoms 12    entry N          line   223 file /cbio/jclab/home/chayas/anaconda/envs/py35/share/psi4/basis/aug-cc-pvtz-jkfit.gbs 
    atoms 13    entry O          line   285 file /cbio/jclab/home/chayas/anaconda/envs/py35/share/psi4/basis/aug-cc-pvtz-jkfit.gbs 
    atoms 14    entry F          line   347 file /cbio/jclab/home/chayas/anaconda/envs/py35/share/psi4/basis/aug-cc-pvtz-jkfit.gbs 
    atoms 15-22 entry H          line    69 file /cbio/jclab/home/chayas/anaconda/envs/py35/share/psi4/basis/aug-cc-pvtz-jkfit.gbs 

  Reading orbitals from file 180, no projection.

  ==> Pre-Iterations <==

   -------------------------------------------------------
    Irrep   Nso     Nmo     Nalpha   Nbeta   Ndocc  Nsocc
   -------------------------------------------------------
     A        828     828       0       0       0       0
   -------------------------------------------------------
    Total     828     828      49      49      49       0
   -------------------------------------------------------

  ==> Integral Setup <==

  ==> DFJK: Density-Fitted J/K Matrices <==

    J tasked:                  Yes
    K tasked:                  Yes
    wK tasked:                  No
    OpenMP threads:              8
    Integrals threads:           8
    Memory (MB):              3576
    Algorithm:                Disk
    Integral Cache:           NONE
    Schwarz Cutoff:          1E-12
    Fitting Condition:       1E-12

   => Auxiliary Basis Set <=

  Basis Set: (AUG-CC-PVTZ AUX)
    Blend: AUG-CC-PVTZ-JKFIT
    Number of shells: 532
    Number of basis function: 1824
    Number of Cartesian functions: 2274
    Spherical Harmonics?: true
    Max angular momentum: 4

  Minimum eigenvalue in the overlap matrix is 3.4667757335E-07.
  Using Symmetric Orthogonalization.

  SCF Guess: Orbitals guess was supplied from a previous computation.

  ==> Iterations <==

                           Total Energy        Delta E     RMS |[F,P]|

   @DF-RHF iter   0:  -650.16282743367128   -6.50163e+02   4.75328e-04 
   @DF-RHF iter   1:  -650.15522286142675    7.60457e-03   4.74051e-05 
   @DF-RHF iter   2:  -650.15556586471234   -3.43003e-04   1.89862e-05 DIIS
   @DF-RHF iter   3:  -650.15561196140220   -4.60967e-05   1.16550e-05 DIIS
   @DF-RHF iter   4:  -650.15562317677075   -1.12154e-05   3.86075e-06 DIIS
   @DF-RHF iter   5:  -650.15562499169266   -1.81492e-06   1.51135e-06 DIIS
   @DF-RHF iter   6:  -650.15562531399348   -3.22301e-07   4.73636e-07 DIIS
   @DF-RHF iter   7:  -650.15562534860078   -3.46073e-08   1.56862e-07 DIIS
   @DF-RHF iter   8:  -650.15562535374579   -5.14501e-09   8.02839e-08 DIIS
   @DF-RHF iter   9:  -650.15562535492290   -1.17711e-09   3.24870e-08 DIIS
   @DF-RHF iter  10:  -650.15562535516983   -2.46928e-10   1.05812e-08 DIIS
   @DF-RHF iter  11:  -650.15562535518256   -1.27329e-11   3.58842e-09 DIIS
   @DF-RHF iter  12:  -650.15562535517779    4.77485e-12   1.30598e-09 DIIS
   @DF-RHF iter  13:  -650.15562535517483    2.95586e-12   4.69590e-10 DIIS
   @DF-RHF iter  14:  -650.15562535518461   -9.77707e-12   1.72668e-10 DIIS
   @DF-RHF iter  15:  -650.15562535517438    1.02318e-11   7.84218e-11 DIIS

  ==> Post-Iterations <==

    Orbital Energies (a.u.)
    -----------------------

    Doubly Occupied:                                                      

       1A    -26.337728     2A    -20.613077     3A    -15.558327  
       4A    -11.355207     5A    -11.332546     6A    -11.271115  
       7A    -11.268008     8A    -11.267900     9A    -11.263879  
      10A    -11.258588    11A    -11.256351    12A    -11.249933  
      13A    -11.235407    14A    -11.223116    15A     -1.662840  
      16A     -1.427608    17A     -1.244934    18A     -1.185323  
      19A     -1.110452    20A     -1.046724    21A     -1.030188  
      22A     -1.020447    23A     -0.898415    24A     -0.882599  
      25A     -0.854155    26A     -0.827377    27A     -0.775690  
      28A     -0.759811    29A     -0.725506    30A     -0.722789  
      31A     -0.713101    32A     -0.679606    33A     -0.652676  
      34A     -0.641941    35A     -0.627550    36A     -0.612580  
      37A     -0.608604    38A     -0.588598    39A     -0.577028  
      40A     -0.547588    41A     -0.543232    42A     -0.535529  
      43A     -0.504744    44A     -0.500164    45A     -0.412565  
      46A     -0.405856    47A     -0.363764    48A     -0.344584  
      49A     -0.309385  

    Virtual:                                                              

      50A      0.020489    51A      0.027768    52A      0.034925  
      53A      0.040023    54A      0.044212    55A      0.057446  
      56A      0.057709    57A      0.062109    58A      0.075352  
      59A      0.080438    60A      0.081224    61A      0.086165  
      62A      0.089440    63A      0.089957    64A      0.097790  
      65A      0.099817    66A      0.104363    67A      0.109904  
      68A      0.111356    69A      0.112541    70A      0.114712  
      71A      0.119173    72A      0.127760    73A      0.132530  
      74A      0.136379    75A      0.137825    76A      0.139302  
      77A      0.140459    78A      0.143911    79A      0.147370  
      80A      0.152222    81A      0.152926    82A      0.156614  
      83A      0.165361    84A      0.170179    85A      0.172118  
      86A      0.177144    87A      0.180064    88A      0.181325  
      89A      0.192284    90A      0.194111    91A      0.202160  
      92A      0.204681    93A      0.209954    94A      0.218250  
      95A      0.227618    96A      0.230882    97A      0.232283  
      98A      0.235355    99A      0.237007   100A      0.240680  
     101A      0.245572   102A      0.248908   103A      0.258634  
     104A      0.265782   105A      0.266230   106A      0.270259  
     107A      0.271822   108A      0.278215   109A      0.280982  
     110A      0.282437   111A      0.286954   112A      0.287568  
     113A      0.296826   114A      0.304150   115A      0.306602  
     116A      0.310799   117A      0.312567   118A      0.315893  
     119A      0.318356   120A      0.326226   121A      0.327539  
     122A      0.331844   123A      0.336001   124A      0.338532  
     125A      0.346031   126A      0.351080   127A      0.354082  
     128A      0.355915   129A      0.366280   130A      0.368714  
     131A      0.375151   132A      0.386226   133A      0.391107  
     134A      0.393393   135A      0.399199   136A      0.410723  
     137A      0.411566   138A      0.414308   139A      0.419477  
     140A      0.423261   141A      0.424825   142A      0.428250  
     143A      0.431666   144A      0.434157   145A      0.437274  
     146A      0.442973   147A      0.444327   148A      0.449723  
     149A      0.454658   150A      0.456854   151A      0.459702  
     152A      0.462276   153A      0.463918   154A      0.467474  
     155A      0.474094   156A      0.475580   157A      0.478781  
     158A      0.485024   159A      0.492568   160A      0.495637  
     161A      0.498760   162A      0.501174   163A      0.502233  
     164A      0.506406   165A      0.508853   166A      0.511281  
     167A      0.515021   168A      0.516813   169A      0.524892  
     170A      0.529105   171A      0.530737   172A      0.539880  
     173A      0.542982   174A      0.548608   175A      0.549778  
     176A      0.559543   177A      0.563517   178A      0.568178  
     179A      0.572863   180A      0.575542   181A      0.579878  
     182A      0.586377   183A      0.590269   184A      0.597047  
     185A      0.598914   186A      0.602124   187A      0.605802  
     188A      0.613778   189A      0.620998   190A      0.626403  
     191A      0.632587   192A      0.649830   193A      0.657945  
     194A      0.664290   195A      0.668313   196A      0.674585  
     197A      0.677686   198A      0.682501   199A      0.692546  
     200A      0.697765   201A      0.698299   202A      0.704308  
     203A      0.710793   204A      0.721417   205A      0.721878  
     206A      0.726562   207A      0.735139   208A      0.737796  
     209A      0.746232   210A      0.752765   211A      0.753646  
     212A      0.760306   213A      0.762535   214A      0.771528  
     215A      0.781949   216A      0.782323   217A      0.788219  
     218A      0.791776   219A      0.804665   220A      0.808200  
     221A      0.811566   222A      0.816661   223A      0.824273  
     224A      0.827123   225A      0.827257   226A      0.837512  
     227A      0.842484   228A      0.847015   229A      0.861229  
     230A      0.863601   231A      0.867549   232A      0.870591  
     233A      0.873920   234A      0.876562   235A      0.887446  
     236A      0.889607   237A      0.891870   238A      0.897674  
     239A      0.897950   240A      0.908672   241A      0.909743  
     242A      0.916509   243A      0.923414   244A      0.931953  
     245A      0.934186   246A      0.935317   247A      0.941814  
     248A      0.949200   249A      0.950844   250A      0.952078  
     251A      0.958053   252A      0.958700   253A      0.965291  
     254A      0.969395   255A      0.972591   256A      0.974285  
     257A      0.980482   258A      0.987944   259A      0.992610  
     260A      0.997727   261A      1.002816   262A      1.004977  
     263A      1.016107   264A      1.017350   265A      1.021489  
     266A      1.026022   267A      1.030492   268A      1.035092  
     269A      1.039587   270A      1.040380   271A      1.048451  
     272A      1.049885   273A      1.053111   274A      1.058959  
     275A      1.061260   276A      1.063452   277A      1.067903  
     278A      1.069462   279A      1.074842   280A      1.085376  
     281A      1.095009   282A      1.101189   283A      1.103895  
     284A      1.107993   285A      1.111397   286A      1.118148  
[...]
     104A      0.256312   105A      0.261111   106A      0.262637  
     107A      0.264248   108A      0.267950   109A      0.273319  
     110A      0.279688   111A      0.281411   112A      0.284260  
     113A      0.293633   114A      0.295682   115A      0.302482  
     116A      0.303485   117A      0.309250   118A      0.313611  
     119A      0.313912   120A      0.319931   121A      0.320606  
     122A      0.324057   123A      0.332157   124A      0.338209  
     125A      0.341562   126A      0.344730   127A      0.350202  
     128A      0.356230   129A      0.358973   130A      0.361900  
     131A      0.368766   132A      0.377530   133A      0.380064  
     134A      0.382868   135A      0.388621   136A      0.390256  
     137A      0.396934   138A      0.401450   139A      0.404636  
     140A      0.408308   141A      0.415371   142A      0.421055  
     143A      0.422743   144A      0.425665   145A      0.432989  
     146A      0.433750   147A      0.438893   148A      0.445291  
     149A      0.450076   150A      0.457386   151A      0.461375  
     152A      0.464535   153A      0.468197   154A      0.468928  
     155A      0.475043   156A      0.479619   157A      0.484172  
     158A      0.485194   159A      0.488714   160A      0.493533  
     161A      0.494612   162A      0.498287   163A      0.499583  
     164A      0.505107   165A      0.505668   166A      0.512193  
     167A      0.514993   168A      0.515862   169A      0.522571  
     170A      0.528254   171A      0.528724   172A      0.529818  
     173A      0.534655   174A      0.538612   175A      0.540929  
     176A      0.543645   177A      0.551402   178A      0.552184  
     179A      0.563755   180A      0.566759   181A      0.570575  
     182A      0.576784   183A      0.583907   184A      0.587630  
     185A      0.591657   186A      0.595228   187A      0.610280  
     188A      0.613047   189A      0.619184   190A      0.622893  
     191A      0.631007   192A      0.642920   193A      0.644499  
     194A      0.650840   195A      0.654729   196A      0.657387  
     197A      0.661635   198A      0.667069   199A      0.674406  
     200A      0.679593   201A      0.687433   202A      0.690399  
     203A      0.698965   204A      0.712344   205A      0.719141  
     206A      0.719903   207A      0.724180   208A      0.733395  
     209A      0.740836   210A      0.743616   211A      0.747250  
     212A      0.747888   213A      0.757420   214A      0.761811  
     215A      0.766086   216A      0.768440   217A      0.769706  
     218A      0.781687   219A      0.782323   220A      0.788551  
     221A      0.795619   222A      0.802990   223A      0.804504  
     224A      0.820146   225A      0.824773   226A      0.829495  
     227A      0.833435   228A      0.836384   229A      0.843945  
     230A      0.849837   231A      0.853427   232A      0.857423  
     233A      0.862641   234A      0.867733   235A      0.871767  
     236A      0.881134   237A      0.882910   238A      0.887499  
     239A      0.889753   240A      0.896878   241A      0.900434  
     242A      0.906929   243A      0.912741   244A      0.917385  
     245A      0.920728   246A      0.926364   247A      0.935707  
     248A      0.939782   249A      0.942958   250A      0.948876  
     251A      0.951510   252A      0.957123   253A      0.960529  
     254A      0.965697   255A      0.972405   256A      0.976592  
     257A      0.980973   258A      0.986356   259A      0.988716  
     260A      0.996227   261A      0.998662   262A      1.003797  
     263A      1.005819   264A      1.009272   265A      1.018810  
     266A      1.023823   267A      1.027338   268A      1.029160  
     269A      1.031350   270A      1.040332   271A      1.044685  
     272A      1.049678   273A      1.052773   274A      1.053151  
     275A      1.056085   276A      1.066287   277A      1.073450  
     278A      1.078958   279A      1.081847   280A      1.087151  
     281A      1.088942   282A      1.092534   283A      1.096769  
     284A      1.108927   285A      1.111011   286A      1.116320  
     287A      1.119611   288A      1.123460   289A      1.127904  
     290A      1.132014   291A      1.144021   292A      1.148567  
     293A      1.151534   294A      1.154892   295A      1.157545  
     296A      1.163138   297A      1.170768   298A      1.176415  
     299A      1.180005   300A      1.185852   301A      1.188115  
     302A      1.192968   303A      1.201876   304A      1.207159  
     305A      1.209818   306A      1.220101   307A      1.221722  
     308A      1.224945   309A      1.227882   310A      1.234522  
     311A      1.240034   312A      1.243580   313A      1.245409  
     314A      1.261957   315A      1.264960   316A      1.271519  
     317A      1.281666   318A      1.286307   319A      1.294063  
     320A      1.299087   321A      1.303701   322A      1.310142  
     323A      1.315544   324A      1.318526   325A      1.328639  
     326A      1.335738   327A      1.337101   328A      1.354083  
     329A      1.358545   330A      1.370764   331A      1.373170  
     332A      1.377684   333A      1.391363   334A      1.396327  
     335A      1.406392   336A      1.413406   337A      1.421957  
     338A      1.426217   339A      1.433141   340A      1.442853  
     341A      1.446648   342A      1.452041   343A      1.460917  
     344A      1.462008   345A      1.479107   346A      1.482919  
     347A      1.487155   348A      1.497241   349A      1.502829  
     350A      1.509847   351A      1.522074   352A      1.523867  
     353A      1.538285   354A      1.545770   355A      1.551992  
     356A      1.563126   357A      1.567503   358A      1.573273  
     359A      1.580461   360A      1.582748   361A      1.596705  
     362A      1.601205   363A      1.610383   364A      1.619792  
     365A      1.628135   366A      1.629888   367A      1.640337  
     368A      1.645997   369A      1.655959   370A      1.662616  
     371A      1.676377   372A      1.678080   373A      1.684317  
     374A      1.693749   375A      1.702293   376A      1.709097  
     377A      1.724083   378A      1.728211   379A      1.736214  
     380A      1.739310   381A      1.745605   382A      1.750073  
     383A      1.758229   384A      1.765772   385A      1.771419  
     386A      1.776749   387A      1.781640   388A      1.801159  
     389A      1.804604   390A      1.812268   391A      1.814504  
     392A      1.824864   393A      1.829642   394A      1.840174  
     395A      1.846425   396A      1.851441   397A      1.860938  
     398A      1.867108   399A      1.872399   400A      1.879779  
     401A      1.893136   402A      1.902085   403A      1.913512  
     404A      1.916730   405A      1.918545   406A      1.925170  
     407A      1.934963   408A      1.940752   409A      1.950751  
     410A      1.955001   411A      1.968587   412A      1.975853  
     413A      1.979334   414A      1.991931   415A      2.000663  
     416A      2.006875   417A      2.012704   418A      2.015153  
     419A      2.020485   420A      2.025522   421A      2.041576  
     422A      2.055291   423A      2.057422   424A      2.059638  
     425A      2.083039   426A      2.088557   427A      2.092878  
     428A      2.100979   429A      2.106655   430A      2.109195  
     431A      2.124081   432A      2.127982   433A      2.134400  
     434A      2.148151   435A      2.157304   436A      2.164335  
     437A      2.172169   438A      2.172348   439A      2.184653  
     440A      2.189375   441A      2.192214   442A      2.200128  
     443A      2.207630   444A      2.224282   445A      2.228592  
     446A      2.236885   447A      2.243326   448A      2.252561  
     449A      2.255837   450A      2.274885   451A      2.287334  
     452A      2.295454   453A      2.301254   454A      2.304457  
     455A      2.314106   456A      2.326017   457A      2.332518  
     458A      2.345378   459A      2.356316   460A      2.371308  
     461A      2.382958   462A      2.388304   463A      2.407864  
     464A      2.418347   465A      2.427627   466A      2.438113  
     467A      2.445947   468A      2.451676   469A      2.462666  
     470A      2.478630   471A      2.487601   472A      2.504773  
     473A      2.511878   474A      2.516167   475A      2.532786  
     476A      2.542452   477A      2.546790   478A      2.563936  
     479A      2.570882   480A      2.592839   481A      2.609774  
     482A      2.612431   483A      2.627264   484A      2.654367  
     485A      2.665100   486A      2.673247   487A      2.682528  
     488A      2.700789   489A      2.704992   490A      2.725273  
     491A      2.733920   492A      2.749527   493A      2.774096  
     494A      2.794551   495A      2.807423   496A      2.808798  
     497A      2.831435   498A      2.840150   499A      2.851140  
     500A      2.880077   501A      2.881741   502A      2.891667  
     503A      2.903977   504A      2.945977   505A      2.968622  
     506A      2.979456   507A      2.996751   508A      3.021679  
     509A      3.042258   510A      3.045347   511A      3.070314  
     512A      3.082761   513A      3.109625   514A      3.133494  
     515A      3.146097   516A      3.161902   517A      3.171373  
     518A      3.180198   519A      3.189149   520A      3.191986  
     521A      3.221085   522A      3.231809   523A      3.242328  
     524A      3.256420   525A      3.267477   526A      3.276282  
     527A      3.285036   528A      3.305640   529A      3.316729  
     530A      3.339799   531A      3.347953   532A      3.363470  
     533A      3.376998   534A      3.391892   535A      3.400164  
     536A      3.407772   537A      3.416233   538A      3.424144  
     539A      3.436676   540A      3.439049   541A      3.440606  
     542A      3.450367   543A      3.464856   544A      3.471282  
     545A      3.487011   546A      3.491456   547A      3.499197  
     548A      3.504806   549A      3.523918   550A      3.527634  
     551A      3.531271   552A      3.537595   553A      3.544307  
     554A      3.555234   555A      3.559346   556A      3.565803  
     557A      3.568109   558A      3.594129   559A      3.595462  
     560A      3.598399   561A      3.605233   562A      3.620407  
     563A      3.628379   564A      3.637660   565A      3.645821  
     566A      3.657353   567A      3.664442   568A      3.680948  
     569A      3.682813   570A      3.695923   571A      3.697047  
     572A      3.701611   573A      3.721103   574A      3.723679  
     575A      3.737904   576A      3.753665   577A      3.757869  
     578A      3.765384   579A      3.769442   580A      3.782439  
     581A      3.786569   582A      3.792469   583A      3.802014  
     584A      3.815220   585A      3.817823   586A      3.838649  
     587A      3.843617   588A      3.858401   589A      3.864041  
     590A      3.879435   591A      3.887343   592A      3.888882  
     593A      3.898117   594A      3.902500   595A      3.909976  
     596A      3.930503   597A      3.930969   598A      3.938378  
     599A      3.944689   600A      3.953118   601A      3.962716  
     602A      3.965305   603A      3.980485   604A      3.988600  
     605A      3.994561   606A      4.005385   607A      4.011398  
     608A      4.025998   609A      4.030506   610A      4.040522  
     611A      4.047442   612A      4.053619   613A      4.058728  
     614A      4.077682   615A      4.092646   616A      4.098491  
     617A      4.111980   618A      4.117717   619A      4.123570  
     620A      4.136067   621A      4.143464   622A      4.148177  
     623A      4.152342   624A      4.166366   625A      4.173059  
     626A      4.181953   627A      4.187273   628A      4.204455  
     629A      4.215048   630A      4.231091   631A      4.232882  
     632A      4.238841   633A      4.257931   634A      4.261202  
     635A      4.267156   636A      4.274340   637A      4.280246  
     638A      4.287165   639A      4.294990   640A      4.305002  
     641A      4.320439   642A      4.325926   643A      4.340346  
     644A      4.342695   645A      4.354759   646A      4.364024  
     647A      4.368697   648A      4.388583   649A      4.392876  
     650A      4.406519   651A      4.417695   652A      4.424507  
     653A      4.438674   654A      4.449391   655A      4.453064  
     656A      4.462374   657A      4.472325   658A      4.475024  
     659A      4.491248   660A      4.504834   661A      4.512011  
     662A      4.524915   663A      4.528652   664A      4.529897  
     665A      4.539969   666A      4.551102   667A      4.572274  
     668A      4.588522   669A      4.597625   670A      4.607504  
     671A      4.613559   672A      4.625685   673A      4.631860  
     674A      4.655383   675A      4.672276   676A      4.696887  
     677A      4.703198   678A      4.719831   679A      4.733098  
     680A      4.742438   681A      4.760751   682A      4.771222  
     683A      4.777224   684A      4.794595   685A      4.797416  
     686A      4.827254   687A      4.838519   688A      4.862175  
     689A      4.870907   690A      4.880961   691A      4.897741  
     692A      4.912155   693A      4.925514   694A      4.952329  
     695A      4.959989   696A      4.970573   697A      4.990529  
     698A      4.999687   699A      5.007534   700A      5.019153  
     701A      5.027887   702A      5.033275   703A      5.056965  
     704A      5.066133   705A      5.073874   706A      5.081611  
     707A      5.099622   708A      5.102599   709A      5.114365  
     710A      5.123191   711A      5.130831   712A      5.140153  
     713A      5.150270   714A      5.158033   715A      5.174601  
     716A      5.190919   717A      5.196126   718A      5.208108  
     719A      5.226485   720A      5.243273   721A      5.255544  
     722A      5.276122   723A      5.288711   724A      5.317540  
     725A      5.327197   726A      5.335942   727A      5.362489  
     728A      5.368326   729A      5.374330   730A      5.395835  
     731A      5.422845   732A      5.426978   733A      5.434319  
     734A      5.447734   735A      5.482110   736A      5.502783  
     737A      5.519808   738A      5.534759   739A      5.540441  
     740A      5.562818   741A      5.577060   742A      5.595596  
     743A      5.606998   744A      5.636300   745A      5.667559  
     746A      5.710459   747A      5.728653   748A      5.750518  
     749A      5.764954   750A      5.791241   751A      5.816573  
     752A      5.835147   753A      5.853160   754A      5.877551  
     755A      5.883262   756A      5.916583   757A      5.927627  
     758A      5.972219   759A      5.992991   760A      6.039216  
     761A      6.074644   762A      6.096252   763A      6.149126  
     764A      6.179381   765A      6.209062   766A      6.235385  
     767A      6.272723   768A      6.320057   769A      6.371098  
     770A      6.381440   771A      6.444619   772A      6.452119  
     773A      6.495791   774A      6.554291   775A      6.602151  
     776A      6.611641   777A      6.678367   778A      6.699073  
     779A      6.706206   780A      6.734772   781A      6.739362  
     782A      6.776656   783A      6.881483   784A      6.898623  
     785A      6.934113   786A      6.947752   787A      6.990372  
     788A      7.001320   789A      7.012992   790A      7.044113  
     791A      7.127071   792A      7.252975   793A      7.314115  
     794A      7.394143   795A      7.415608   796A      7.447057  
     797A      7.654829   798A      7.681859   799A      7.755073  
     800A      7.980659   801A      8.374187   802A      8.632906  
     803A      9.127733   804A      9.177247   805A      9.313386  
     806A      9.337102   807A      9.467437   808A      9.590187  
     809A      9.612601   810A      9.640975   811A      9.697852  
     812A      9.735904   813A     10.065149   814A     10.134413  
     815A     15.782990   816A     16.320322   817A     16.740749  
     818A     16.830554   819A     17.019908   820A     17.270470  
     821A     17.979293   822A     18.715599   823A     19.077042  
     824A     19.722744   825A     19.727423   826A     20.056246  
     827A     20.577517   828A     21.459182  

    Final Occupation by Irrep:
              A 
    DOCC [    49 ]

  Energy converged.

  @DF-RHF Final Energy:  -650.12071835561301

   => Energetics <=

    Nuclear Repulsion Energy =            825.8737425460458326
    One-Electron Energy =               -2526.3983726896490225
    Two-Electron Energy =                1050.4039117879901823
    DFT Exchange-Correlation Energy =       0.0000000000000000
    Empirical Dispersion Energy =           0.0000000000000000
    PCM Polarization Energy =               0.0000000000000000
    EFP Energy =                            0.0000000000000000
    Total Energy =                       -650.1207183556130076



Properties will be evaluated at   0.000000,   0.000000,   0.000000 Bohr

Properties computed using the SCF density matrix

  Nuclear Dipole Moment: (a.u.)
     X:    -0.0862      Y:     4.3439      Z:    -2.8851

  Electronic Dipole Moment: (a.u.)
     X:    -0.9584      Y:    -3.6951      Z:     3.5981

  Dipole Moment: (a.u.)
     X:    -1.0446      Y:     0.6488      Z:     0.7130     Total:     1.4214

  Dipole Moment: (Debye)
     X:    -2.6550      Y:     1.6491      Z:     1.8122     Total:     3.6129


*** tstop() called on gpu-2-12.local at Sun Nov 12 21:34:33 2017
Module time:
	user time   =     998.91 seconds =      16.65 minutes
	system time =      42.38 seconds =       0.71 minutes
	total time  =        401 seconds =       6.68 minutes
Total time:
	user time   =  183624.67 seconds =    3060.41 minutes
	system time =    3437.99 seconds =      57.30 minutes
	total time  =      86106 seconds =    1435.10 minutes

  //>>>>>>>>>>>>>>>>>>>>>>>>>>>>>>>>>>>//
  //               DFMP2               //
  //<<<<<<<<<<<<<<<<<<<<<<<<<<<<<<<<<<<//

   => Loading Basis Set <=

    Name: (AUG-CC-PVTZ AUX)
    Role: RIFIT
    Keyword: DF_BASIS_MP2
    atoms 1-11  entry C          line   147 file /cbio/jclab/home/chayas/anaconda/envs/py35/share/psi4/basis/aug-cc-pvtz-ri.gbs 
    atoms 12    entry N          line   205 file /cbio/jclab/home/chayas/anaconda/envs/py35/share/psi4/basis/aug-cc-pvtz-ri.gbs 
    atoms 13    entry O          line   263 file /cbio/jclab/home/chayas/anaconda/envs/py35/share/psi4/basis/aug-cc-pvtz-ri.gbs 
    atoms 14    entry F          line   321 file /cbio/jclab/home/chayas/anaconda/envs/py35/share/psi4/basis/aug-cc-pvtz-ri.gbs 
    atoms 15-22 entry H          line    29 file /cbio/jclab/home/chayas/anaconda/envs/py35/share/psi4/basis/aug-cc-pvtz-ri.gbs 

	 --------------------------------------------------------
	                          DF-MP2                         
	      2nd-Order Density-Fitted Moller-Plesset Theory     
	              RMP2 Wavefunction,   8 Threads             
	                                                         
	        Rob Parrish, Justin Turney, Andy Simmonett,      
	           Ed Hohenstein, and C. David Sherrill          
	 --------------------------------------------------------

   => Auxiliary Basis Set <=

  Basis Set: (AUG-CC-PVTZ AUX)
    Blend: AUG-CC-PVTZ-RI
    Number of shells: 504
    Number of basis function: 1852
    Number of Cartesian functions: 2344
    Spherical Harmonics?: true
    Max angular momentum: 4

	 --------------------------------------------------------
	                 NBF =   828, NAUX =  1852
	 --------------------------------------------------------
	   CLASS    FOCC     OCC    AOCC    AVIR     VIR    FVIR
	   PAIRS       0      49      49     779     779       0
	 --------------------------------------------------------

