
    -----------------------------------------------------------------------
          Psi4: An Open-Source Ab Initio Electronic Structure Package
                               Psi4 1.1 release

                         Git: Rev {HEAD} add49b9 


    R. M. Parrish, L. A. Burns, D. G. A. Smith, A. C. Simmonett,
    A. E. DePrince III, E. G. Hohenstein, U. Bozkaya, A. Yu. Sokolov,
    R. Di Remigio, R. M. Richard, J. F. Gonthier, A. M. James,
    H. R. McAlexander, A. Kumar, M. Saitow, X. Wang, B. P. Pritchard,
    P. Verma, H. F. Schaefer III, K. Patkowski, R. A. King, E. F. Valeev,
    F. A. Evangelista, J. M. Turney, T. D. Crawford, and C. D. Sherrill,
    J. Chem. Theory Comput. in press (2017).
    (doi: 10.1021/acs.jctc.7b00174)

    -----------------------------------------------------------------------


    Psi4 started on: Saturday, 11 November 2017 07:40PM

    Process ID:  28255
    PSIDATADIR: /cbio/jclab/home/chayas/anaconda/envs/py35/share/psi4
    Memory:     500.0 MiB
    Threads:    8
    
  ==> Input File <==

--------------------------------------------------------------------------

memory 5 Gb

molecule phepyrFOH_neutral {
  symmetry C1
  0 1 
  C      1.885   -1.036   -0.112
  C      0.807   -0.463   0.561
  C      4.079   -2.203   -1.484
  C      5.074   -2.818   0.617
  C      1.800   -1.079   2.676
  C      5.171   -2.784   -2.110
  C      6.121   -3.371   -0.102
  C      2.921   -1.631   0.608
  C      4.038   -2.225   -0.095
  C      0.764   -0.484   1.955
  C      2.878   -1.652   2.002
  N      6.196   -3.370   -1.452
  O      -0.289   0.076   2.612
  F      3.866   -2.220   2.709
  H      1.904   -1.012   -1.199
  H      0.002   -0.002   -0.006
  H      3.290   -1.749   -2.074
  H      5.076   -2.854   1.702
  H      1.772   -1.099   3.762
  H      5.251   -2.792   -3.192
  H      6.954   -3.847   0.406
  H      -0.175   -0.018   3.571
  units Angstrom
}

dih_string = "1 8 9 3 0.001"
set optking fixed_dihedral = $dih_string

optimize('MP2/aug-cc-PVTZ')
--------------------------------------------------------------------------

  Memory set to   4.657 GiB by Python driver.
gradient() will perform analytic gradient computation.

*** tstart() called on gpu-1-16.local
*** at Sat Nov 11 19:40:19 2017

    SCF Algorithm Type (re)set to DF.

*** tstart() called on gpu-1-16.local
*** at Sat Nov 11 19:40:19 2017

   => Loading Basis Set <=

    Name: AUG-CC-PVTZ
    Role: ORBITAL
    Keyword: BASIS
    atoms 1-11  entry C          line   221 file /cbio/jclab/home/chayas/anaconda/envs/py35/share/psi4/basis/aug-cc-pvtz.gbs 
    atoms 12    entry N          line   267 file /cbio/jclab/home/chayas/anaconda/envs/py35/share/psi4/basis/aug-cc-pvtz.gbs 
    atoms 13    entry O          line   313 file /cbio/jclab/home/chayas/anaconda/envs/py35/share/psi4/basis/aug-cc-pvtz.gbs 
    atoms 14    entry F          line   359 file /cbio/jclab/home/chayas/anaconda/envs/py35/share/psi4/basis/aug-cc-pvtz.gbs 
    atoms 15-22 entry H          line    34 file /cbio/jclab/home/chayas/anaconda/envs/py35/share/psi4/basis/aug-cc-pvtz.gbs 


         ---------------------------------------------------------
                                   SCF
            by Justin Turney, Rob Parrish, and Andy Simmonett
                              RHF Reference
                        8 Threads,   4768 MiB Core
         ---------------------------------------------------------

  ==> Geometry <==

    Molecular point group: c1
    Full point group: C1

    Geometry (in Angstrom), charge = 0, multiplicity = 1:

       Center              X                  Y                   Z               Mass       
    ------------   -----------------  -----------------  -----------------  -----------------
           C         -1.321971094811     0.754874062252    -0.800135310370    12.000000000000
           C         -2.399971094811     1.327874062252    -0.127135310370    12.000000000000
           C          0.872028905189    -0.412125937748    -2.172135310370    12.000000000000
           C          1.867028905189    -1.027125937748    -0.071135310370    12.000000000000
           C         -1.406971094811     0.711874062252     1.987864689630    12.000000000000
           C          1.964028905189    -0.993125937748    -2.798135310370    12.000000000000
           C          2.914028905189    -1.580125937748    -0.790135310370    12.000000000000
           C         -0.285971094811     0.159874062252    -0.080135310370    12.000000000000
           C          0.831028905189    -0.434125937748    -0.783135310370    12.000000000000
           C         -2.442971094811     1.306874062252     1.266864689630    12.000000000000
           C         -0.328971094811     0.138874062252     1.313864689630    12.000000000000
           N          2.989028905189    -1.579125937748    -2.140135310370    14.003074004780
           O         -3.495971094811     1.866874062252     1.923864689630    15.994914619560
           F          0.659028905189    -0.429125937748     2.020864689630    18.998403224000
           H         -1.302971094811     0.778874062252    -1.887135310370     1.007825032070
           H         -3.204971094811     1.788874062252    -0.694135310370     1.007825032070
           H          0.083028905189     0.041874062252    -2.762135310370     1.007825032070
           H          1.869028905189    -1.063125937748     1.013864689630     1.007825032070
           H         -1.434971094811     0.691874062252     3.073864689630     1.007825032070
           H          2.044028905189    -1.001125937748    -3.880135310370     1.007825032070
           H          3.747028905189    -2.056125937748    -0.282135310370     1.007825032070
           H         -3.381971094811     1.772874062252     2.882864689630     1.007825032070

  Running in c1 symmetry.

  Rotational constants: A =      0.06328  B =      0.01365  C =      0.01123 [cm^-1]
  Rotational constants: A =   1897.03825  B =    409.27813  C =    336.64780 [MHz]
  Nuclear repulsion =  818.119789979719826

  Charge       = 0
  Multiplicity = 1
  Electrons    = 98
  Nalpha       = 49
  Nbeta        = 49

  ==> Algorithm <==

  SCF Algorithm Type is DF.
  DIIS enabled.
  MOM disabled.
  Fractional occupation disabled.
  Guess Type is SAD.
  Energy threshold   = 1.00e-10
  Density threshold  = 1.00e-10
  Integral threshold = 0.00e+00

  ==> Primary Basis <==

  Basis Set: AUG-CC-PVTZ
    Blend: AUG-CC-PVTZ
    Number of shells: 268
    Number of basis function: 828
    Number of Cartesian functions: 970
    Spherical Harmonics?: true
    Max angular momentum: 3

   => Loading Basis Set <=

    Name: (AUG-CC-PVTZ AUX)
    Role: JKFIT
    Keyword: DF_BASIS_SCF
    atoms 1-11  entry C          line   161 file /cbio/jclab/home/chayas/anaconda/envs/py35/share/psi4/basis/aug-cc-pvtz-jkfit.gbs 
    atoms 12    entry N          line   223 file /cbio/jclab/home/chayas/anaconda/envs/py35/share/psi4/basis/aug-cc-pvtz-jkfit.gbs 
    atoms 13    entry O          line   285 file /cbio/jclab/home/chayas/anaconda/envs/py35/share/psi4/basis/aug-cc-pvtz-jkfit.gbs 
    atoms 14    entry F          line   347 file /cbio/jclab/home/chayas/anaconda/envs/py35/share/psi4/basis/aug-cc-pvtz-jkfit.gbs 
    atoms 15-22 entry H          line    69 file /cbio/jclab/home/chayas/anaconda/envs/py35/share/psi4/basis/aug-cc-pvtz-jkfit.gbs 

  ==> Pre-Iterations <==

   -------------------------------------------------------
    Irrep   Nso     Nmo     Nalpha   Nbeta   Ndocc  Nsocc
   -------------------------------------------------------
     A        828     828       0       0       0       0
   -------------------------------------------------------
    Total     828     828      49      49      49       0
   -------------------------------------------------------

  ==> Integral Setup <==

  ==> DFJK: Density-Fitted J/K Matrices <==

    J tasked:                  Yes
    K tasked:                  Yes
    wK tasked:                  No
    OpenMP threads:              8
    Integrals threads:           8
    Memory (MB):              3576
    Algorithm:                Disk
    Integral Cache:           NONE
    Schwarz Cutoff:          1E-12
    Fitting Condition:       1E-12

   => Auxiliary Basis Set <=

  Basis Set: (AUG-CC-PVTZ AUX)
    Blend: AUG-CC-PVTZ-JKFIT
    Number of shells: 532
    Number of basis function: 1824
    Number of Cartesian functions: 2274
    Spherical Harmonics?: true
    Max angular momentum: 4

  Minimum eigenvalue in the overlap matrix is 3.1960867649E-07.
  Using Symmetric Orthogonalization.

  SCF Guess: Superposition of Atomic Densities via on-the-fly atomic UHF.

  ==> Iterations <==

                           Total Energy        Delta E     RMS |[F,P]|

   @DF-RHF iter   0:  -656.17634537974914   -6.56176e+02   2.31591e-02 
   @DF-RHF iter   1:  -649.79633741952000    6.38001e+00   2.20720e-03 
   @DF-RHF iter   2:  -650.09277606792580   -2.96439e-01   9.38602e-04 DIIS
   @DF-RHF iter   3:  -650.13889282861908   -4.61168e-02   4.12827e-04 DIIS
   @DF-RHF iter   4:  -650.15339566592559   -1.45028e-02   1.26423e-04 DIIS
   @DF-RHF iter   5:  -650.15477614676252   -1.38048e-03   5.44745e-05 DIIS
   @DF-RHF iter   6:  -650.15504994358866   -2.73797e-04   1.85781e-05 DIIS
   @DF-RHF iter   7:  -650.15508743842122   -3.74948e-05   5.11483e-06 DIIS
   @DF-RHF iter   8:  -650.15508970713563   -2.26871e-06   1.54770e-06 DIIS
   @DF-RHF iter   9:  -650.15509004438377   -3.37248e-07   6.81975e-07 DIIS
   @DF-RHF iter  10:  -650.15509012846735   -8.40836e-08   3.90045e-07 DIIS
   @DF-RHF iter  11:  -650.15509016022111   -3.17538e-08   1.73495e-07 DIIS
   @DF-RHF iter  12:  -650.15509016985936   -9.63826e-09   7.05192e-08 DIIS
   @DF-RHF iter  13:  -650.15509017094132   -1.08196e-09   2.75339e-08 DIIS
   @DF-RHF iter  14:  -650.15509017112265   -1.81331e-10   9.73726e-09 DIIS
   @DF-RHF iter  15:  -650.15509017113027   -7.61702e-12   3.56199e-09 DIIS
   @DF-RHF iter  16:  -650.15509017113698   -6.70752e-12   2.24725e-09 DIIS
   @DF-RHF iter  17:  -650.15509017111867    1.83036e-11   9.69595e-10 DIIS
   @DF-RHF iter  18:  -650.15509017113902   -2.03499e-11   4.60009e-10 DIIS
   @DF-RHF iter  19:  -650.15509017113789    1.13687e-12   1.50737e-10 DIIS
   @DF-RHF iter  20:  -650.15509017113288    5.00222e-12   7.26804e-11 DIIS

  ==> Post-Iterations <==

    Orbital Energies (a.u.)
    -----------------------

    Doubly Occupied:                                                      

       1A    -26.337959     2A    -20.613043     3A    -15.558221  
       4A    -11.355303     5A    -11.332532     6A    -11.271089  
       7A    -11.267922     8A    -11.267858     9A    -11.263488  
      10A    -11.258654    11A    -11.256234    12A    -11.249970  
      13A    -11.235284    14A    -11.222812    15A     -1.663188  
      16A     -1.427529    17A     -1.244963    18A     -1.185381  
      19A     -1.110574    20A     -1.046728    21A     -1.030139  
      22A     -1.020421    23A     -0.898501    24A     -0.882656  
      25A     -0.854246    26A     -0.827441    27A     -0.775731  
      28A     -0.760024    29A     -0.725451    30A     -0.723089  
      31A     -0.713359    32A     -0.679639    33A     -0.652863  
      34A     -0.642010    35A     -0.627505    36A     -0.612537  
      37A     -0.608397    38A     -0.588410    39A     -0.576985  
      40A     -0.547691    41A     -0.543253    42A     -0.535410  
      43A     -0.504669    44A     -0.500095    45A     -0.412312  
      46A     -0.405948    47A     -0.363748    48A     -0.344483  
      49A     -0.309346  

    Virtual:                                                              

      50A      0.020479    51A      0.027761    52A      0.034921  
      53A      0.040016    54A      0.044204    55A      0.057514  
      56A      0.058291    57A      0.062101    58A      0.075370  
      59A      0.081281    60A      0.082320    61A      0.085775  
      62A      0.089314    63A      0.089942    64A      0.097843  
      65A      0.099651    66A      0.104341    67A      0.109963  
      68A      0.111332    69A      0.112836    70A      0.114416  
      71A      0.119092    72A      0.127750    73A      0.132556  
      74A      0.136889    75A      0.137505    76A      0.139364  
      77A      0.140411    78A      0.143910    79A      0.147721  
      80A      0.152341    81A      0.152830    82A      0.156486  
      83A      0.165531    84A      0.170242    85A      0.172209  
      86A      0.177647    87A      0.179716    88A      0.180710  
      89A      0.192630    90A      0.194032    91A      0.202114  
      92A      0.204577    93A      0.209930    94A      0.218166  
      95A      0.227725    96A      0.230943    97A      0.232826  
      98A      0.234932    99A      0.237441   100A      0.240301  
     101A      0.245555   102A      0.248894   103A      0.258629  
     104A      0.265882   105A      0.266713   106A      0.270340  
     107A      0.272323   108A      0.278930   109A      0.281609  
     110A      0.282696   111A      0.286710   112A      0.287772  
     113A      0.297728   114A      0.303784   115A      0.306672  
     116A      0.311420   117A      0.314211   118A      0.317555  
     119A      0.318363   120A      0.326761   121A      0.327504  
     122A      0.333675   123A      0.333808   124A      0.338600  
     125A      0.346601   126A      0.351695   127A      0.354050  
     128A      0.357160   129A      0.366704   130A      0.368630  
     131A      0.375666   132A      0.386343   133A      0.391427  
     134A      0.394263   135A      0.400259   136A      0.410618  
     137A      0.412329   138A      0.416094   139A      0.418732  
     140A      0.424972   141A      0.425101   142A      0.426831  
     143A      0.431994   144A      0.433517   145A      0.439572  
     146A      0.442405   147A      0.444295   148A      0.450736  
     149A      0.453062   150A      0.456601   151A      0.460081  
     152A      0.462068   153A      0.463827   154A      0.467368  
     155A      0.473778   156A      0.475909   157A      0.478135  
     158A      0.485191   159A      0.493145   160A      0.497856  
     161A      0.498942   162A      0.501930   163A      0.503680  
     164A      0.504255   165A      0.508780   166A      0.510124  
     167A      0.515410   168A      0.516837   169A      0.525574  
     170A      0.528772   171A      0.530968   172A      0.541054  
     173A      0.541742   174A      0.548492   175A      0.550370  
     176A      0.563251   177A      0.565068   178A      0.567494  
     179A      0.570942   180A      0.576669   181A      0.580584  
     182A      0.584087   183A      0.590904   184A      0.597143  
     185A      0.597566   186A      0.601994   187A      0.606173  
     188A      0.614175   189A      0.620790   190A      0.626562  
     191A      0.633176   192A      0.650423   193A      0.659344  
     194A      0.662868   195A      0.669196   196A      0.676960  
     197A      0.677219   198A      0.683008   199A      0.692755  
     200A      0.696808   201A      0.698577   202A      0.705962  
     203A      0.711301   204A      0.721501   205A      0.723564  
     206A      0.727616   207A      0.734760   208A      0.740302  
     209A      0.745513   210A      0.753397   211A      0.753844  
     212A      0.760539   213A      0.766360   214A      0.768840  
     215A      0.782010   216A      0.782787   217A      0.788676  
     218A      0.791007   219A      0.808161   220A      0.808981  
     221A      0.811633   222A      0.814363   223A      0.823890  
     224A      0.827661   225A      0.830022   226A      0.840245  
     227A      0.840985   228A      0.854111   229A      0.860801  
     230A      0.863391   231A      0.865988   232A      0.870340  
     233A      0.872258   234A      0.876388   235A      0.887005  
     236A      0.889895   237A      0.892320   238A      0.897890  
     239A      0.898050   240A      0.909459   241A      0.911134  
     242A      0.916361   243A      0.926266   244A      0.930574  
     245A      0.934244   246A      0.936240   247A      0.941603  
     248A      0.947737   249A      0.951055   250A      0.952487  
     251A      0.957490   252A      0.959529   253A      0.963532  
     254A      0.970909   255A      0.973245   256A      0.974627  
     257A      0.981633   258A      0.986769   259A      0.992585  
     260A      0.998364   261A      1.003575   262A      1.011032  
     263A      1.013812   264A      1.016670   265A      1.023451  
     266A      1.023566   267A      1.031186   268A      1.035910  
     269A      1.038974   270A      1.040779   271A      1.049456  
     272A      1.051683   273A      1.052518   274A      1.057998  
     275A      1.060846   276A      1.063374   277A      1.068702  
     278A      1.068813   279A      1.074485   280A      1.084803  
     281A      1.095373   282A      1.101614   283A      1.104340  
     284A      1.108082   285A      1.111819   286A      1.117991  
     287A      1.122336   288A      1.125856   289A      1.133059  
     290A      1.138176   291A      1.142146   292A      1.149148  
     293A      1.156612   294A      1.165013   295A      1.171206  
     296A      1.180615   297A      1.181698   298A      1.184968  
     299A      1.190618   300A      1.190998   301A      1.203353  
     302A      1.207515   303A      1.208059   304A      1.214677  
     305A      1.215965   306A      1.225472   307A      1.229073  
     308A      1.234244   309A      1.238012   310A      1.240942  
     311A      1.245431   312A      1.250765   313A      1.256930  
     314A      1.263360   315A      1.269032   316A      1.270901  
     317A      1.286714   318A      1.289171   319A      1.304597  
     320A      1.306902   321A      1.316654   322A      1.324391  
     323A      1.325164   324A      1.328731   325A      1.337637  
     326A      1.347176   327A      1.352097   328A      1.356068  
     329A      1.357334   330A      1.358112   331A      1.367907  
     332A      1.373954   333A      1.391793   334A      1.392149  
     335A      1.396663   336A      1.410570   337A      1.413162  
     338A      1.435549   339A      1.437109   340A      1.443317  
     341A      1.453185   342A      1.457689   343A      1.466691  
     344A      1.474307   345A      1.483613   346A      1.494684  
     347A      1.509224   348A      1.517022   349A      1.521771  
     350A      1.522884   351A      1.528337   352A      1.533023  
     353A      1.537862   354A      1.555231   355A      1.563319  
     356A      1.571249   357A      1.584407   358A      1.587479  
     359A      1.596559   360A      1.607781   361A      1.614265  
     362A      1.622676   363A      1.629929   364A      1.634279  
     365A      1.651337   366A      1.657788   367A      1.659983  
     368A      1.666161   369A      1.666887   370A      1.676759  
     371A      1.681250   372A      1.698811   373A      1.701246  
     374A      1.711454   375A      1.720843   376A      1.725613  
     377A      1.732059   378A      1.737222   379A      1.738834  
     380A      1.743962   381A      1.753325   382A      1.760888  
     383A      1.772206   384A      1.779307   385A      1.787680  
     386A      1.788096   387A      1.797847   388A      1.811019  
     389A      1.811624   390A      1.824126   391A      1.830962  
     392A      1.839863   393A      1.842093   394A      1.847671  
     395A      1.850071   396A      1.863212   397A      1.873830  
     398A      1.879713   399A      1.889234   400A      1.916289  
     401A      1.920617   402A      1.930558   403A      1.931550  
     404A      1.944534   405A      1.960675   406A      1.962137  
     407A      1.973278   408A      1.977155   409A      1.979694  
     410A      1.991772   411A      1.995559   412A      1.999694  
     413A      2.005917   414A      2.017682   415A      2.023278  
     416A      2.026598   417A      2.026788   418A      2.031672  
     419A      2.052548   420A      2.053586   421A      2.057498  
     422A      2.067096   423A      2.071550   424A      2.083751  
     425A      2.092469   426A      2.098104   427A      2.113089  
     428A      2.117707   429A      2.130772   430A      2.140241  
     431A      2.148215   432A      2.149922   433A      2.156156  
     434A      2.166916   435A      2.180872   436A      2.183770  
     437A      2.197100   438A      2.199643   439A      2.211637  
     440A      2.220432   441A      2.223716   442A      2.226163  
     443A      2.239970   444A      2.247088   445A      2.253765  
     446A      2.258260   447A      2.264746   448A      2.271517  
     449A      2.295824   450A      2.301937   451A      2.302551  
     452A      2.312169   453A      2.314726   454A      2.326773  
     455A      2.331497   456A      2.332627   457A      2.354879  
     458A      2.373851   459A      2.392321   460A      2.406779  
     461A      2.416008   462A      2.420459   463A      2.427398  
     464A      2.437138   465A      2.452918   466A      2.458346  
     467A      2.461839   468A      2.470689   469A      2.485064  
     470A      2.494446   471A      2.497096   472A      2.511397  
     473A      2.518128   474A      2.538923   475A      2.551703  
     476A      2.556896   477A      2.572335   478A      2.580229  
     479A      2.597657   480A      2.612629   481A      2.631168  
     482A      2.642547   483A      2.647178   484A      2.666955  
     485A      2.678731   486A      2.699479   487A      2.730349  
     488A      2.740174   489A      2.741769   490A      2.761747  
     491A      2.776496   492A      2.801078   493A      2.806197  
     494A      2.825000   495A      2.827308   496A      2.839774  
     497A      2.860828   498A      2.865965   499A      2.889402  
     500A      2.893666   501A      2.939806   502A      2.944416  
     503A      2.946999   504A      2.990654   505A      3.008993  
     506A      3.033829   507A      3.037055   508A      3.061177  
     509A      3.076456   510A      3.093777   511A      3.104492  
     512A      3.118719   513A      3.139856   514A      3.147101  
     515A      3.154479   516A      3.164252   517A      3.172815  
     518A      3.184201   519A      3.193609   520A      3.209589  
     521A      3.224075   522A      3.245629   523A      3.255429  
     524A      3.270543   525A      3.285547   526A      3.296656  
     527A      3.306042   528A      3.330450   529A      3.331018  
     530A      3.345434   531A      3.351542   532A      3.354437  
     533A      3.364116   534A      3.366971   535A      3.394078  
     536A      3.401010   537A      3.412814   538A      3.424564  
     539A      3.428833   540A      3.436034   541A      3.441809  
     542A      3.451779   543A      3.454153   544A      3.471564  
     545A      3.471960   546A      3.490973   547A      3.512608  
     548A      3.513639   549A      3.518811   550A      3.522218  
     551A      3.535685   552A      3.537351   553A      3.546836  
     554A      3.550874   555A      3.579595   556A      3.580440  
     557A      3.581812   558A      3.594295   559A      3.599766  
     560A      3.614646   561A      3.622731   562A      3.632102  
     563A      3.643756   564A      3.649143   565A      3.657371  
     566A      3.666944   567A      3.667941   568A      3.684641  
     569A      3.704453   570A      3.705928   571A      3.710245  
     572A      3.715882   573A      3.736426   574A      3.739401  
     575A      3.752035   576A      3.758254   577A      3.758572  
     578A      3.772480   579A      3.789236   580A      3.792649  
     581A      3.804114   582A      3.819840   583A      3.829438  
     584A      3.833832   585A      3.835557   586A      3.840262  
     587A      3.850878   588A      3.860984   589A      3.871075  
     590A      3.886070   591A      3.892427   592A      3.900178  
     593A      3.907828   594A      3.911926   595A      3.920286  
     596A      3.931787   597A      3.949392   598A      3.959025  
     599A      3.959663   600A      3.967208   601A      3.971947  
     602A      3.979101   603A      3.980120   604A      3.984255  
     605A      4.000700   606A      4.009927   607A      4.023351  
     608A      4.032323   609A      4.033027   610A      4.044284  
     611A      4.066516   612A      4.077936   613A      4.078652  
     614A      4.087391   615A      4.093163   616A      4.106125  
     617A      4.121660   618A      4.144115   619A      4.145702  
     620A      4.146747   621A      4.159592   622A      4.173486  
     623A      4.192406   624A      4.197027   625A      4.205428  
     626A      4.212181   627A      4.216916   628A      4.217792  
     629A      4.227295   630A      4.237039   631A      4.246999  
     632A      4.264812   633A      4.275230   634A      4.280855  
     635A      4.283815   636A      4.296091   637A      4.304910  
     638A      4.307639   639A      4.314383   640A      4.325111  
     641A      4.325509   642A      4.328755   643A      4.342616  
     644A      4.356888   645A      4.362483   646A      4.366876  
     647A      4.377571   648A      4.388202   649A      4.393954  
     650A      4.416134   651A      4.419406   652A      4.424107  
     653A      4.446294   654A      4.453741   655A      4.466841  
     656A      4.467967   657A      4.478192   658A      4.494712  
     659A      4.502139   660A      4.513791   661A      4.529432  
     662A      4.550448   663A      4.551947   664A      4.558810  
     665A      4.569387   666A      4.587637   667A      4.590029  
     668A      4.596641   669A      4.604816   670A      4.605042  
     671A      4.630433   672A      4.633392   673A      4.636627  
     674A      4.656134   675A      4.656725   676A      4.681991  
     677A      4.694603   678A      4.721709   679A      4.731908  
     680A      4.737036   681A      4.739934   682A      4.754685  
     683A      4.771726   684A      4.775610   685A      4.790886  
     686A      4.810953   687A      4.828709   688A      4.849860  
     689A      4.879649   690A      4.886539   691A      4.889380  
     692A      4.889778   693A      4.924866   694A      4.925883  
     695A      4.943981   696A      4.950794   697A      4.975203  
     698A      4.988344   699A      4.990756   700A      5.006855  
     701A      5.024318   702A      5.032435   703A      5.048932  
     704A      5.055140   705A      5.062667   706A      5.099211  
     707A      5.105057   708A      5.105826   709A      5.120319  
     710A      5.127929   711A      5.128915   712A      5.144116  
     713A      5.152269   714A      5.162987   715A      5.163870  
     716A      5.168467   717A      5.190751   718A      5.195604  
     719A      5.204072   720A      5.241221   721A      5.268482  
     722A      5.274286   723A      5.297768   724A      5.322999  
     725A      5.325324   726A      5.349578   727A      5.350950  
     728A      5.371272   729A      5.386992   730A      5.426094  
     731A      5.437318   732A      5.454313   733A      5.475133  
     734A      5.483062   735A      5.503661   736A      5.542838  
     737A      5.545105   738A      5.553197   739A      5.575251  
     740A      5.585446   741A      5.592958   742A      5.611143  
     743A      5.652631   744A      5.699069   745A      5.738083  
     746A      5.752163   747A      5.752964   748A      5.782040  
     749A      5.789931   750A      5.797979   751A      5.833140  
     752A      5.841755   753A      5.843472   754A      5.893696  
     755A      5.904389   756A      5.915246   757A      5.957389  
     758A      6.007040   759A      6.036425   760A      6.086855  
     761A      6.117955   762A      6.181882   763A      6.223695  
     764A      6.239278   765A      6.264222   766A      6.292666  
     767A      6.364962   768A      6.383658   769A      6.417267  
     770A      6.439018   771A      6.474827   772A      6.518007  
     773A      6.552208   774A      6.619446   775A      6.662129  
     776A      6.686844   777A      6.710029   778A      6.734088  
     779A      6.756011   780A      6.773833   781A      6.806573  
     782A      6.878465   783A      6.891007   784A      6.903853  
     785A      6.936778   786A      6.984387   787A      6.998122  
     788A      7.054312   789A      7.097405   790A      7.116246  
     791A      7.211635   792A      7.246744   793A      7.405881  
     794A      7.409228   795A      7.461484   796A      7.531917  
     797A      7.663752   798A      7.695044   799A      7.748421  
     800A      8.006088   801A      8.381146   802A      8.632893  
     803A      9.081816   804A      9.235160   805A      9.280846  
     806A      9.400808   807A      9.421147   808A      9.518780  
     809A      9.630111   810A      9.644198   811A      9.700120  
     812A      9.731390   813A     10.123440   814A     10.167338  
     815A     15.629738   816A     16.298369   817A     16.651700  
     818A     17.004703   819A     17.087595   820A     17.668732  
     821A     18.681428   822A     18.977836   823A     19.952611  
     824A     20.246226   825A     20.871890   826A     21.004206  
     827A     21.187655   828A     21.282017  

    Final Occupation by Irrep:
              A 
    DOCC [    49 ]

  Energy converged.

  @DF-RHF Final Energy:  -650.15509017113288

   => Energetics <=

    Nuclear Repulsion Energy =            818.1197899797198261
    One-Electron Energy =               -2510.8795813435367563
    Two-Electron Energy =                1042.6047011926841606
    DFT Exchange-Correlation Energy =       0.0000000000000000
    Empirical Dispersion Energy =           0.0000000000000000
    PCM Polarization Energy =               0.0000000000000000
    EFP Energy =                            0.0000000000000000
    Total Energy =                       -650.1550901711327697



Properties will be evaluated at   0.000000,   0.000000,   0.000000 Bohr

Properties computed using the SCF density matrix

  Nuclear Dipole Moment: (a.u.)
     X:    -2.1300      Y:     1.3127      Z:    -4.2675

  Electronic Dipole Moment: (a.u.)
     X:     0.9653      Y:    -0.6979      Z:     5.1067

  Dipole Moment: (a.u.)
     X:    -1.1647      Y:     0.6149      Z:     0.8392     Total:     1.5617

  Dipole Moment: (Debye)
     X:    -2.9604      Y:     1.5628      Z:     2.1331     Total:     3.9694


*** tstop() called on gpu-1-16.local at Sat Nov 11 19:48:29 2017
Module time:
	user time   =    1179.78 seconds =      19.66 minutes
	system time =      50.90 seconds =       0.85 minutes
	total time  =        490 seconds =       8.17 minutes
Total time:
	user time   =    1179.79 seconds =      19.66 minutes
	system time =      50.90 seconds =       0.85 minutes
	total time  =        490 seconds =       8.17 minutes

  //>>>>>>>>>>>>>>>>>>>>>>>>>>>>>>>>>>>//
  //               DFMP2               //
  //<<<<<<<<<<<<<<<<<<<<<<<<<<<<<<<<<<<//

   => Loading Basis Set <=

    Name: (AUG-CC-PVTZ AUX)
    Role: RIFIT
    Keyword: DF_BASIS_MP2
    atoms 1-11  entry C          line   147 file /cbio/jclab/home/chayas/anaconda/envs/py35/share/psi4/basis/aug-cc-pvtz-ri.gbs 
    atoms 12    entry N          line   205 file /cbio/jclab/home/chayas/anaconda/envs/py35/share/psi4/basis/aug-cc-pvtz-ri.gbs 
    atoms 13    entry O          line   263 file /cbio/jclab/home/chayas/anaconda/envs/py35/share/psi4/basis/aug-cc-pvtz-ri.gbs 
    atoms 14    entry F          line   321 file /cbio/jclab/home/chayas/anaconda/envs/py35/share/psi4/basis/aug-cc-pvtz-ri.gbs 
    atoms 15-22 entry H          line    29 file /cbio/jclab/home/chayas/anaconda/envs/py35/share/psi4/basis/aug-cc-pvtz-ri.gbs 

	 --------------------------------------------------------
	                          DF-MP2                         
	      2nd-Order Density-Fitted Moller-Plesset Theory     
	              RMP2 Wavefunction,   8 Threads             
	                                                         
	        Rob Parrish, Justin Turney, Andy Simmonett,      
	           Ed Hohenstein, and C. David Sherrill          
	 --------------------------------------------------------

   => Auxiliary Basis Set <=

  Basis Set: (AUG-CC-PVTZ AUX)
    Blend: AUG-CC-PVTZ-RI
    Number of shells: 504
    Number of basis function: 1852
    Number of Cartesian functions: 2344
    Spherical Harmonics?: true
    Max angular momentum: 4

	 --------------------------------------------------------
	                 NBF =   828, NAUX =  1852
	 --------------------------------------------------------
	   CLASS    FOCC     OCC    AOCC    AVIR     VIR    FVIR
	   PAIRS       0      49      49     779     779       0
	 --------------------------------------------------------


         ------------------------------------------------------------
                                     CPHF                           
                                  Rob Parrish                       
         ------------------------------------------------------------

  ==> Geometry <==

    Molecular point group: c1
    Full point group: C1

    Geometry (in Angstrom), charge = 0, multiplicity = 1:

       Center              X                  Y                   Z               Mass       
    ------------   -----------------  -----------------  -----------------  -----------------
           C         -1.321971094811     0.754874062252    -0.800135310370    12.000000000000
           C         -2.399971094811     1.327874062252    -0.127135310370    12.000000000000
           C          0.872028905189    -0.412125937748    -2.172135310370    12.000000000000
           C          1.867028905189    -1.027125937748    -0.071135310370    12.000000000000
           C         -1.406971094811     0.711874062252     1.987864689630    12.000000000000
           C          1.964028905189    -0.993125937748    -2.798135310370    12.000000000000
           C          2.914028905189    -1.580125937748    -0.790135310370    12.000000000000
           C         -0.285971094811     0.159874062252    -0.080135310370    12.000000000000
           C          0.831028905189    -0.434125937748    -0.783135310370    12.000000000000
           C         -2.442971094811     1.306874062252     1.266864689630    12.000000000000
           C         -0.328971094811     0.138874062252     1.313864689630    12.000000000000
           N          2.989028905189    -1.579125937748    -2.140135310370    14.003074004780
           O         -3.495971094811     1.866874062252     1.923864689630    15.994914619560
           F          0.659028905189    -0.429125937748     2.020864689630    18.998403224000
           H         -1.302971094811     0.778874062252    -1.887135310370     1.007825032070
           H         -3.204971094811     1.788874062252    -0.694135310370     1.007825032070
           H          0.083028905189     0.041874062252    -2.762135310370     1.007825032070
           H          1.869028905189    -1.063125937748     1.013864689630     1.007825032070
           H         -1.434971094811     0.691874062252     3.073864689630     1.007825032070
           H          2.044028905189    -1.001125937748    -3.880135310370     1.007825032070
           H          3.747028905189    -2.056125937748    -0.282135310370     1.007825032070
           H         -3.381971094811     1.772874062252     2.882864689630     1.007825032070

  Nuclear repulsion =  818.119789979719826
  Reference energy  = -650.155090171132883

  ==> Basis Set <==

  Basis Set: AUG-CC-PVTZ
    Blend: AUG-CC-PVTZ
    Number of shells: 268
    Number of basis function: 828
    Number of Cartesian functions: 970
    Spherical Harmonics?: true
    Max angular momentum: 3

  ==> CGRSolver (by Rob Parrish) <==

   Number of roots    =         1
   Preconditioning    =    JACOBI
   Convergence cutoff =     1E-06
   Maximum iterations =       100

  ==> CPHFRHamiltonian (by Rob Parrish) <== 

  ==> DFJK: Density-Fitted J/K Matrices <==

    J tasked:                  Yes
    K tasked:                  Yes
    wK tasked:                  No
    OpenMP threads:              8
    Integrals threads:           8
    Memory (MB):              3576
    Algorithm:                Disk
    Integral Cache:           NONE
    Schwarz Cutoff:          1E-12
    Fitting Condition:       1E-12

   => Auxiliary Basis Set <=

  Basis Set: (AUG-CC-PVTZ AUX)
    Blend: AUG-CC-PVTZ-JKFIT
    Number of shells: 532
    Number of basis function: 1824
    Number of Cartesian functions: 2274
    Spherical Harmonics?: true
    Max angular momentum: 4

  ==> CPHF Iterations <==

  => Iterations <=

             Iter  Converged  Remaining    Residual
  CGR           1          0          1   1.056E-01
  CGR           2          0          1   3.705E-02
  CGR           3          0          1   2.584E-02
  CGR           4          0          1   1.089E-02
  CGR           5          0          1   4.633E-03
  CGR           6          0          1   1.760E-03
  CGR           7          0          1   5.063E-04
  CGR           8          0          1   1.689E-04
  CGR           9          0          1   5.883E-05
  CGR          10          0          1   2.156E-05
  CGR          11          0          1   1.137E-05
  CGR          12          0          1   4.663E-06
  CGR          13          0          1   1.954E-06
  CGR          14          1          0   6.156E-07

    CGRSolver converged.

  ==> DFCorrGrad: Density-Fitted Correlated Gradients <==

    OpenMP threads:              8
    Integrals threads:           8
    Memory (MB):              3576
    Schwarz Cutoff:          0E+00
    Fitting Condition:       1E-12

   => Auxiliary Basis Set <=

  Basis Set: (AUG-CC-PVTZ AUX)
    Blend: AUG-CC-PVTZ-JKFIT
    Number of shells: 532
    Number of basis function: 1824
    Number of Cartesian functions: 2274
    Spherical Harmonics?: true
    Max angular momentum: 4

	-----------------------------------------------------------
	 ==================> DF-MP2 Energies <==================== 
	-----------------------------------------------------------
	 Reference Energy          =    -650.1550901711328834 [Eh]
	 Singles Energy            =      -0.0000000000000002 [Eh]
	 Same-Spin Energy          =      -0.6799905365516701 [Eh]
	 Opposite-Spin Energy      =      -2.0231352048336291 [Eh]
	 Correlation Energy        =      -2.7031257413852989 [Eh]
	 Total Energy              =    -652.8582159125181761 [Eh]
	-----------------------------------------------------------
	 ================> DF-SCS-MP2 Energies <================== 
	-----------------------------------------------------------
	 SCS Same-Spin Scale       =       0.3333333333333333 [-]
	 SCS Opposite-Spin Scale   =       1.2000000000000000 [-]
	 SCS Same-Spin Energy      =      -0.2266635121838900 [Eh]
	 SCS Opposite-Spin Energy  =      -2.4277622458003547 [Eh]
	 SCS Correlation Energy    =      -2.6544257579842450 [Eh]
	 SCS Total Energy          =    -652.8095159291170830 [Eh]
	-----------------------------------------------------------


  -Total Gradient:
     Atom            X                  Y                   Z
    ------   -----------------  -----------------  -----------------
       1        0.013945523048    -0.007022758355    -0.017809377646
       2        0.001746170201    -0.001107616480     0.005810237531
       3       -0.011133666613     0.005930931575     0.004338790276
       4       -0.017646418140     0.009460568352     0.007336277488
       5       -0.008836484261     0.004819839555     0.000806769476
       6       -0.008803422922     0.004940562086    -0.003013720433
       7       -0.003397946034     0.001658934276     0.016342292065
       8       -0.008442207921     0.004586506058     0.002444725636
       9        0.005089661008    -0.002780355826    -0.004307656642
      10       -0.008235975554     0.004768001125    -0.006444739961
      11        0.029325656583    -0.016358221246     0.006706524239
      12        0.010460307968    -0.005683392691    -0.007925629595
      13        0.002509106384    -0.001388270706     0.000785047977
      14        0.018721263241    -0.009609853903    -0.021455570883
      15        0.001367958801    -0.000433473559    -0.010403629629
      16       -0.002977649064     0.001735850278    -0.005288718405
      17       -0.006957468792     0.003909705743    -0.001838206467
      18       -0.008260509183     0.003810828957     0.022141303569
      19       -0.001013459805     0.000401336013     0.004143533643
      20        0.000907237968    -0.000342811045    -0.002451727876
      21        0.002763279500    -0.001617926630     0.000775206590
      22       -0.001130956428     0.000321616430     0.009308269047


*** tstop() called on gpu-1-16.local at Sat Nov 11 20:26:18 2017
Module time:
	user time   =    5821.01 seconds =      97.02 minutes
	system time =     109.64 seconds =       1.83 minutes
	total time  =       2759 seconds =      45.98 minutes
Total time:
	user time   =    5821.02 seconds =      97.02 minutes
	system time =     109.64 seconds =       1.83 minutes
	total time  =       2759 seconds =      45.98 minutes

			-----------------------------------------
			 OPTKING 2.0: for geometry optimizations 
			  - R.A. King,  Bethel University        
			-----------------------------------------

	Internal coordinates to be generated automatically.
	Detected frag 1 with atoms:  1 2 3 4 5 6 7 8 9 10 11 12 13 14 15 16 17 18 19 20
	 21 22
	---Fragment 1 Bond Connectivity---
	 1 : 2 8 15
	 2 : 1 10 16
	 3 : 6 9 17
	 4 : 7 9 18
	 5 : 10 11 19
	 6 : 3 12 20
	 7 : 4 12 21
	 8 : 1 9 11
	 9 : 3 4 8
	 10 : 2 5 13
	 11 : 5 8 14
	 12 : 6 7
	 13 : 10 22
	 14 : 11
	 15 : 1
	 16 : 2
	 17 : 3
	 18 : 4
	 19 : 5
	 20 : 6
	 21 : 7
	 22 : 13

	Assuming in current code that numbering for constraints corresponds to unified fragment.
	Fixed dihedral atom list: 
	     1     8     9     3
	---Fragment 1 Geometry and Gradient---
	 C          -2.4981633248        1.4265052425       -1.5120366059
	 C          -4.5352880960        2.5093183166       -0.2402509184
	 C           1.6478958108       -0.7788051546       -4.1047408602
	 C           3.5281733130       -1.9409867263       -0.1344262550
	 C          -2.6587900461        1.3452470188        3.7565198526
	 C           3.7114767479       -1.8767360378       -5.2877094194
	 C           5.5067165741       -2.9860052778       -1.4931393445
	 C          -0.5404070511        0.3021181934       -0.1514337902
	 C           1.5704170393       -0.8203791295       -1.4799112616
	 C          -4.6165463197        2.4696340678        2.3940273108
	 C          -0.6216652748        0.2624339446        2.4828444391
	 N           5.6484460341       -2.9841155517       -4.0442696239
	 O          -6.6064279377        3.5278807022        3.6355773801
	 F           1.2453841445       -0.8109304989        3.8188808150
	 H          -2.4622585283        1.4718586697       -3.5661689123
	 H          -6.0565176330        3.3804820639       -1.3117256358
	 H           0.1569018919        0.0791305097       -5.2196792786
	 H           3.5319527653       -2.0090168671        1.9159265992
	 H          -2.7117023778        1.3074524961        5.8087624329
	 H           3.8626548385       -1.8918538469       -7.3323930951
	 H           7.0808584428       -3.8855149171       -0.5331584690
	 H          -6.3909991585        3.3502464458        5.4478247416
	             0.0139455230       -0.0070227584       -0.0178093776
	             0.0017461702       -0.0011076165        0.0058102375
	            -0.0111336666        0.0059309316        0.0043387903
	            -0.0176464181        0.0094605684        0.0073362775
	            -0.0088364843        0.0048198396        0.0008067695
	            -0.0088034229        0.0049405621       -0.0030137204
	            -0.0033979460        0.0016589343        0.0163422921
	            -0.0084422079        0.0045865061        0.0024447256
	             0.0050896610       -0.0027803558       -0.0043076566
	            -0.0082359756        0.0047680011       -0.0064447400
	             0.0293256566       -0.0163582212        0.0067065242
	             0.0104603080       -0.0056833927       -0.0079256296
	             0.0025091064       -0.0013882707        0.0007850480
	             0.0187212632       -0.0096098539       -0.0214555709
	             0.0013679588       -0.0004334736       -0.0104036296
	            -0.0029776491        0.0017358503       -0.0052887184
	            -0.0069574688        0.0039097057       -0.0018382065
	            -0.0082605092        0.0038108290        0.0221413036
	            -0.0010134598        0.0004013360        0.0041435336
	             0.0009072380       -0.0003428110       -0.0024517279
	             0.0027632795       -0.0016179266        0.0007752066
	            -0.0011309564        0.0003216164        0.0093082690

	Previous optimization step data not found.  Starting new optimization.

	---Fragment 1 Intrafragment Coordinates---
	 - Coordinate -           - BOHR/RAD -       - ANG/DEG -
	 R(1,2)           =         2.634350	       1.394038
	 R(1,8)           =         2.635962	       1.394891
	 R(1,15)          =         2.054947	       1.087431
	 R(2,10)          =         2.635830	       1.394821
	 R(2,16)          =         2.054537	       1.087214
	 R(3,6)           =         2.619777	       1.386326
	 R(3,9)           =         2.626302	       1.389779
	 R(3,17)          =         2.049928	       1.084775
	 R(4,7)           =         2.617785	       1.385272
	 R(4,9)           =         2.626576	       1.389924
	 R(4,18)          =         2.051485	       1.085599
	 R(5,10)          =         2.636938	       1.395407
	 R(5,11)          =         2.635263	       1.394521
	 R(5,19)          =         2.053272	       1.086545
	 R(6,12)          =         2.554267	       1.351660
	 R(6,20)          =         2.050321	       1.084983
	 R(7,12)          =         2.555065	       1.352082
	 R(7,21)          =         2.051488	       1.085601
	 R(8,9)           =         2.735038	       1.447320
	 R(8,11)          =         2.635830	       1.394821
	 R(10,13)         =         2.573123	       1.361638
	 R(11,14)         =         2.534359	       1.341125
	 R(13,22)         =         1.833631	       0.970316
	 B(1,2,10)        =         2.094553	     120.009056
	 B(1,2,16)        =         2.088723	     119.675016
	 B(1,8,9)         =         2.091569	     119.838095
	 B(1,8,11)        =         2.093692	     119.959722
	 B(2,1,8)         =         2.094940	     120.031219
	 B(2,1,15)        =         2.079469	     119.144799
	 B(2,10,5)        =         2.094306	     119.994870
	 B(2,10,13)       =         2.094247	     119.991510
	 B(3,6,12)        =         2.164220	     124.000693
	 B(3,6,20)        =         2.107704	     120.762559
	 B(3,9,4)         =         2.090630	     119.784265
	 B(3,9,8)         =         2.096388	     120.114157
	 B(4,7,12)        =         2.165015	     124.046237
	 B(4,7,21)        =         2.108427	     120.803994
	 B(4,9,8)         =         2.096167	     120.101538
	 B(5,10,13)       =         2.094633	     120.013619
	 B(5,11,8)        =         2.095181	     120.045019
	 B(5,11,14)       =         2.081414	     119.256220
	 B(6,3,9)         =         2.057714	     117.898299
	 B(6,3,17)        =         2.097543	     120.180352
	 B(6,12,7)        =         2.031206	     116.379546
	 B(7,4,9)         =         2.057585	     117.890912
	 B(7,4,18)        =         2.099153	     120.272607
	 B(8,1,15)        =         2.108776	     120.823969
	 B(8,11,14)       =         2.106591	     120.698759
	 B(9,3,17)        =         2.127929	     121.921335
	 B(9,4,18)        =         2.126448	     121.836481
	 B(9,8,11)        =         2.097924	     120.202184
	 B(10,2,16)       =         2.099909	     120.315896
	 B(10,5,11)       =         2.093699	     119.960108
	 B(10,5,19)       =         2.100355	     120.341451
	 B(10,13,22)      =         1.924294	     110.253909
	 B(11,5,19)       =         2.089132	     119.698439
	 B(12,6,20)       =         2.011260	     115.236737
	 B(12,7,21)       =         2.009741	     115.149668
	 D(1,2,10,5)      =        -0.000325	      -0.018609
	 D(1,2,10,13)     =         3.141388	     179.988267
	 D(1,8,9,3)       =         0.000000	       0.000000
	 D(1,8,9,4)       =         3.140324	     179.927319
	 D(1,8,11,5)      =         0.000325	       0.018608
	 D(1,8,11,14)     =        -3.141528	    -179.996269
	 D(2,1,8,9)       =         3.141277	     179.981897
	 D(2,1,8,11)      =        -0.000348	      -0.019945
	 D(2,10,5,11)     =         0.000301	       0.017261
	 D(2,10,5,19)     =        -3.141029	    -179.967685
	 D(2,10,13,22)    =         3.141285	     179.982383
	 D(3,6,12,7)      =        -0.001263	      -0.072383
	 D(3,9,4,7)       =         0.000102	       0.005826
	 D(3,9,4,18)      =        -3.141509	    -179.995179
	 D(3,9,8,11)      =        -3.141552	    -179.997644
	 D(4,7,12,6)      =         0.001464	       0.083887
	 D(4,9,3,6)       =         0.000078	       0.004447
	 D(4,9,3,17)      =        -3.140785	    -179.953722
	 D(4,9,8,11)      =        -0.001236	      -0.070835
	 D(5,10,2,16)     =         3.140149	     179.917291
	 D(5,10,13,22)    =        -0.000187	      -0.010740
	 D(5,11,8,9)      =        -3.141300	    -179.983240
	 D(6,3,9,8)       =         3.140397	     179.931488
	 D(6,12,7,21)     =         3.141052	     179.969014
	 D(7,4,9,8)       =        -3.140218	    -179.921225
	 D(7,12,6,20)     =         3.139659	     179.889191
	 D(8,1,2,10)      =         0.000348	       0.019955
	 D(8,1,2,16)      =        -3.140133	    -179.916358
	 D(8,9,3,17)      =        -0.000466	      -0.026680
	 D(8,9,4,18)      =         0.001357	       0.077770
	 D(8,11,5,10)     =        -0.000301	      -0.017270
	 D(8,11,5,19)     =         3.141030	     179.967774
	 D(9,3,6,12)      =         0.000532	       0.030477
	 D(9,3,6,20)      =        -3.140355	    -179.929073
	 D(9,4,7,12)      =        -0.000919	      -0.052651
	 D(9,4,7,21)      =        -3.140399	    -179.931589
	 D(9,8,1,15)      =         0.000403	       0.023110
	 D(9,8,11,14)     =         0.000033	       0.001883
	 D(10,2,1,15)     =         3.141234	     179.979432
	 D(10,5,11,14)    =         3.141547	     179.997392
	 D(11,5,10,13)    =        -3.141411	    -179.989616
	 D(11,8,1,15)     =        -3.141221	    -179.978731
	 D(12,6,3,17)     =         3.141408	     179.989405
	 D(12,7,4,18)     =         3.140691	     179.948337
	 D(13,10,2,16)    =        -0.001324	      -0.075833
	 D(13,10,5,19)    =         0.000444	       0.025437
	 D(14,11,5,19)    =        -0.000307	      -0.017564
	 D(15,1,2,16)     =         0.000753	       0.043120
	 D(17,3,6,20)     =         0.000521	       0.029854
	 D(18,4,7,21)     =         0.001211	       0.069400
	 R(4,14)          =         4.702849	       2.488641

	Current energy   :      -652.8582159125

	Generating empirical Hessian (Schlegel '84) for each fragment.
	Adding user-defined constraint: Fragment 1; Coordinate 61:
		Value =     0.000000; Fixed value    =     0.000017
		Force =     0.000009; Force constant =     0.500000
	Removing off-diagonal coupling between coordinate 61 and others.
	Taking RFO optimization step.
	Going to follow RFO solution 1.
	Using RFO vector 1.

	Determining step-restricting scale parameter for RS-RFO.
	Maximum step size allowed    0.10000

	 Iter      |step|        alpha        rfo_root  
	------------------------------------------------
	    0     0.47149       1.00000           1
	    1     0.30493       4.07333           1
	    2     0.20551      11.85871           1
	    3     0.14708      27.71986           1
	    4     0.11571      49.67793           1
	    5     0.10277      65.79753           1
	    6     0.10011      69.97485           1
	    7     0.10000      70.16300           1
	------------------------------------------------
	Norm of target step-size    0.10000
	Projected energy change by RFO approximation:        -0.0077610830

	Back-transformation to cartesian coordinates...
	Successfully converged to displaced geometry.

	--- Internal Coordinate Step in ANG or DEG, aJ/ANG or AJ/DEG ---
	 ---------------------------------------------------------------------------
	   Coordinate                Previous        Force       Change         New 
	   ----------                --------       ------       ------       ------
	    1 R(1,2)          =      1.394038    -0.070052    -0.004401     1.389637
	    2 R(1,8)          =      1.394891     0.023529     0.001606     1.396497
	    3 R(1,15)         =      1.087431    -0.085796    -0.006050     1.081380
	    4 R(2,10)         =      1.394821    -0.089176    -0.005737     1.389084
	    5 R(2,16)         =      1.087214    -0.046951    -0.003310     1.083904
	    6 R(3,6)          =      1.386326    -0.025323    -0.001646     1.384681
	    7 R(3,9)          =      1.389779     0.052988     0.003571     1.393350
	    8 R(3,17)         =      1.084775    -0.063411    -0.004457     1.080319
	    9 R(4,7)          =      1.385272     0.022140     0.001419     1.386691
	   10 R(4,9)          =      1.389924     0.094199     0.006215     1.396139
	   11 R(4,18)         =      1.085599    -0.181148    -0.012745     1.072854
	   12 R(5,10)         =      1.395407    -0.070590    -0.004561     1.390847
	   13 R(5,11)         =      1.394521    -0.112805    -0.007052     1.387469
	   14 R(5,19)         =      1.086545    -0.034275    -0.002414     1.084131
	   15 R(6,12)         =      1.351660    -0.140425    -0.008471     1.343189
	   16 R(6,20)         =      1.084983    -0.020717    -0.001456     1.083527
	   17 R(7,12)         =      1.352082    -0.139269    -0.008345     1.343737
	   18 R(7,21)         =      1.085601    -0.026301    -0.001850     1.083750
	   19 R(8,9)          =      1.447320     0.196712     0.013727     1.461046
	   20 R(8,11)         =      1.394821    -0.075795    -0.004279     1.390542
	   21 R(10,13)        =      1.361638    -0.027728    -0.001640     1.359998
	   22 R(11,14)        =      1.341125    -0.049756    -0.002836     1.338290
	   23 R(13,22)        =      0.970316    -0.074445    -0.004376     0.965940
	   24 B(1,2,10)       =    120.009056    -0.000055    -0.059543   119.949513
	   25 B(1,2,16)       =    119.675016     0.000240     0.251762   119.926778
	   26 B(1,8,9)        =    119.838095     0.001451     1.254085   121.092179
	   27 B(1,8,11)       =    119.959722    -0.001715    -1.610490   118.349231
	   28 B(2,1,8)        =    120.031219     0.000832     0.836056   120.867275
	   29 B(2,1,15)       =    119.144799    -0.000522    -0.529176   118.615624
	   30 B(2,10,5)       =    119.994870    -0.000176    -0.186232   119.808639
	   31 B(2,10,13)      =    119.991510    -0.000683    -0.623761   119.367750
	   32 B(3,6,12)       =    124.000693     0.000135     0.077165   124.077858
	   33 B(3,6,20)       =    120.762559    -0.000129    -0.103086   120.659474
	   34 B(3,9,4)        =    119.784265    -0.001527    -1.374152   118.410113
	   35 B(3,9,8)        =    120.114157     0.000554     0.423734   120.537891
	   36 B(4,7,12)       =    124.046237     0.000448     0.407542   124.453779
	   37 B(4,7,21)       =    120.803994    -0.000287    -0.270066   120.533928
	   38 B(4,9,8)        =    120.101538     0.000972     0.950422   121.051960
	   39 B(5,10,13)      =    120.013619     0.000859     0.809993   120.823611
	   40 B(5,11,8)       =    120.045019     0.001327     1.227250   121.272269
	   41 B(5,11,14)      =    119.256220    -0.000448    -0.479946   118.776274
	   42 B(6,3,9)        =    117.898299     0.000781     0.789935   118.688234
	   43 B(6,3,17)       =    120.180352    -0.000609    -0.623374   119.556978
	   44 B(6,12,7)       =    116.379546    -0.000042    -0.161696   116.217850
	   45 B(7,4,9)        =    117.890912     0.000203     0.261213   118.152125
	   46 B(7,4,18)       =    120.272607    -0.000840    -0.903355   119.369252
	   47 B(8,1,15)       =    120.823969    -0.000310    -0.306879   120.517090
	   48 B(8,11,14)      =    120.698759    -0.000879    -0.747304   119.951455
	   49 B(9,3,17)       =    121.921335    -0.000172    -0.166558   121.754777
	   50 B(9,4,18)       =    121.836481     0.000637     0.642142   122.478622
	   51 B(9,8,11)       =    120.202184     0.000264     0.356406   120.558590
	   52 B(10,2,16)      =    120.315896    -0.000185    -0.192216   120.123680
	   53 B(10,5,11)      =    119.960108    -0.000214    -0.207040   119.753068
	   54 B(10,5,19)      =    120.341451     0.000187     0.187237   120.528688
	   55 B(10,13,22)     =    110.253909    -0.000352    -0.368785   109.885123
	   56 B(11,5,19)      =    119.698439     0.000027     0.019804   119.718243
	   57 B(12,6,20)      =    115.236737    -0.000006     0.025922   115.262659
	   58 B(12,7,21)      =    115.149668    -0.000161    -0.137463   115.012206
	   59 D(1,2,10,5)     =     -0.018609     0.000000     0.000962    -0.017647
	   60 D(1,2,10,13)    =    179.988267     0.000000     0.000388   179.988654
	   61 D(1,8,9,3)      =      0.000000    -0.000000     0.000000     0.000000
	   62 D(1,8,9,4)      =    179.927319     0.000000     0.001838   179.929157
	   63 D(1,8,11,5)     =      0.018608    -0.000000    -0.001998     0.016610
	   64 D(1,8,11,14)    =   -179.996269    -0.000000    -0.001246  -179.997515
	   65 D(2,1,8,9)      =    179.981897     0.000000     0.001630   179.983527
	   66 D(2,1,8,11)     =     -0.019945     0.000000     0.002344    -0.017600
	   67 D(2,10,5,11)    =      0.017261    -0.000000    -0.000693     0.016569
	   68 D(2,10,5,19)    =   -179.967685    -0.000000    -0.001011  -179.968696
	   69 D(2,10,13,22)   =    179.982383     0.000000     0.000334   179.982717
	   70 D(3,6,12,7)     =     -0.072383     0.000001     0.004064    -0.068320
	   71 D(3,9,4,7)      =      0.005826    -0.000000    -0.000944     0.004883
	   72 D(3,9,4,18)     =   -179.995179    -0.000000    -0.000467  -179.995646
	   73 D(3,9,8,11)     =   -179.997644    -0.000000    -0.001259  -179.998902
	   74 D(4,7,12,6)     =      0.083887    -0.000001    -0.005427     0.078460
	   75 D(4,9,3,6)      =      0.004447    -0.000000    -0.000535     0.003912
	   76 D(4,9,3,17)     =   -179.953722    -0.000001    -0.003114  -179.956836
	   77 D(4,9,8,11)     =     -0.070835     0.000000     0.001143    -0.069691
	   78 D(5,10,2,16)    =    179.917291     0.000001     0.003347   179.920638
	   79 D(5,10,13,22)   =     -0.010740    -0.000000    -0.000176    -0.010915
	   80 D(5,11,8,9)     =   -179.983240    -0.000000    -0.001270  -179.984511
	   81 D(6,3,9,8)      =    179.931488     0.000001     0.003474   179.934963
	   82 D(6,12,7,21)    =    179.969014     0.000000     0.002127   179.971141
	   83 D(7,4,9,8)      =   -179.921225    -0.000001    -0.004574  -179.925798
	   84 D(7,12,6,20)    =    179.889191     0.000001     0.006721   179.895912
	   85 D(8,1,2,10)     =      0.019955    -0.000000    -0.001575     0.018380
	   86 D(8,1,2,16)     =   -179.916358    -0.000001    -0.003670  -179.920028
	   87 D(8,9,3,17)     =     -0.026680     0.000000     0.000895    -0.025786
	   88 D(8,9,4,18)     =      0.077770    -0.000001    -0.004097     0.073673
	   89 D(8,11,5,10)    =     -0.017270     0.000000     0.000963    -0.016307
	   90 D(8,11,5,19)    =    179.967774     0.000000     0.001305   179.969078
	   91 D(9,3,6,12)     =      0.030477    -0.000000    -0.001062     0.029416
	   92 D(9,3,6,20)     =   -179.929073    -0.000001    -0.003907  -179.932980
	   93 D(9,4,7,12)     =     -0.052651     0.000001     0.003966    -0.048686
	   94 D(9,4,7,21)     =   -179.931589    -0.000001    -0.004184  -179.935773
	   95 D(9,8,1,15)     =      0.023110    -0.000000    -0.001073     0.022037
	   96 D(9,8,11,14)    =      0.001883    -0.000000    -0.000519     0.001364
	   97 D(10,2,1,15)    =    179.979432     0.000000     0.001155   179.980587
	   98 D(10,5,11,14)   =    179.997392     0.000000     0.000264   179.997656
	   99 D(11,5,10,13)   =   -179.989616    -0.000000    -0.000210  -179.989826
	  100 D(11,8,1,15)    =   -179.978731    -0.000000    -0.000358  -179.979089
	  101 D(12,6,3,17)    =    179.989405     0.000000     0.001642   179.991047
	  102 D(12,7,4,18)    =    179.948337     0.000001     0.003489   179.951826
	  103 D(13,10,2,16)   =     -0.075833     0.000000     0.002773    -0.073060
	  104 D(13,10,5,19)   =      0.025437    -0.000000    -0.000529     0.024909
	  105 D(14,11,5,19)   =     -0.017564     0.000000     0.000606    -0.016958
	  106 D(15,1,2,16)    =      0.043120    -0.000000    -0.000940     0.042179
	  107 D(17,3,6,20)    =      0.029854    -0.000000    -0.001204     0.028650
	  108 D(18,4,7,21)    =      0.069400    -0.000001    -0.004662     0.064738
	  109 R(4,14)         =      2.488641     0.260079     0.027354     2.515994
	 ---------------------------------------------------------------------------
	Successfully symmetrized geometry.
	 Forces used to impose fixed constraints are not included.
	  Forces zeroed: 61 

  ==> Convergence Check <==

  Measures of convergence in internal coordinates in au.
  Criteria marked as inactive (o), active & met (*), and active & unmet ( ).
  --------------------------------------------------------------------------------------------- ~
   Step     Total Energy     Delta E     MAX Force     RMS Force      MAX Disp      RMS Disp    ~
  --------------------------------------------------------------------------------------------- ~
    Convergence Criteria    1.00e-06 *    3.00e-04 *             o    1.20e-03 *             o  ~
  --------------------------------------------------------------------------------------------- ~
      1    -652.85821591   -6.53e+02      3.16e-02      7.77e-03 o    5.17e-02      9.58e-03 o  ~
  ---------------------------------------------------------------------------------------------

	Writing optimization data to binary file.
	Structure for next step:
	Cartesian Geometry (in Angstrom)
	    C    -1.3415388804   0.7650726416  -0.7819344006
	    C    -2.4154010048   1.3358058251  -0.1094958244
	    C     0.8944896814  -0.4243947880  -2.1742617708
	    C     1.8844024356  -1.0364008168  -0.0796911757
	    C    -1.4192022347   0.7185076249   1.9908266860
	    C     1.9849692395  -1.0046173243  -2.7999907003
	    C     2.9287188991  -1.5877590770  -0.8065467756
	    C    -0.2941815160   0.1644217521  -0.0801755192
	    C     0.8370430598  -0.4374159602  -0.7821573593
	    C    -2.4554038908   1.3133192360   1.2788298227
	    C    -0.3519406596   0.1516899286   1.3091082747
	    N     3.0045602655  -1.5874409003  -2.1481422066
	    O    -3.5118840833   1.8755818753   1.9248208268
	    F     0.6344854003  -0.4153615573   2.0136898626
	    H    -1.3325940887   0.7944587179  -1.8628785037
	    H    -3.2207986440   1.7968570691  -0.6695089527
	    H     0.1142982673   0.0249527877  -2.7713181583
	    H     1.9068668731  -1.0832056123   0.9919061398
	    H    -1.4387442634   0.6939238587   3.0745023224
	    H     2.0627599707  -1.0115366169  -3.8806990794
	    H     3.7609124251  -2.0632050159  -0.3006615044
	    H    -3.4001813375   1.7829757216   2.8798011678
			--------------------------
			 OPTKING Finished Execution 
			--------------------------

    Structure for next step:
    Molecular point group: c1
    Full point group: C1

    Geometry (in Angstrom), charge = 0, multiplicity = 1:

    C           -1.338465103381     0.763375812789    -0.781823611672
    C           -2.412327227856     1.334108996253    -0.109385035436
    C            0.897563458363    -0.426091616821    -2.174150981860
    C            1.887476212566    -1.038097645678    -0.079580386763
    C           -1.416128457746     0.716810796018     1.990937474899
    C            1.988043016510    -1.006314153169    -2.799879911350
    C            2.931792676104    -1.589455905793    -0.806435986698
    C           -0.291107739025     0.162724923231    -0.080064730248
    C            0.840116836771    -0.439112789046    -0.782046570337
    C           -2.452330113823     1.311622407177     1.278940611626
    C           -0.348866882635     0.149993099803     1.309219063651
    N            3.007634042521    -1.589137729128    -2.148031417680
    O           -3.508810306347     1.873885046478     1.924931615694
    F            0.637559177261    -0.417058386179     2.013800651536
    H           -1.329520311682     0.792761889068    -1.862767714749
    H           -3.217724867075     1.795160240254    -0.669398163734
    H            0.117372044223     0.023255958835    -2.771207369346
    H            1.909940650054    -1.084902441095     0.992016928750
    H           -1.435670486399     0.692227029864     3.074613111374
    H            2.065833747643    -1.013233445738    -3.880588290418
    H            3.763986202045    -2.064901844782    -0.300550715504
    H           -3.397107560555     1.781278892796     2.879911956754

gradient() will perform analytic gradient computation.

*** tstart() called on gpu-1-16.local
*** at Sat Nov 11 20:26:20 2017

    SCF Algorithm Type (re)set to DF.

*** tstart() called on gpu-1-16.local
*** at Sat Nov 11 20:26:20 2017

   => Loading Basis Set <=

    Name: AUG-CC-PVTZ
    Role: ORBITAL
    Keyword: BASIS
    atoms 1-11  entry C          line   221 file /cbio/jclab/home/chayas/anaconda/envs/py35/share/psi4/basis/aug-cc-pvtz.gbs 
    atoms 12    entry N          line   267 file /cbio/jclab/home/chayas/anaconda/envs/py35/share/psi4/basis/aug-cc-pvtz.gbs 
    atoms 13    entry O          line   313 file /cbio/jclab/home/chayas/anaconda/envs/py35/share/psi4/basis/aug-cc-pvtz.gbs 
    atoms 14    entry F          line   359 file /cbio/jclab/home/chayas/anaconda/envs/py35/share/psi4/basis/aug-cc-pvtz.gbs 
    atoms 15-22 entry H          line    34 file /cbio/jclab/home/chayas/anaconda/envs/py35/share/psi4/basis/aug-cc-pvtz.gbs 


         ---------------------------------------------------------
                                   SCF
            by Justin Turney, Rob Parrish, and Andy Simmonett
                              RHF Reference
                        8 Threads,   4768 MiB Core
         ---------------------------------------------------------

  ==> Geometry <==

    Molecular point group: c1
    Full point group: C1

    Geometry (in Angstrom), charge = 0, multiplicity = 1:

       Center              X                  Y                   Z               Mass       
    ------------   -----------------  -----------------  -----------------  -----------------
           C         -1.338465103381     0.763375812789    -0.781823611672    12.000000000000
           C         -2.412327227856     1.334108996253    -0.109385035436    12.000000000000
           C          0.897563458363    -0.426091616821    -2.174150981860    12.000000000000
           C          1.887476212566    -1.038097645678    -0.079580386763    12.000000000000
           C         -1.416128457746     0.716810796018     1.990937474899    12.000000000000
           C          1.988043016510    -1.006314153169    -2.799879911350    12.000000000000
           C          2.931792676104    -1.589455905793    -0.806435986698    12.000000000000
           C         -0.291107739025     0.162724923231    -0.080064730248    12.000000000000
           C          0.840116836771    -0.439112789046    -0.782046570337    12.000000000000
           C         -2.452330113823     1.311622407177     1.278940611626    12.000000000000
           C         -0.348866882635     0.149993099803     1.309219063651    12.000000000000
           N          3.007634042521    -1.589137729128    -2.148031417680    14.003074004780
           O         -3.508810306347     1.873885046478     1.924931615694    15.994914619560
           F          0.637559177261    -0.417058386179     2.013800651536    18.998403224000
           H         -1.329520311682     0.792761889068    -1.862767714749     1.007825032070
           H         -3.217724867075     1.795160240254    -0.669398163734     1.007825032070
           H          0.117372044223     0.023255958835    -2.771207369346     1.007825032070
           H          1.909940650054    -1.084902441095     0.992016928750     1.007825032070
           H         -1.435670486399     0.692227029864     3.074613111374     1.007825032070
           H          2.065833747643    -1.013233445738    -3.880588290418     1.007825032070
           H          3.763986202045    -2.064901844782    -0.300550715504     1.007825032070
           H         -3.397107560555     1.781278892796     2.879911956754     1.007825032070

  Running in c1 symmetry.

  Rotational constants: A =      0.06411  B =      0.01348  C =      0.01114 [cm^-1]
  Rotational constants: A =   1922.09615  B =    404.06869  C =    333.87958 [MHz]
  Nuclear repulsion =  817.247367429681617

  Charge       = 0
  Multiplicity = 1
  Electrons    = 98
  Nalpha       = 49
  Nbeta        = 49

  ==> Algorithm <==

  SCF Algorithm Type is DF.
  DIIS enabled.
  MOM disabled.
  Fractional occupation disabled.
  Guess Type is READ.
  Energy threshold   = 1.00e-10
  Density threshold  = 1.00e-10
  Integral threshold = 0.00e+00

  ==> Primary Basis <==

  Basis Set: AUG-CC-PVTZ
    Blend: AUG-CC-PVTZ
    Number of shells: 268
    Number of basis function: 828
    Number of Cartesian functions: 970
    Spherical Harmonics?: true
    Max angular momentum: 3

   => Loading Basis Set <=

    Name: (AUG-CC-PVTZ AUX)
    Role: JKFIT
    Keyword: DF_BASIS_SCF
    atoms 1-11  entry C          line   161 file /cbio/jclab/home/chayas/anaconda/envs/py35/share/psi4/basis/aug-cc-pvtz-jkfit.gbs 
    atoms 12    entry N          line   223 file /cbio/jclab/home/chayas/anaconda/envs/py35/share/psi4/basis/aug-cc-pvtz-jkfit.gbs 
    atoms 13    entry O          line   285 file /cbio/jclab/home/chayas/anaconda/envs/py35/share/psi4/basis/aug-cc-pvtz-jkfit.gbs 
    atoms 14    entry F          line   347 file /cbio/jclab/home/chayas/anaconda/envs/py35/share/psi4/basis/aug-cc-pvtz-jkfit.gbs 
    atoms 15-22 entry H          line    69 file /cbio/jclab/home/chayas/anaconda/envs/py35/share/psi4/basis/aug-cc-pvtz-jkfit.gbs 

  Reading orbitals from file 180, no projection.

  ==> Pre-Iterations <==

   -------------------------------------------------------
    Irrep   Nso     Nmo     Nalpha   Nbeta   Ndocc  Nsocc
   -------------------------------------------------------
     A        828     828       0       0       0       0
   -------------------------------------------------------
    Total     828     828      49      49      49       0
   -------------------------------------------------------

  ==> Integral Setup <==

  ==> DFJK: Density-Fitted J/K Matrices <==

    J tasked:                  Yes
    K tasked:                  Yes
    wK tasked:                  No
    OpenMP threads:              8
    Integrals threads:           8
    Memory (MB):              3576
    Algorithm:                Disk
    Integral Cache:           NONE
    Schwarz Cutoff:          1E-12
    Fitting Condition:       1E-12

   => Auxiliary Basis Set <=

  Basis Set: (AUG-CC-PVTZ AUX)
    Blend: AUG-CC-PVTZ-JKFIT
    Number of shells: 532
    Number of basis function: 1824
    Number of Cartesian functions: 2274
    Spherical Harmonics?: true
    Max angular momentum: 4

  Minimum eigenvalue in the overlap matrix is 3.2446246814E-07.
  Using Symmetric Orthogonalization.

  SCF Guess: Orbitals guess was supplied from a previous computation.

  ==> Iterations <==

                           Total Energy        Delta E     RMS |[F,P]|

   @DF-RHF iter   0:  -650.29888434419081   -6.50299e+02   6.11658e-04 
   @DF-RHF iter   1:  -650.16342419569798    1.35460e-01   1.11058e-04 
   @DF-RHF iter   2:  -650.16427045558873   -8.46260e-04   1.19171e-04 DIIS
   @DF-RHF iter   3:  -650.16496736391309   -6.96908e-04   1.64206e-05 DIIS
   @DF-RHF iter   4:  -650.16497914079650   -1.17769e-05   4.11016e-06 DIIS
   @DF-RHF iter   5:  -650.16498052974146   -1.38894e-06   1.26574e-06 DIIS
   @DF-RHF iter   6:  -650.16498072078059   -1.91039e-07   5.72526e-07 DIIS
   @DF-RHF iter   7:  -650.16498079282098   -7.20404e-08   2.80530e-07 DIIS
   @DF-RHF iter   8:  -650.16498081949078   -2.66698e-08   1.12105e-07 DIIS
   @DF-RHF iter   9:  -650.16498082378632   -4.29554e-09   4.93750e-08 DIIS
   @DF-RHF iter  10:  -650.16498082422856   -4.42242e-10   1.64807e-08 DIIS
   @DF-RHF iter  11:  -650.16498082427961   -5.10454e-11   5.51633e-09 DIIS
   @DF-RHF iter  12:  -650.16498082429121   -1.15961e-11   4.03512e-09 DIIS
   @DF-RHF iter  13:  -650.16498082429723   -6.02540e-12   1.96099e-09 DIIS
   @DF-RHF iter  14:  -650.16498082429109    6.13909e-12   7.38705e-10 DIIS
   @DF-RHF iter  15:  -650.16498082428268    8.41283e-12   2.04086e-10 DIIS
   @DF-RHF iter  16:  -650.16498082430121   -1.85310e-11   8.64444e-11 DIIS

  ==> Post-Iterations <==

    Orbital Energies (a.u.)
    -----------------------

    Doubly Occupied:                                                      

       1A    -26.334964     2A    -20.613108     3A    -15.557494  
       4A    -11.352912     5A    -11.330956     6A    -11.269896  
       7A    -11.267676     8A    -11.267045     9A    -11.266973  
      10A    -11.257164    11A    -11.256054    12A    -11.247191  
      13A    -11.235502    14A    -11.224784    15A     -1.660931  
      16A     -1.429616    17A     -1.249582    18A     -1.186053  
      19A     -1.110237    20A     -1.047108    21A     -1.030677  
      22A     -1.022978    23A     -0.898582    24A     -0.881819  
      25A     -0.855090    26A     -0.829023    27A     -0.776387  
      28A     -0.759030    29A     -0.723512    30A     -0.723357  
      31A     -0.711148    32A     -0.679374    33A     -0.652772  
      34A     -0.641135    35A     -0.629199    36A     -0.613589  
      37A     -0.611576    38A     -0.590473    39A     -0.578702  
      40A     -0.547845    41A     -0.542701    42A     -0.538675  
      43A     -0.506186    44A     -0.502201    45A     -0.413323  
      46A     -0.406725    47A     -0.363792    48A     -0.344533  
      49A     -0.311232  

    Virtual:                                                              

      50A      0.020575    51A      0.027909    52A      0.034872  
      53A      0.040006    54A      0.044153    55A      0.057443  
      56A      0.058975    57A      0.062012    58A      0.075546  
      59A      0.081555    60A      0.082086    61A      0.085939  
      62A      0.089285    63A      0.091229    64A      0.097787  
      65A      0.099813    66A      0.104317    67A      0.110014  
      68A      0.111297    69A      0.112393    70A      0.114351  
      71A      0.119133    72A      0.128029    73A      0.132565  
      74A      0.136569    75A      0.137323    76A      0.139299  
      77A      0.140484    78A      0.143836    79A      0.147635  
      80A      0.152516    81A      0.152577    82A      0.156358  
      83A      0.165690    84A      0.170094    85A      0.172263  
      86A      0.177400    87A      0.179325    88A      0.180317  
      89A      0.192495    90A      0.194138    91A      0.201895  
      92A      0.204456    93A      0.209956    94A      0.218333  
      95A      0.227271    96A      0.230666    97A      0.232398  
      98A      0.234501    99A      0.236930   100A      0.240910  
     101A      0.246139   102A      0.249418   103A      0.258590  
     104A      0.266044   105A      0.266987   106A      0.270433  
     107A      0.272795   108A      0.279763   109A      0.281545  
     110A      0.283699   111A      0.287096   112A      0.287879  
     113A      0.297982   114A      0.303285   115A      0.306927  
     116A      0.310935   117A      0.314282   118A      0.318020  
     119A      0.318161   120A      0.326980   121A      0.327250  
     122A      0.333302   123A      0.333427   124A      0.339069  
     125A      0.346570   126A      0.351761   127A      0.354578  
     128A      0.356968   129A      0.366893   130A      0.368485  
     131A      0.375458   132A      0.386653   133A      0.391591  
     134A      0.393514   135A      0.400745   136A      0.410288  
     137A      0.412273   138A      0.416694   139A      0.418699  
     140A      0.423305   141A      0.425415   142A      0.427081  
     143A      0.433266   144A      0.433494   145A      0.439384  
     146A      0.442132   147A      0.444559   148A      0.451094  
     149A      0.452343   150A      0.456568   151A      0.458222  
     152A      0.462267   153A      0.462781   154A      0.467314  
     155A      0.474356   156A      0.474482   157A      0.478030  
     158A      0.484493   159A      0.492340   160A      0.497989  
     161A      0.498667   162A      0.502235   163A      0.503802  
     164A      0.504761   165A      0.509141   166A      0.510026  
     167A      0.515671   168A      0.517956   169A      0.526156  
     170A      0.528263   171A      0.531788   172A      0.539197  
     173A      0.541466   174A      0.547595   175A      0.550941  
     176A      0.563278   177A      0.564309   178A      0.566510  
     179A      0.571097   180A      0.576379   181A      0.581664  
     182A      0.582234   183A      0.589835   184A      0.596956  
     185A      0.597345   186A      0.599897   187A      0.602654  
     188A      0.613888   189A      0.620404   190A      0.625558  
     191A      0.633046   192A      0.649970   193A      0.661046  
     194A      0.662073   195A      0.669438   196A      0.676632  
     197A      0.677745   198A      0.684667   199A      0.693266  
     200A      0.697088   201A      0.698303   202A      0.705732  
     203A      0.709442   204A      0.721694   205A      0.722750  
     206A      0.726671   207A      0.733589   208A      0.739604  
     209A      0.743950   210A      0.752077   211A      0.754166  
     212A      0.759943   213A      0.765567   214A      0.767201  
     215A      0.780119   216A      0.784072   217A      0.789908  
     218A      0.790383   219A      0.808799   220A      0.809782  
     221A      0.810221   222A      0.811508   223A      0.822771  
     224A      0.826256   225A      0.832475   226A      0.840665  
     227A      0.840936   228A      0.853977   229A      0.861440  
     230A      0.863074   231A      0.865409   232A      0.871697  
     233A      0.874007   234A      0.876961   235A      0.888185  
     236A      0.889249   237A      0.892060   238A      0.897682  
     239A      0.898453   240A      0.909571   241A      0.909973  
     242A      0.916634   243A      0.925148   244A      0.929380  
     245A      0.933517   246A      0.935731   247A      0.941270  
     248A      0.948243   249A      0.950326   250A      0.952532  
     251A      0.957114   252A      0.957502   253A      0.963069  
     254A      0.971568   255A      0.973245   256A      0.975092  
     257A      0.982930   258A      0.984232   259A      0.992265  
     260A      0.995411   261A      1.001413   262A      1.009177  
     263A      1.010631   264A      1.014104   265A      1.022665  
     266A      1.023104   267A      1.031349   268A      1.034283  
     269A      1.038643   270A      1.041560   271A      1.048634  
     272A      1.050311   273A      1.051067   274A      1.056888  
     275A      1.059269   276A      1.063318   277A      1.067529  
     278A      1.068479   279A      1.072483   280A      1.083889  
     281A      1.095018   282A      1.101264   283A      1.102319  
     284A      1.107656   285A      1.111709   286A      1.118953  
[...]
	 B(2,1,8)         =         2.157770	     123.631114
	 B(2,1,15)        =         2.045064	     117.173558
	 B(2,10,5)        =         2.075087	     118.893734
	 B(2,10,13)       =         2.057919	     117.910081
	 B(3,6,12)        =         2.164153	     123.996815
	 B(3,6,20)        =         2.088613	     119.668717
	 B(3,9,4)         =         2.011122	     115.228792
	 B(3,9,8)         =         2.109064	     120.840467
	 B(4,7,12)        =         2.170910	     124.383986
	 B(4,7,21)        =         2.083049	     119.349902
	 B(4,9,8)         =         2.162999	     123.930741
	 B(5,10,13)       =         2.150179	     123.196185
	 B(5,11,8)        =         2.163304	     123.948182
	 B(5,11,14)       =         2.008357	     115.070369
	 B(6,3,9)         =         2.103819	     120.539965
	 B(6,3,17)        =         2.054630	     117.721600
	 B(6,12,7)        =         2.020481	     115.765018
	 B(7,4,9)         =         2.095886	     120.085424
	 B(7,4,18)        =         2.069173	     118.554867
	 B(8,1,15)        =         2.080351	     119.195327
	 B(8,11,14)       =         2.111525	     120.981448
	 B(9,3,17)        =         2.124737	     121.738435
	 B(9,4,18)        =         2.118126	     121.359709
	 B(9,8,11)        =         2.181741	     125.004574
	 B(10,2,16)       =         2.083909	     119.399170
	 B(10,5,11)       =         2.088851	     119.682356
	 B(10,5,19)       =         2.129796	     122.028340
	 B(10,13,22)      =         1.907866	     109.312690
	 B(11,5,19)       =         2.064538	     118.289303
	 B(12,6,20)       =         2.030419	     116.334468
	 B(12,7,21)       =         2.029226	     116.266112
	 D(1,2,10,5)      =         0.000033	       0.001880
	 D(1,2,10,13)     =        -3.141554	    -179.997779
	 D(1,8,9,3)       =         0.000014	       0.000813
	 D(1,8,9,4)       =         3.141524	     179.996084
	 D(1,8,11,5)      =         0.000027	       0.001533
	 D(1,8,11,14)     =        -3.141548	    -179.997458
	 D(2,1,8,9)       =        -3.141548	    -179.997420
	 D(2,1,8,11)      =        -0.000000	      -0.000000
	 D(2,10,5,11)     =        -0.000018	      -0.001010
	 D(2,10,5,19)     =         3.141593	     180.000000
	 D(2,10,13,22)    =         3.141552	     179.997665
	 D(3,6,12,7)      =         0.000020	       0.001162
	 D(3,9,4,7)       =        -0.000027	      -0.001571
	 D(3,9,4,18)      =         3.141593	     180.000000
	 D(3,9,8,11)      =        -3.141517	    -179.995637
	 D(4,7,12,6)      =        -0.000030	      -0.001739
	 D(4,9,3,6)       =         0.000018	       0.001054
	 D(4,9,3,17)      =         3.141593	     180.000000
	 D(4,9,8,11)      =        -0.000000	      -0.000000
	 D(5,10,2,16)     =         3.141593	     180.000000
	 D(5,10,13,22)    =        -0.000035	      -0.001978
	 D(5,11,8,9)      =         3.141561	     179.998196
	 D(6,3,9,8)       =         3.141535	     179.996716
	 D(6,12,7,21)     =         3.141593	     180.000000
	 D(7,4,9,8)       =        -3.141542	    -179.997083
	 D(7,12,6,20)     =         3.141593	     180.000000
	 D(8,1,2,10)      =        -0.000019	      -0.001071
	 D(8,1,2,16)      =         3.141593	     180.000000
	 D(8,9,3,17)      =        -0.000072	      -0.004123
	 D(8,9,4,18)      =         0.000091	       0.005239
	 D(8,11,5,10)     =        -0.000000	      -0.000000
	 D(8,11,5,19)     =         3.141573	     179.998851
	 D(9,3,6,12)      =        -0.000016	      -0.000905
	 D(9,3,6,20)      =         3.141593	     180.000000
	 D(9,4,7,12)      =         0.000036	       0.002046
	 D(9,4,7,21)      =         3.141593	     180.000000
	 D(9,8,1,15)      =         0.000043	       0.002440
	 D(9,8,11,14)     =        -0.000000	      -0.000000
	 D(10,2,1,15)     =         3.141576	     179.999067
	 D(10,5,11,14)    =         3.141563	     179.998279
	 D(11,5,10,13)    =         3.141569	     179.998630
	 D(11,8,1,15)     =         3.141593	     180.000000
	 D(12,6,3,17)     =         3.141593	     180.000000
	 D(12,7,4,18)     =         3.141593	     180.000000
	 D(13,10,2,16)    =         0.000017	       0.000999
	 D(13,10,5,19)    =        -0.000017	      -0.000972
	 D(14,11,5,19)    =        -0.000037	      -0.002104
	 D(15,1,2,16)     =         0.000000	       0.000000
	 D(17,3,6,20)     =         0.000000	       0.000000
	 D(18,4,7,21)     =        -0.000041	      -0.002342
	 R(4,14)          =         5.251729	       2.779095

	Current energy   :      -652.8728490382

	Energy change for the previous step:
		Projected    :        -0.0000003063
		Actual       :        -0.0000020643

	Performing BFGS update.
	Previous computed or guess Hessian on step 1.
	Steps to be used in Hessian update: 8 7
	Adding user-defined constraint: Fragment 1; Coordinate 61:
		Value =     0.000014; Fixed value    =     0.000020
		Force =     0.000004; Force constant =     0.700000
	Removing off-diagonal coupling between coordinate 61 and others.
	Taking RFO optimization step.
	Going to follow RFO solution 1.
	Using RFO vector 1.
	Norm of target step-size    0.00142
	Projected energy change by RFO approximation:        -0.0000002305

	Back-transformation to cartesian coordinates...
	Could not converge backtransformation.
	Using first guess instead.

	--- Internal Coordinate Step in ANG or DEG, aJ/ANG or AJ/DEG ---
	 ---------------------------------------------------------------------------
	   Coordinate                Previous        Force       Change         New 
	   ----------                --------       ------       ------       ------
	    1 R(1,2)          =      1.379389     0.000135     0.000036     1.379425
	    2 R(1,8)          =      1.401857    -0.000455    -0.000077     1.401780
	    3 R(1,15)         =      1.075836     0.000033     0.000012     1.075848
	    4 R(2,10)         =      1.387143    -0.000281    -0.000045     1.387098
	    5 R(2,16)         =      1.078431    -0.000066    -0.000008     1.078423
	    6 R(3,6)          =      1.383334     0.000403     0.000069     1.383403
	    7 R(3,9)          =      1.397532    -0.000614    -0.000112     1.397420
	    8 R(3,17)         =      1.076436     0.000034     0.000011     1.076447
	    9 R(4,7)          =      1.386498    -0.000224    -0.000044     1.386454
	   10 R(4,9)          =      1.397003     0.000452     0.000079     1.397083
	   11 R(4,18)         =      1.072927    -0.000307    -0.000049     1.072879
	   12 R(5,10)         =      1.383363     0.000162     0.000033     1.383396
	   13 R(5,11)         =      1.380841    -0.000205    -0.000021     1.380820
	   14 R(5,19)         =      1.079511     0.000047     0.000018     1.079529
	   15 R(6,12)         =      1.335080    -0.000616    -0.000085     1.334995
	   16 R(6,20)         =      1.081387     0.000011     0.000006     1.081393
	   17 R(7,12)         =      1.332911     0.000328     0.000064     1.332975
	   18 R(7,21)         =      1.081150    -0.000017    -0.000001     1.081149
	   19 R(8,9)          =      1.469440     0.000620     0.000142     1.469582
	   20 R(8,11)         =      1.393522     0.000055     0.000028     1.393550
	   21 R(10,13)        =      1.357841    -0.000061    -0.000009     1.357832
	   22 R(11,14)        =      1.349271    -0.001396    -0.000208     1.349063
	   23 R(13,22)        =      0.962168    -0.000093    -0.000008     0.962161
	   24 B(1,2,10)       =    119.753715    -0.000002    -0.008721   119.744994
	   25 B(1,2,16)       =    120.847115    -0.000001    -0.011806   120.835310
	   26 B(1,8,9)        =    120.904528    -0.000002    -0.016160   120.888368
	   27 B(1,8,11)       =    114.090898     0.000003     0.012739   114.103638
	   28 B(2,1,8)        =    123.631114     0.000001     0.003161   123.634276
	   29 B(2,1,15)       =    117.173558    -0.000001    -0.002278   117.171280
	   30 B(2,10,5)       =    118.893734     0.000000     0.000755   118.894489
	   31 B(2,10,13)      =    117.910081     0.000001     0.007841   117.917922
	   32 B(3,6,12)       =    123.996815     0.000000    -0.000201   123.996614
	   33 B(3,6,20)       =    119.668717    -0.000001    -0.001927   119.666790
	   34 B(3,9,4)        =    115.228792     0.000001     0.007135   115.235927
	   35 B(3,9,8)        =    120.840467    -0.000001    -0.004298   120.836169
	   36 B(4,7,12)       =    124.383986     0.000000    -0.000080   124.383906
	   37 B(4,7,21)       =    119.349902     0.000001     0.009964   119.359866
	   38 B(4,9,8)        =    123.930741    -0.000000    -0.002836   123.927905
	   39 B(5,10,13)      =    123.196185    -0.000001    -0.008596   123.187589
	   40 B(5,11,8)       =    123.948182    -0.000004    -0.021245   123.926937
	   41 B(5,11,14)      =    115.070369     0.000004     0.015731   115.086100
	   42 B(6,3,9)        =    120.539965     0.000000    -0.002933   120.537032
	   43 B(6,3,17)       =    117.721600    -0.000001    -0.003035   117.718565
	   44 B(6,12,7)       =    115.765018     0.000000     0.002461   115.767478
	   45 B(7,4,9)        =    120.085424    -0.000002    -0.006381   120.079043
	   46 B(7,4,18)       =    118.554867    -0.000001    -0.004082   118.550786
	   47 B(8,1,15)       =    119.195327    -0.000000    -0.000883   119.194444
	   48 B(8,11,14)      =    120.981448    -0.000000     0.005514   120.986962
	   49 B(9,3,17)       =    121.738435     0.000001     0.005968   121.744403
	   50 B(9,4,18)       =    121.359709     0.000003     0.010463   121.370171
	   51 B(9,8,11)       =    125.004574    -0.000001     0.003421   125.007994
	   52 B(10,2,16)      =    119.399170     0.000003     0.020526   119.419696
	   53 B(10,5,11)      =    119.682356     0.000002     0.013310   119.695666
	   54 B(10,5,19)      =    122.028340    -0.000004    -0.026210   122.002130
	   55 B(10,13,22)     =    109.312690    -0.000000    -0.000546   109.312143
	   56 B(11,5,19)      =    118.289303     0.000002     0.012900   118.302204
	   57 B(12,6,20)      =    116.334468     0.000000     0.002128   116.336596
	   58 B(12,7,21)      =    116.266112    -0.000001    -0.009884   116.256228
	   59 D(1,2,10,5)     =      0.001880    -0.000000    -0.001880     0.000000
	   60 D(1,2,10,13)    =   -179.997779    -0.000000    -0.003289  -180.001068
	   61 D(1,8,9,3)      =      0.000813     0.000000     0.000240     0.001052
	   62 D(1,8,9,4)      =    179.996084     0.000000     0.007488   180.003572
	   63 D(1,8,11,5)     =      0.001533    -0.000000    -0.002499    -0.000966
	   64 D(1,8,11,14)    =   -179.997458    -0.000000    -0.004903  -180.002361
	   65 D(2,1,8,9)      =   -179.997420    -0.000000    -0.004672  -180.002092
	   66 D(2,1,8,11)     =      0.000000     0.000000     0.000000     0.000000
	   67 D(2,10,5,11)    =     -0.001010     0.000000     0.001010     0.000000
	   68 D(2,10,5,19)    =    180.000000     0.000000     0.000000   180.000000
	   69 D(2,10,13,22)   =    179.997665     0.000000     0.002335   180.000000
	   70 D(3,6,12,7)     =      0.001162    -0.000000    -0.001162     0.000000
	   71 D(3,9,4,7)      =     -0.001571     0.000000     0.003349     0.001777
	   72 D(3,9,4,18)     =    180.000000     0.000000     0.001834   180.001834
	   73 D(3,9,8,11)     =   -179.995637    -0.000000    -0.006482  -180.002119
	   74 D(4,7,12,6)     =     -0.001739     0.000000     0.002620     0.000881
	   75 D(4,9,3,6)      =      0.001054    -0.000000    -0.002289    -0.001235
	   76 D(4,9,3,17)     =    180.000000    -0.000000    -0.001371   179.998629
	   77 D(4,9,8,11)     =      0.000000     0.000000     0.000000     0.000000
	   78 D(5,10,2,16)    =    180.000000    -0.000000     0.000000   180.000000
	   79 D(5,10,13,22)   =     -0.001978     0.000000     0.001978     0.000000
	   80 D(5,11,8,9)     =    179.998196     0.000000     0.003820   180.002016
	   81 D(6,3,9,8)      =    179.996716     0.000000     0.004360   180.001076
	   82 D(6,12,7,21)    =    180.000000    -0.000000    -0.001361   179.998639
	   83 D(7,4,9,8)      =   -179.997083    -0.000000    -0.002917  -180.000000
	   84 D(7,12,6,20)    =    180.000000    -0.000000     0.000000   180.000000
	   85 D(8,1,2,10)     =     -0.001071     0.000000     0.001071     0.000000
	   86 D(8,1,2,16)     =    180.000000    -0.000000     0.000000   180.000000
	   87 D(8,9,3,17)     =     -0.004123     0.000000     0.005062     0.000940
	   88 D(8,9,4,18)     =      0.005239    -0.000000    -0.005239     0.000000
	   89 D(8,11,5,10)    =      0.000000     0.000000     0.000000     0.000000
	   90 D(8,11,5,19)    =    179.998851     0.000000     0.001149   180.000000
	   91 D(9,3,6,12)     =     -0.000905     0.000000     0.000905     0.000000
	   92 D(9,3,6,20)     =    180.000000     0.000000     0.000000   180.000000
	   93 D(9,4,7,12)     =      0.002046    -0.000000    -0.003758    -0.001713
	   94 D(9,4,7,21)     =    180.000000     0.000000     0.000000   180.000000
	   95 D(9,8,1,15)     =      0.002440    -0.000000    -0.004267    -0.001826
	   96 D(9,8,11,14)    =      0.000000     0.000000     0.000000     0.000000
	   97 D(10,2,1,15)    =    179.999067     0.000000     0.000933   180.000000
	   98 D(10,5,11,14)   =    179.998279     0.000000     0.003539   180.001818
	   99 D(11,5,10,13)   =    179.998630     0.000000     0.002275   180.000905
	  100 D(11,8,1,15)    =    180.000000     0.000000     0.001020   180.001020
	  101 D(12,6,3,17)    =    180.000000     0.000000     0.000000   180.000000
	  102 D(12,7,4,18)    =    180.000000    -0.000000    -0.001768   179.998232
	  103 D(13,10,2,16)   =      0.000999    -0.000000    -0.000999     0.000000
	  104 D(13,10,5,19)   =     -0.000972     0.000000     0.002092     0.001119
	  105 D(14,11,5,19)   =     -0.002104     0.000000     0.003715     0.001612
	  106 D(15,1,2,16)    =      0.000000    -0.000000    -0.000871    -0.000871
	  107 D(17,3,6,20)    =      0.000000    -0.000000     0.000000     0.000000
	  108 D(18,4,7,21)    =     -0.002342     0.000000     0.002342     0.000000
	  109 R(4,14)         =      2.779095     0.000236     0.000339     2.779434
	 ---------------------------------------------------------------------------
	Successfully symmetrized geometry.
	 Forces used to impose fixed constraints are not included.
	  Forces zeroed: 61 

  ==> Convergence Check <==

  Measures of convergence in internal coordinates in au.
  Criteria marked as inactive (o), active & met (*), and active & unmet ( ).
  ---------------------------------------------------------------------------------------------
   Step     Total Energy     Delta E     MAX Force     RMS Force      MAX Disp      RMS Disp   
  ---------------------------------------------------------------------------------------------
    Convergence Criteria    1.00e-06 *    3.00e-04 *             o    1.20e-03 *             o
  ---------------------------------------------------------------------------------------------
      9    -652.87284904   -2.06e-06      1.69e-04 *    2.75e-05 o    6.40e-04 *    1.36e-04 o  ~
  ---------------------------------------------------------------------------------------------


  **** Optimization is complete! (in 9 steps) ****

  ==> Optimization Summary <==

  Measures of convergence in internal coordinates in au.
  --------------------------------------------------------------------------------------------------------------- ~
   Step         Total Energy             Delta E       MAX Force       RMS Force        MAX Disp        RMS Disp  ~
  --------------------------------------------------------------------------------------------------------------- ~
      1    -652.858215912518   -652.858215912518      0.03156792      0.00776885      0.05169072      0.00957824  ~
      2    -652.864585188936     -0.006369276417      0.02539444      0.00464236      0.07177824      0.00957870  ~
      3    -652.868254814921     -0.003669625986      0.01884960      0.00267919      0.08591276      0.00957826  ~
      4    -652.870370937772     -0.002116122850      0.01335427      0.00158844      0.09223167      0.00957859  ~
      5    -652.871648137115     -0.001277199344      0.00890345      0.00095834      0.09469767      0.00957827  ~
      6    -652.872406847337     -0.000758710221      0.00509495      0.00056077      0.09434114      0.00957826  ~
      7    -652.872783943328     -0.000377095992      0.00187343      0.00022871      0.05082137      0.00515788  ~
      8    -652.872846973919     -0.000063030591      0.00040695      0.00008115      0.00740587      0.00077692  ~
      9    -652.872849038221     -0.000002064302      0.00016943      0.00002751      0.00063969      0.00013551  ~
  --------------------------------------------------------------------------------------------------------------- ~

	Writing optimization data to binary file.
	Final energy is   -652.8728490382206
	Final (previous) structure:
	Cartesian Geometry (in Angstrom)
	    C    -1.3102005971   0.7457576078  -0.7290507042
	    C    -2.3966596800   1.3248820481  -0.1070089982
	    C     0.9243454631  -0.4403692746  -2.1587761221
	    C     1.9637934727  -1.0783421293  -0.1384860870
	    C    -1.4583755123   0.7396649623   2.0070858250
	    C     1.9905688908  -1.0064816538  -2.8342732407
	    C     2.9879609023  -1.6184791772  -0.9011855126
	    C    -0.2516851819   0.1399061895  -0.0378979180
	    C     0.8776499915  -0.4595159190  -0.7621560024
	    C    -2.4777050786   1.3251134434   1.2777644160
	    C    -0.3866387799   0.1698439499   1.3487506444
	    N     3.0263548948  -1.5968199638  -2.2333672854
	    O    -3.5633896166   1.9053310180   1.8507997134
	    F     0.5530108682  -0.3739337170   2.1499349221
	    H    -1.2897359890   0.7689810280  -1.8044417893
	    H    -3.1867611989   1.7790494415  -0.6836247277
	    H     0.1420477778   0.0097622487  -2.7453811883
	    H     2.0284324235  -1.1483398838   0.9302023392
	    H    -1.4697643347   0.7113141785   3.0861640306
	    H     2.0123026539  -0.9837280895  -3.9152021977
	    H     3.8228696012  -2.0946655221  -0.4061500752
	    H    -3.4932995855   1.8359180783   2.8078979617
	Saving final (previous) structure.
			--------------------------
			 OPTKING Finished Execution 
			--------------------------

    Final optimized geometry and variables:
    Molecular point group: c1
    Full point group: C1

    Geometry (in Angstrom), charge = 0, multiplicity = 1:

    C           -1.310200597117     0.745757607807    -0.729050704196
    C           -2.396659680020     1.324882048113    -0.107008998173
    C            0.924345463079    -0.440369274553    -2.158776122095
    C            1.963793472689    -1.078342129318    -0.138486087007
    C           -1.458375512280     0.739664962338     2.007085824962
    C            1.990568890837    -1.006481653840    -2.834273240688
    C            2.987960902294    -1.618479177193    -0.901185512609
    C           -0.251685181869     0.139906189536    -0.037897917975
    C            0.877649991501    -0.459515919047    -0.762156002397
    C           -2.477705078580     1.325113443446     1.277764416042
    C           -0.386638779878     0.169843949934     1.348750644410
    N            3.026354894758    -1.596819963809    -2.233367285449
    O           -3.563389616557     1.905331017959     1.850799713418
    F            0.553010868246    -0.373933716963     2.149934922145
    H           -1.289735988977     0.768981027993    -1.804441789263
    H           -3.186761198911     1.779049441490    -0.683624727654
    H            0.142047777778     0.009762248675    -2.745381188318
    H            2.028432423467    -1.148339883788     0.930202339235
    H           -1.469764334736     0.711314178464     3.086164030614
    H            2.012302653858    -0.983728089496    -3.915202197737
    H            3.822869601170    -2.094665522142    -0.406150075192
    H           -3.493299585486     1.835918078322     2.807897961731

	Cleaning optimization helper files.

*** Psi4 exiting successfully. Buy a developer a beer!
