
    -----------------------------------------------------------------------
          Psi4: An Open-Source Ab Initio Electronic Structure Package
                               Psi4 1.1 release

                         Git: Rev {HEAD} add49b9 


    R. M. Parrish, L. A. Burns, D. G. A. Smith, A. C. Simmonett,
    A. E. DePrince III, E. G. Hohenstein, U. Bozkaya, A. Yu. Sokolov,
    R. Di Remigio, R. M. Richard, J. F. Gonthier, A. M. James,
    H. R. McAlexander, A. Kumar, M. Saitow, X. Wang, B. P. Pritchard,
    P. Verma, H. F. Schaefer III, K. Patkowski, R. A. King, E. F. Valeev,
    F. A. Evangelista, J. M. Turney, T. D. Crawford, and C. D. Sherrill,
    J. Chem. Theory Comput. in press (2017).
    (doi: 10.1021/acs.jctc.7b00174)

    -----------------------------------------------------------------------


    Psi4 started on: Saturday, 11 November 2017 06:14PM

    Process ID:   1677
    PSIDATADIR: /cbio/jclab/home/chayas/anaconda/envs/py35/share/psi4
    Memory:     500.0 MiB
    Threads:    8
    
  ==> Input File <==

--------------------------------------------------------------------------

memory 5 Gb

molecule phepyrFOH_anion {
  symmetry C1
  -1 1 
  C      1.885   -1.036   -0.112
  C      0.807   -0.463   0.561
  C      3.815   -3.037   -1.201
  C      5.339   -1.983   0.332
  C      1.800   -1.079   2.676
  C      4.918   -3.579   -1.840
  C      6.374   -2.573   -0.375
  C      2.921   -1.631   0.608
  C      4.038   -2.224   -0.095
  C      0.764   -0.484   1.955
  C      2.878   -1.652   2.002
  N      6.196   -3.368   -1.454
  O      -0.227   0.043   2.574
  F      3.866   -2.220   2.709
  H      1.904   -1.013   -1.200
  H      0.011   -0.007   -0.025
  H      2.814   -3.247   -1.565
  H      5.551   -1.355   1.191
  H      1.791   -1.109   3.764
  H      4.798   -4.218   -2.709
  H      7.406   -2.417   -0.082
  units Angstrom
}

dih_string = "1 8 9 3 315"
set optking fixed_dihedral = $dih_string

optimize('MP2/aug-cc-PVTZ')
--------------------------------------------------------------------------

  Memory set to   4.657 GiB by Python driver.
gradient() will perform analytic gradient computation.

*** tstart() called on gpu-1-7.local
*** at Sat Nov 11 18:14:50 2017

    SCF Algorithm Type (re)set to DF.

*** tstart() called on gpu-1-7.local
*** at Sat Nov 11 18:14:50 2017

   => Loading Basis Set <=

    Name: AUG-CC-PVTZ
    Role: ORBITAL
    Keyword: BASIS
    atoms 1-11  entry C          line   221 file /cbio/jclab/home/chayas/anaconda/envs/py35/share/psi4/basis/aug-cc-pvtz.gbs 
    atoms 12    entry N          line   267 file /cbio/jclab/home/chayas/anaconda/envs/py35/share/psi4/basis/aug-cc-pvtz.gbs 
    atoms 13    entry O          line   313 file /cbio/jclab/home/chayas/anaconda/envs/py35/share/psi4/basis/aug-cc-pvtz.gbs 
    atoms 14    entry F          line   359 file /cbio/jclab/home/chayas/anaconda/envs/py35/share/psi4/basis/aug-cc-pvtz.gbs 
    atoms 15-21 entry H          line    34 file /cbio/jclab/home/chayas/anaconda/envs/py35/share/psi4/basis/aug-cc-pvtz.gbs 


         ---------------------------------------------------------
                                   SCF
            by Justin Turney, Rob Parrish, and Andy Simmonett
                              RHF Reference
                        8 Threads,   4768 MiB Core
         ---------------------------------------------------------

  ==> Geometry <==

    Molecular point group: c1
    Full point group: C1

    Geometry (in Angstrom), charge = -1, multiplicity = 1:

       Center              X                  Y                   Z               Mass       
    ------------   -----------------  -----------------  -----------------  -----------------
           C         -1.345572773830     0.766773265024    -0.780851028416    12.000000000000
           C         -2.423572773830     1.339773265024    -0.107851028416    12.000000000000
           C          0.584427226170    -1.234226734976    -1.869851028416    12.000000000000
           C          2.108427226170    -0.180226734976    -0.336851028416    12.000000000000
           C         -1.430572773830     0.723773265024     2.007148971584    12.000000000000
           C          1.687427226170    -1.776226734976    -2.508851028416    12.000000000000
           C          3.143427226170    -0.770226734976    -1.043851028416    12.000000000000
           C         -0.309572773830     0.171773265024    -0.060851028416    12.000000000000
           C          0.807427226170    -0.421226734976    -0.763851028416    12.000000000000
           C         -2.466572773830     1.318773265024     1.286148971584    12.000000000000
           C         -0.352572773830     0.150773265024     1.333148971584    12.000000000000
           N          2.965427226170    -1.565226734976    -2.122851028416    14.003074004780
           O         -3.457572773830     1.845773265024     1.905148971584    15.994914619560
           F          0.635427226170    -0.417226734976     2.040148971584    18.998403224000
           H         -1.326572773830     0.789773265024    -1.868851028416     1.007825032070
           H         -3.219572773830     1.795773265024    -0.693851028416     1.007825032070
           H         -0.416572773830    -1.444226734976    -2.233851028416     1.007825032070
           H          2.320427226170     0.447773265024     0.522148971584     1.007825032070
           H         -1.439572773830     0.693773265024     3.095148971584     1.007825032070
           H          1.567427226170    -2.415226734976    -3.377851028416     1.007825032070
           H          4.175427226170    -0.614226734976    -0.750851028416     1.007825032070

  Running in c1 symmetry.

  Rotational constants: A =      0.06333  B =      0.01367  C =      0.01176 [cm^-1]
  Rotational constants: A =   1898.72004  B =    409.69635  C =    352.44525 [MHz]
  Nuclear repulsion =  802.860034773123175

  Charge       = -1
  Multiplicity = 1
  Electrons    = 98
  Nalpha       = 49
  Nbeta        = 49

  ==> Algorithm <==

  SCF Algorithm Type is DF.
  DIIS enabled.
  MOM disabled.
  Fractional occupation disabled.
  Guess Type is SAD.
  Energy threshold   = 1.00e-10
  Density threshold  = 1.00e-10
  Integral threshold = 0.00e+00

  ==> Primary Basis <==

  Basis Set: AUG-CC-PVTZ
    Blend: AUG-CC-PVTZ
    Number of shells: 259
    Number of basis function: 805
    Number of Cartesian functions: 945
    Spherical Harmonics?: true
    Max angular momentum: 3

   => Loading Basis Set <=

    Name: (AUG-CC-PVTZ AUX)
    Role: JKFIT
    Keyword: DF_BASIS_SCF
    atoms 1-11  entry C          line   161 file /cbio/jclab/home/chayas/anaconda/envs/py35/share/psi4/basis/aug-cc-pvtz-jkfit.gbs 
    atoms 12    entry N          line   223 file /cbio/jclab/home/chayas/anaconda/envs/py35/share/psi4/basis/aug-cc-pvtz-jkfit.gbs 
    atoms 13    entry O          line   285 file /cbio/jclab/home/chayas/anaconda/envs/py35/share/psi4/basis/aug-cc-pvtz-jkfit.gbs 
    atoms 14    entry F          line   347 file /cbio/jclab/home/chayas/anaconda/envs/py35/share/psi4/basis/aug-cc-pvtz-jkfit.gbs 
    atoms 15-21 entry H          line    69 file /cbio/jclab/home/chayas/anaconda/envs/py35/share/psi4/basis/aug-cc-pvtz-jkfit.gbs 

  ==> Pre-Iterations <==

   -------------------------------------------------------
    Irrep   Nso     Nmo     Nalpha   Nbeta   Ndocc  Nsocc
   -------------------------------------------------------
     A        805     805       0       0       0       0
   -------------------------------------------------------
    Total     805     805      49      49      49       0
   -------------------------------------------------------

  ==> Integral Setup <==

  ==> DFJK: Density-Fitted J/K Matrices <==

    J tasked:                  Yes
    K tasked:                  Yes
    wK tasked:                  No
    OpenMP threads:              8
    Integrals threads:           8
    Memory (MB):              3576
    Algorithm:                Disk
    Integral Cache:           NONE
    Schwarz Cutoff:          1E-12
    Fitting Condition:       1E-12

   => Auxiliary Basis Set <=

  Basis Set: (AUG-CC-PVTZ AUX)
    Blend: AUG-CC-PVTZ-JKFIT
    Number of shells: 518
    Number of basis function: 1778
    Number of Cartesian functions: 2219
    Spherical Harmonics?: true
    Max angular momentum: 4

  Minimum eigenvalue in the overlap matrix is 7.9993984403E-07.
  Using Symmetric Orthogonalization.

  SCF Guess: Superposition of Atomic Densities via on-the-fly atomic UHF.

  ==> Iterations <==

                           Total Energy        Delta E     RMS |[F,P]|

   @DF-RHF iter   0:  -659.26730382806784   -6.59267e+02   1.44219e-02 
   @DF-RHF iter   1:  -649.15608671389839    1.01112e+01   2.63938e-03 
   @DF-RHF iter   2:  -649.48045328623448   -3.24367e-01   1.30211e-03 DIIS
   @DF-RHF iter   3:  -649.58803619683147   -1.07583e-01   5.08981e-04 DIIS
   @DF-RHF iter   4:  -649.60801829799436   -1.99821e-02   1.43092e-04 DIIS
   @DF-RHF iter   5:  -649.61003139347690   -2.01310e-03   5.51059e-05 DIIS
   @DF-RHF iter   6:  -649.61043774527081   -4.06352e-04   1.63205e-05 DIIS
   @DF-RHF iter   7:  -649.61051712073277   -7.93755e-05   9.88661e-06 DIIS
   @DF-RHF iter   8:  -649.61052859764254   -1.14769e-05   2.90048e-06 DIIS
   @DF-RHF iter   9:  -649.61053054507931   -1.94744e-06   1.68914e-06 DIIS
   @DF-RHF iter  10:  -649.61053113873356   -5.93654e-07   8.40747e-07 DIIS
   @DF-RHF iter  11:  -649.61053132257052   -1.83837e-07   3.25047e-07 DIIS
   @DF-RHF iter  12:  -649.61053134832241   -2.57519e-08   1.05058e-07 DIIS
   @DF-RHF iter  13:  -649.61053135078646   -2.46405e-09   3.32497e-08 DIIS
   @DF-RHF iter  14:  -649.61053135111445   -3.27987e-10   1.29275e-08 DIIS
   @DF-RHF iter  15:  -649.61053135116060   -4.61569e-11   6.55280e-09 DIIS
   @DF-RHF iter  16:  -649.61053135115480    5.79803e-12   2.43098e-09 DIIS
   @DF-RHF iter  17:  -649.61053135118379   -2.89901e-11   1.06611e-09 DIIS
   @DF-RHF iter  18:  -649.61053135118857   -4.77485e-12   3.78457e-10 DIIS
   @DF-RHF iter  19:  -649.61053135117970    8.86757e-12   2.28364e-10 DIIS
   @DF-RHF iter  20:  -649.61053135117606    3.63798e-12   1.19151e-10 DIIS
   @DF-RHF iter  21:  -649.61053135116970    6.36646e-12   2.77153e-11 DIIS

  ==> Post-Iterations <==

    Orbital Energies (a.u.)
    -----------------------

    Doubly Occupied:                                                      

       1A    -26.188655     2A    -20.302405     3A    -15.454833  
       4A    -11.191998     5A    -11.169723     6A    -11.168204  
       7A    -11.147438     8A    -11.124149     9A    -11.124026  
      10A    -11.121544    11A    -11.109867    12A    -11.084101  
      13A    -11.065648    14A    -11.064861    15A     -1.508828  
      16A     -1.141998    17A     -1.134146    18A     -1.025402  
      19A     -0.964941    20A     -0.926031    21A     -0.874481  
      22A     -0.848725    23A     -0.750645    24A     -0.739152  
      25A     -0.703117    26A     -0.676813    27A     -0.607937  
      28A     -0.584626    29A     -0.577588    30A     -0.564787  
      31A     -0.548183    32A     -0.536642    33A     -0.501337  
      34A     -0.490550    35A     -0.471642    36A     -0.463230  
      37A     -0.433605    38A     -0.415165    39A     -0.412918  
      40A     -0.384413    41A     -0.377270    42A     -0.357602  
      43A     -0.311221    44A     -0.307954    45A     -0.252267  
      46A     -0.243576    47A     -0.221419    48A     -0.201236  
      49A     -0.116109  

    Virtual:                                                              

      50A      0.098332    51A      0.100598    52A      0.115105  
      53A      0.120364    54A      0.123869    55A      0.128190  
      56A      0.132117    57A      0.154687    58A      0.166658  
      59A      0.173374    60A      0.179211    61A      0.183621  
      62A      0.186603    63A      0.187233    64A      0.189640  
      65A      0.196901    66A      0.198740    67A      0.204685  
      68A      0.206675    69A      0.212891    70A      0.213660  
      71A      0.218181    72A      0.221461    73A      0.226301  
      74A      0.229184    75A      0.231435    76A      0.235025  
      77A      0.237960    78A      0.241279    79A      0.247228  
      80A      0.254091    81A      0.256366    82A      0.260066  
      83A      0.263801    84A      0.266951    85A      0.275906  
      86A      0.276389    87A      0.288127    88A      0.293282  
      89A      0.298352    90A      0.312162    91A      0.313936  
      92A      0.320197    93A      0.321324    94A      0.322741  
      95A      0.327201    96A      0.329756    97A      0.332545  
      98A      0.333557    99A      0.336165   100A      0.345681  
     101A      0.349520   102A      0.352155   103A      0.362337  
     104A      0.364670   105A      0.366618   106A      0.373325  
     107A      0.381385   108A      0.383741   109A      0.385921  
     110A      0.391279   111A      0.399708   112A      0.403931  
     113A      0.408788   114A      0.410007   115A      0.415010  
     116A      0.419500   117A      0.420817   118A      0.423489  
     119A      0.430918   120A      0.437876   121A      0.440061  
     122A      0.446188   123A      0.452928   124A      0.458577  
     125A      0.460900   126A      0.467855   127A      0.472403  
     128A      0.474432   129A      0.481970   130A      0.486728  
     131A      0.492365   132A      0.501255   133A      0.507095  
     134A      0.510843   135A      0.514915   136A      0.518448  
     137A      0.532784   138A      0.535598   139A      0.539706  
     140A      0.542937   141A      0.548926   142A      0.558197  
     143A      0.558967   144A      0.562912   145A      0.564250  
     146A      0.564848   147A      0.573683   148A      0.575137  
     149A      0.578519   150A      0.584255   151A      0.586436  
     152A      0.587600   153A      0.596501   154A      0.597603  
     155A      0.600172   156A      0.602299   157A      0.603664  
     158A      0.607427   159A      0.610785   160A      0.620414  
     161A      0.622881   162A      0.626442   163A      0.631330  
     164A      0.632958   165A      0.634320   166A      0.638741  
     167A      0.644512   168A      0.646064   169A      0.654552  
     170A      0.656625   171A      0.659071   172A      0.667019  
     173A      0.677593   174A      0.682686   175A      0.686899  
     176A      0.695433   177A      0.698973   178A      0.702842  
     179A      0.707145   180A      0.709854   181A      0.713750  
     182A      0.716610   183A      0.730520   184A      0.731526  
     185A      0.734557   186A      0.750172   187A      0.753895  
     188A      0.759661   189A      0.770214   190A      0.773961  
     191A      0.784476   192A      0.791545   193A      0.796997  
     194A      0.802221   195A      0.805291   196A      0.812222  
     197A      0.814577   198A      0.819849   199A      0.825074  
     200A      0.831698   201A      0.840672   202A      0.848339  
     203A      0.854327   204A      0.858031   205A      0.860134  
     206A      0.863306   207A      0.867745   208A      0.872690  
     209A      0.877364   210A      0.881624   211A      0.882372  
     212A      0.888821   213A      0.902625   214A      0.911686  
     215A      0.917362   216A      0.923002   217A      0.933250  
     218A      0.945371   219A      0.949103   220A      0.955054  
     221A      0.965586   222A      0.976078   223A      0.978720  
     224A      0.981324   225A      0.983099   226A      0.985535  
     227A      0.994695   228A      0.999941   229A      1.003763  
     230A      1.007711   231A      1.012964   232A      1.016352  
     233A      1.017533   234A      1.027695   235A      1.034165  
     236A      1.038862   237A      1.041905   238A      1.044562  
     239A      1.052301   240A      1.055330   241A      1.060871  
     242A      1.063562   243A      1.071209   244A      1.077386  
     245A      1.080871   246A      1.084525   247A      1.089799  
     248A      1.093581   249A      1.096673   250A      1.101839  
     251A      1.108493   252A      1.112341   253A      1.117355  
     254A      1.124619   255A      1.129582   256A      1.133742  
     257A      1.137819   258A      1.143792   259A      1.144754  
     260A      1.149267   261A      1.153084   262A      1.159787  
     263A      1.167698   264A      1.169575   265A      1.175866  
     266A      1.177521   267A      1.178974   268A      1.184419  
     269A      1.189270   270A      1.192427   271A      1.196685  
     272A      1.200499   273A      1.203686   274A      1.217243  
     275A      1.221262   276A      1.225342   277A      1.228133  
     278A      1.230634   279A      1.238681   280A      1.250252  
     281A      1.255346   282A      1.256926   283A      1.264166  
     284A      1.267049   285A      1.275459   286A      1.281351  
     287A      1.284886   288A      1.292135   289A      1.293934  
     290A      1.297327   291A      1.305614   292A      1.311375  
     293A      1.314058   294A      1.318368   295A      1.321862  
     296A      1.326341   297A      1.332887   298A      1.333555  
     299A      1.339070   300A      1.350722   301A      1.353043  
     302A      1.365921   303A      1.369536   304A      1.374541  
     305A      1.383463   306A      1.386103   307A      1.392638  
     308A      1.395611   309A      1.403703   310A      1.408652  
     311A      1.417204   312A      1.423928   313A      1.430881  
     314A      1.435991   315A      1.441041   316A      1.456842  
     317A      1.462758   318A      1.468024   319A      1.473835  
     320A      1.486625   321A      1.491869   322A      1.493472  
     323A      1.504800   324A      1.507523   325A      1.509942  
     326A      1.521834   327A      1.525800   328A      1.533665  
     329A      1.548191   330A      1.558810   331A      1.567051  
     332A      1.573184   333A      1.581135   334A      1.592340  
     335A      1.599264   336A      1.600891   337A      1.607659  
     338A      1.614540   339A      1.627819   340A      1.629848  
     341A      1.641280   342A      1.652875   343A      1.657708  
     344A      1.668932   345A      1.685513   346A      1.689073  
     347A      1.692641   348A      1.703439   349A      1.710645  
     350A      1.723103   351A      1.730187   352A      1.738190  
     353A      1.745657   354A      1.750167   355A      1.758885  
     356A      1.763121   357A      1.772332   358A      1.774944  
     359A      1.786210   360A      1.801665   361A      1.814446  
     362A      1.818529   363A      1.822314   364A      1.824614  
     365A      1.833014   366A      1.840955   367A      1.847259  
     368A      1.848834   369A      1.854372   370A      1.856473  
     371A      1.862674   372A      1.889931   373A      1.901934  
     374A      1.905796   375A      1.908835   376A      1.913771  
     377A      1.927498   378A      1.933270   379A      1.936894  
     380A      1.943448   381A      1.948157   382A      1.960799  
     383A      1.980037   384A      1.987461   385A      2.007106  
     386A      2.007282   387A      2.012099   388A      2.015682  
     389A      2.026923   390A      2.027825   391A      2.043316  
     392A      2.047356   393A      2.056403   394A      2.066890  
     395A      2.078337   396A      2.079561   397A      2.085885  
     398A      2.088526   399A      2.097160   400A      2.106126  
     401A      2.116529   402A      2.124325   403A      2.128324  
     404A      2.132171   405A      2.144719   406A      2.148091  
     407A      2.155315   408A      2.165420   409A      2.173357  
     410A      2.175404   411A      2.177380   412A      2.189271  
     413A      2.202588   414A      2.205301   415A      2.214557  
     416A      2.227821   417A      2.235813   418A      2.245832  
     419A      2.256815   420A      2.260352   421A      2.266564  
     422A      2.274370   423A      2.285445   424A      2.287520  
     425A      2.304486   426A      2.320344   427A      2.323858  
     428A      2.326791   429A      2.333689   430A      2.342265  
     431A      2.352254   432A      2.363431   433A      2.375411  
     434A      2.390814   435A      2.396382   436A      2.404168  
     437A      2.412626   438A      2.418091   439A      2.429851  
     440A      2.433207   441A      2.449346   442A      2.459992  
     443A      2.468505   444A      2.474651   445A      2.489358  
     446A      2.496406   447A      2.505588   448A      2.519046  
     449A      2.522528   450A      2.537741   451A      2.546223  
     452A      2.565013   453A      2.576754   454A      2.585680  
     455A      2.593886   456A      2.608924   457A      2.620161  
     458A      2.634853   459A      2.638522   460A      2.651539  
     461A      2.668494   462A      2.670558   463A      2.679337  
     464A      2.685279   465A      2.696994   466A      2.706859  
     467A      2.718776   468A      2.737887   469A      2.747949  
     470A      2.756679   471A      2.770762   472A      2.806736  
     473A      2.817734   474A      2.843538   475A      2.850113  
     476A      2.869758   477A      2.875980   478A      2.880061  
     479A      2.891341   480A      2.902414   481A      2.916122  
     482A      2.929807   483A      2.948798   484A      2.963165  
     485A      2.992741   486A      3.004322   487A      3.020426  
     488A      3.032641   489A      3.069259   490A      3.090518  
     491A      3.098352   492A      3.111569   493A      3.143415  
     494A      3.159066   495A      3.179598   496A      3.191910  
     497A      3.217416   498A      3.226861   499A      3.233760  
     500A      3.255932   501A      3.275539   502A      3.293257  
     503A      3.294851   504A      3.311918   505A      3.322653  
     506A      3.328861   507A      3.347570   508A      3.352145  
     509A      3.369982   510A      3.378701   511A      3.402743  
     512A      3.425378   513A      3.431964   514A      3.439703  
     515A      3.456268   516A      3.469453   517A      3.476938  
     518A      3.485244   519A      3.500415   520A      3.503549  
     521A      3.513091   522A      3.519600   523A      3.526699  
     524A      3.542143   525A      3.550703   526A      3.566476  
     527A      3.572268   528A      3.581611   529A      3.597457  
     530A      3.599442   531A      3.607038   532A      3.613427  
     533A      3.626382   534A      3.636988   535A      3.639434  
     536A      3.650800   537A      3.660790   538A      3.675293  
     539A      3.678957   540A      3.686111   541A      3.692195  
     542A      3.705004   543A      3.708233   544A      3.714584  
     545A      3.722106   546A      3.733557   547A      3.742291  
     548A      3.751076   549A      3.764275   550A      3.777536  
     551A      3.779935   552A      3.784930   553A      3.794271  
     554A      3.800475   555A      3.817409   556A      3.823085  
     557A      3.832106   558A      3.844079   559A      3.846657  
     560A      3.864550   561A      3.871743   562A      3.883669  
     563A      3.895928   564A      3.901222   565A      3.910262  
     566A      3.918373   567A      3.925282   568A      3.929709  
     569A      3.941396   570A      3.949957   571A      3.956370  
     572A      3.969892   573A      3.973608   574A      3.990180  
     575A      4.000339   576A      4.009494   577A      4.017343  
     578A      4.028451   579A      4.034513   580A      4.038919  
     581A      4.049617   582A      4.057866   583A      4.067718  
     584A      4.072355   585A      4.076547   586A      4.092372  
     587A      4.096609   588A      4.111483   589A      4.118681  
     590A      4.120675   591A      4.134650   592A      4.137375  
     593A      4.151082   594A      4.162373   595A      4.166886  
     596A      4.174182   597A      4.180042   598A      4.189449  
     599A      4.196315   600A      4.215582   601A      4.229529  
     602A      4.231519   603A      4.233111   604A      4.242187  
     605A      4.248738   606A      4.268259   607A      4.276930  
     608A      4.286832   609A      4.302827   610A      4.317043  
     611A      4.318230   612A      4.327482   613A      4.338420  
     614A      4.357310   615A      4.361983   616A      4.366556  
     617A      4.381081   618A      4.402999   619A      4.410719  
     620A      4.415190   621A      4.428172   622A      4.437331  
     623A      4.441174   624A      4.445540   625A      4.462682  
     626A      4.471788   627A      4.482585   628A      4.488498  
     629A      4.492189   630A      4.499562   631A      4.515490  
     632A      4.516532   633A      4.518246   634A      4.523185  
     635A      4.536547   636A      4.547547   637A      4.555168  
     638A      4.560381   639A      4.572677   640A      4.591106  
     641A      4.599428   642A      4.613457   643A      4.631033  
     644A      4.645113   645A      4.651525   646A      4.670958  
     647A      4.674474   648A      4.696319   649A      4.712470  
     650A      4.717580   651A      4.726200   652A      4.745251  
     653A      4.754562   654A      4.765991   655A      4.778828  
     656A      4.792663   657A      4.800128   658A      4.811144  
     659A      4.837981   660A      4.843124   661A      4.861065  
     662A      4.890388   663A      4.898378   664A      4.906994  
     665A      4.929446   666A      4.935368   667A      4.942155  
     668A      4.972504   669A      4.986677   670A      4.997642  
     671A      5.003639   672A      5.031062   673A      5.041287  
     674A      5.058829   675A      5.077220   676A      5.088024  
     677A      5.101188   678A      5.103136   679A      5.116524  
     680A      5.129818   681A      5.137150   682A      5.157213  
     683A      5.166108   684A      5.176429   685A      5.187786  
     686A      5.202087   687A      5.211263   688A      5.233281  
     689A      5.243520   690A      5.252364   691A      5.269823  
     692A      5.273303   693A      5.277774   694A      5.300225  
     695A      5.304771   696A      5.309873   697A      5.315294  
     698A      5.330730   699A      5.353292   700A      5.361266  
     701A      5.374566   702A      5.379757   703A      5.412411  
     704A      5.432567   705A      5.450203   706A      5.469002  
     707A      5.477992   708A      5.482400   709A      5.511647  
     710A      5.521292   711A      5.528363   712A      5.558449  
     713A      5.561586   714A      5.585504   715A      5.592038  
     716A      5.638228   717A      5.652096   718A      5.665868  
     719A      5.683896   720A      5.710526   721A      5.736116  
     722A      5.767619   723A      5.777989   724A      5.811802  
     725A      5.848115   726A      5.863359   727A      5.877117  
     728A      5.906313   729A      5.914988   730A      5.927450  
     731A      5.959738   732A      5.982203   733A      5.997819  
     734A      6.017182   735A      6.042472   736A      6.096892  
     737A      6.130217   738A      6.178940   739A      6.190916  
     740A      6.253565   741A      6.304668   742A      6.316176  
     743A      6.353466   744A      6.388770   745A      6.422269  
     746A      6.440809   747A      6.484599   748A      6.525143  
     749A      6.556728   750A      6.614800   751A      6.622172  
     752A      6.657782   753A      6.709005   754A      6.797804  
     755A      6.811437   756A      6.831859   757A      6.838638  
     758A      6.895086   759A      6.897230   760A      6.975956  
     761A      6.983983   762A      7.007260   763A      7.043335  
     764A      7.100668   765A      7.169842   766A      7.186813  
     767A      7.191892   768A      7.297369   769A      7.331222  
     770A      7.353820   771A      7.532451   772A      7.593502  
     773A      7.608433   774A      7.642153   775A      7.916274  
     776A      7.937123   777A      8.019081   778A      8.141173  
     779A      8.212917   780A      9.181870   781A      9.200916  
     782A      9.403912   783A      9.425529   784A      9.549504  
     785A      9.659194   786A      9.690739   787A      9.744769  
     788A      9.777082   789A      9.855020   790A     10.170813  
     791A     10.224645   792A     15.649174   793A     16.040658  
     794A     16.385597   795A     16.702111   796A     16.842961  
     797A     16.951715   798A     18.569433   799A     18.825681  
     800A     19.383241   801A     19.965019   802A     20.331221  
     803A     20.399938   804A     20.560958   805A     21.909839  

    Final Occupation by Irrep:
              A 
    DOCC [    49 ]

  Energy converged.

  @DF-RHF Final Energy:  -649.61053135116970

   => Energetics <=

    Nuclear Repulsion Energy =            802.8600347731231750
    One-Electron Energy =               -2494.9551170702129639
    Two-Electron Energy =                1042.4845509459203186
    DFT Exchange-Correlation Energy =       0.0000000000000000
    Empirical Dispersion Energy =           0.0000000000000000
    PCM Polarization Energy =               0.0000000000000000
    EFP Energy =                            0.0000000000000000
    Total Energy =                       -649.6105313511695840



Properties will be evaluated at   0.000000,   0.000000,   0.000000 Bohr

Properties computed using the SCF density matrix

  Nuclear Dipole Moment: (a.u.)
     X:     0.9325      Y:    -0.2929      Z:    -6.8853

  Electronic Dipole Moment: (a.u.)
     X:     1.6962      Y:    -1.0862      Z:     5.1490

  Dipole Moment: (a.u.)
     X:     2.6286      Y:    -1.3791      Z:    -1.7363     Total:     3.4389

  Dipole Moment: (Debye)
     X:     6.6813      Y:    -3.5052      Z:    -4.4132     Total:     8.7409


*** tstop() called on gpu-1-7.local at Sat Nov 11 18:22:47 2017
Module time:
	user time   =    1152.64 seconds =      19.21 minutes
	system time =      53.43 seconds =       0.89 minutes
	total time  =        477 seconds =       7.95 minutes
Total time:
	user time   =    1152.65 seconds =      19.21 minutes
	system time =      53.43 seconds =       0.89 minutes
	total time  =        477 seconds =       7.95 minutes

  //>>>>>>>>>>>>>>>>>>>>>>>>>>>>>>>>>>>//
  //               DFMP2               //
  //<<<<<<<<<<<<<<<<<<<<<<<<<<<<<<<<<<<//

   => Loading Basis Set <=

    Name: (AUG-CC-PVTZ AUX)
    Role: RIFIT
    Keyword: DF_BASIS_MP2
    atoms 1-11  entry C          line   147 file /cbio/jclab/home/chayas/anaconda/envs/py35/share/psi4/basis/aug-cc-pvtz-ri.gbs 
    atoms 12    entry N          line   205 file /cbio/jclab/home/chayas/anaconda/envs/py35/share/psi4/basis/aug-cc-pvtz-ri.gbs 
    atoms 13    entry O          line   263 file /cbio/jclab/home/chayas/anaconda/envs/py35/share/psi4/basis/aug-cc-pvtz-ri.gbs 
    atoms 14    entry F          line   321 file /cbio/jclab/home/chayas/anaconda/envs/py35/share/psi4/basis/aug-cc-pvtz-ri.gbs 
    atoms 15-21 entry H          line    29 file /cbio/jclab/home/chayas/anaconda/envs/py35/share/psi4/basis/aug-cc-pvtz-ri.gbs 

	 --------------------------------------------------------
	                          DF-MP2                         
	      2nd-Order Density-Fitted Moller-Plesset Theory     
	              RMP2 Wavefunction,   8 Threads             
	                                                         
	        Rob Parrish, Justin Turney, Andy Simmonett,      
	           Ed Hohenstein, and C. David Sherrill          
	 --------------------------------------------------------

   => Auxiliary Basis Set <=

  Basis Set: (AUG-CC-PVTZ AUX)
    Blend: AUG-CC-PVTZ-RI
    Number of shells: 490
    Number of basis function: 1806
    Number of Cartesian functions: 2289
    Spherical Harmonics?: true
    Max angular momentum: 4

	 --------------------------------------------------------
	                 NBF =   805, NAUX =  1806
	 --------------------------------------------------------
	   CLASS    FOCC     OCC    AOCC    AVIR     VIR    FVIR
	   PAIRS       0      49      49     756     756       0
	 --------------------------------------------------------


         ------------------------------------------------------------
                                     CPHF                           
                                  Rob Parrish                       
         ------------------------------------------------------------

  ==> Geometry <==

    Molecular point group: c1
    Full point group: C1

    Geometry (in Angstrom), charge = -1, multiplicity = 1:

       Center              X                  Y                   Z               Mass       
    ------------   -----------------  -----------------  -----------------  -----------------
           C         -1.345572773830     0.766773265024    -0.780851028416    12.000000000000
           C         -2.423572773830     1.339773265024    -0.107851028416    12.000000000000
           C          0.584427226170    -1.234226734976    -1.869851028416    12.000000000000
           C          2.108427226170    -0.180226734976    -0.336851028416    12.000000000000
           C         -1.430572773830     0.723773265024     2.007148971584    12.000000000000
           C          1.687427226170    -1.776226734976    -2.508851028416    12.000000000000
           C          3.143427226170    -0.770226734976    -1.043851028416    12.000000000000
           C         -0.309572773830     0.171773265024    -0.060851028416    12.000000000000
           C          0.807427226170    -0.421226734976    -0.763851028416    12.000000000000
           C         -2.466572773830     1.318773265024     1.286148971584    12.000000000000
           C         -0.352572773830     0.150773265024     1.333148971584    12.000000000000
           N          2.965427226170    -1.565226734976    -2.122851028416    14.003074004780
           O         -3.457572773830     1.845773265024     1.905148971584    15.994914619560
           F          0.635427226170    -0.417226734976     2.040148971584    18.998403224000
           H         -1.326572773830     0.789773265024    -1.868851028416     1.007825032070
           H         -3.219572773830     1.795773265024    -0.693851028416     1.007825032070
           H         -0.416572773830    -1.444226734976    -2.233851028416     1.007825032070
           H          2.320427226170     0.447773265024     0.522148971584     1.007825032070
           H         -1.439572773830     0.693773265024     3.095148971584     1.007825032070
           H          1.567427226170    -2.415226734976    -3.377851028416     1.007825032070
           H          4.175427226170    -0.614226734976    -0.750851028416     1.007825032070

  Nuclear repulsion =  802.860034773123175
  Reference energy  = -649.610531351169698

  ==> Basis Set <==

  Basis Set: AUG-CC-PVTZ
    Blend: AUG-CC-PVTZ
    Number of shells: 259
    Number of basis function: 805
    Number of Cartesian functions: 945
    Spherical Harmonics?: true
    Max angular momentum: 3

  ==> CGRSolver (by Rob Parrish) <==

   Number of roots    =         1
   Preconditioning    =    JACOBI
   Convergence cutoff =     1E-06
   Maximum iterations =       100

  ==> CPHFRHamiltonian (by Rob Parrish) <== 

  ==> DFJK: Density-Fitted J/K Matrices <==

    J tasked:                  Yes
    K tasked:                  Yes
    wK tasked:                  No
    OpenMP threads:              8
    Integrals threads:           8
    Memory (MB):              3576
    Algorithm:                Disk
    Integral Cache:           NONE
    Schwarz Cutoff:          1E-12
    Fitting Condition:       1E-12

   => Auxiliary Basis Set <=

  Basis Set: (AUG-CC-PVTZ AUX)
    Blend: AUG-CC-PVTZ-JKFIT
    Number of shells: 518
    Number of basis function: 1778
    Number of Cartesian functions: 2219
    Spherical Harmonics?: true
    Max angular momentum: 4

  ==> CPHF Iterations <==

  => Iterations <=

             Iter  Converged  Remaining    Residual
  CGR           1          0          1   1.313E-01
  CGR           2          0          1   4.821E-02
  CGR           3          0          1   2.865E-02
  CGR           4          0          1   1.076E-02
  CGR           5          0          1   4.946E-03
  CGR           6          0          1   2.516E-03
  CGR           7          0          1   9.868E-04
  CGR           8          0          1   3.768E-04
  CGR           9          0          1   1.220E-04
  CGR          10          0          1   3.569E-05
  CGR          11          0          1   1.382E-05
  CGR          12          0          1   3.981E-06
  CGR          13          0          1   1.731E-06
  CGR          14          1          0   8.557E-07

    CGRSolver converged.

  ==> DFCorrGrad: Density-Fitted Correlated Gradients <==

    OpenMP threads:              8
    Integrals threads:           8
    Memory (MB):              3576
    Schwarz Cutoff:          0E+00
    Fitting Condition:       1E-12

   => Auxiliary Basis Set <=

  Basis Set: (AUG-CC-PVTZ AUX)
    Blend: AUG-CC-PVTZ-JKFIT
    Number of shells: 518
    Number of basis function: 1778
    Number of Cartesian functions: 2219
    Spherical Harmonics?: true
    Max angular momentum: 4

	-----------------------------------------------------------
	 ==================> DF-MP2 Energies <==================== 
	-----------------------------------------------------------
	 Reference Energy          =    -649.6105313511696977 [Eh]
	 Singles Energy            =      -0.0000000000000001 [Eh]
	 Same-Spin Energy          =      -0.6862519775187370 [Eh]
	 Opposite-Spin Energy      =      -2.0262528712420678 [Eh]
	 Correlation Energy        =      -2.7125048487608048 [Eh]
	 Total Energy              =    -652.3230361999304705 [Eh]
	-----------------------------------------------------------
	 ================> DF-SCS-MP2 Energies <================== 
	-----------------------------------------------------------
	 SCS Same-Spin Scale       =       0.3333333333333333 [-]
	 SCS Opposite-Spin Scale   =       1.2000000000000000 [-]
	 SCS Same-Spin Energy      =      -0.2287506591729123 [Eh]
	 SCS Opposite-Spin Energy  =      -2.4315034454904811 [Eh]
	 SCS Correlation Energy    =      -2.6602541046633936 [Eh]
	 SCS Total Energy          =    -652.2707854558331064 [Eh]
	-----------------------------------------------------------


  -Total Gradient:
     Atom            X                  Y                   Z
    ------   -----------------  -----------------  -----------------
       1        0.022050654057    -0.005694597781    -0.011482431479
       2       -0.022287248441     0.011073045578     0.040667693169
       3       -0.012388014972     0.002119881221     0.007855757841
       4       -0.011842728545     0.008669703908     0.006842605095
       5       -0.044145052821     0.024644754652    -0.001688250412
       6       -0.010955003926    -0.001782935106    -0.000018257045
       7        0.000662603666     0.007024428942     0.007890070192
       8       -0.019648634309     0.010394315383     0.006426199006
       9        0.016211781770    -0.007823632602    -0.011472502461
      10        0.048217673208    -0.025271402271    -0.029184486378
      11        0.039459636601    -0.028302090931     0.002036035971
      12        0.008082541637    -0.003806151221    -0.004932926250
      13       -0.002454804993     0.001195197804     0.000319855893
      14       -0.010319331131     0.007745291265    -0.005392987447
      15       -0.003757670318     0.001213782225    -0.004747578501
      16       -0.002373789799     0.000659703511    -0.008872788274
      17       -0.003448756567    -0.001484460443    -0.004441361402
      18        0.003284426414     0.002385442105     0.004693424536
      19        0.004018359456    -0.001734822954     0.007071790686
      20        0.000378227410    -0.000769118557    -0.001745918574
      21        0.001255131593    -0.000456334721     0.000176055835


*** tstop() called on gpu-1-7.local at Sat Nov 11 18:56:19 2017
Module time:
	user time   =    5393.31 seconds =      89.89 minutes
	system time =     112.49 seconds =       1.87 minutes
	total time  =       2489 seconds =      41.48 minutes
Total time:
	user time   =    5393.32 seconds =      89.89 minutes
	system time =     112.49 seconds =       1.87 minutes
	total time  =       2489 seconds =      41.48 minutes

			-----------------------------------------
			 OPTKING 2.0: for geometry optimizations 
			  - R.A. King,  Bethel University        
			-----------------------------------------

	Internal coordinates to be generated automatically.
	Detected frag 1 with atoms:  1 2 3 4 5 6 7 8 9 10 11 12 13 14 15 16 17 18 19 20
	 21
	---Fragment 1 Bond Connectivity---
	 1 : 2 8 15
	 2 : 1 10 16
	 3 : 6 9 17
	 4 : 7 9 18
	 5 : 10 11 19
	 6 : 3 12 20
	 7 : 4 12 21
	 8 : 1 9 11
	 9 : 3 4 8
	 10 : 2 5 13
	 11 : 5 8 14
	 12 : 6 7
	 13 : 10
	 14 : 11
	 15 : 1
	 16 : 2
	 17 : 3
	 18 : 4
	 19 : 5
	 20 : 6
	 21 : 7

	Assuming in current code that numbering for constraints corresponds to unified fragment.
	Fixed dihedral atom list: 
	     1     8     9     3
	---Fragment 1 Geometry and Gradient---
	 C          -2.5427640344        1.4489914769       -1.4755945943
	 C          -4.5798888057        2.5318045511       -0.2038089069
	 C           1.1044074021       -2.3323505150       -3.5335063530
	 C           3.9843500286       -0.3405791709       -0.6365561913
	 C          -2.7033907557        1.3677332532        3.7929618642
	 C           3.1887753266       -3.3565820790       -4.7410413519
	 C           5.9402165761       -1.4555175893       -1.9725925672
	 C          -0.5850077607        0.3246044278       -0.1149917786
	 C           1.5258163297       -0.7960031690       -1.4434692500
	 C          -4.6611470294        2.4921203023        2.4304693224
	 C          -0.6662659845        0.2849201791        2.5192864506
	 N           5.6038453245       -2.9578498650       -4.0116070646
	 O          -6.5338656271        3.4880059743        3.6002097986
	 F           1.2007834348       -0.7884442644        3.8553228266
	 H          -2.5068592379        1.4924551780       -3.5316166269
	 H          -6.0841108074        3.3935196677       -1.3111884207
	 H          -0.7872084570       -2.7291930029       -4.2213666654
	 H           4.3849719688        0.8461688405        0.9867185569
	 H          -2.7203982909        1.3110414692        5.8489838968
	 H           2.9620081907       -4.5641170779       -6.3832133614
	 H           7.8904139453       -1.1607203126       -1.4189028103
	             0.0220506541       -0.0056945978       -0.0114824315
	            -0.0222872484        0.0110730456        0.0406676932
	            -0.0123880150        0.0021198812        0.0078557578
	            -0.0118427285        0.0086697039        0.0068426051
	            -0.0441450528        0.0246447547       -0.0016882504
	            -0.0109550039       -0.0017829351       -0.0000182570
	             0.0006626037        0.0070244289        0.0078900702
	            -0.0196486343        0.0103943154        0.0064261990
	             0.0162117818       -0.0078236326       -0.0114725025
	             0.0482176732       -0.0252714023       -0.0291844864
	             0.0394596366       -0.0283020909        0.0020360360
	             0.0080825416       -0.0038061512       -0.0049329262
	            -0.0024548050        0.0011951978        0.0003198559
	            -0.0103193311        0.0077452913       -0.0053929874
	            -0.0037576703        0.0012137822       -0.0047475785
	            -0.0023737898        0.0006597035       -0.0088727883
	            -0.0034487566       -0.0014844604       -0.0044413614
	             0.0032844264        0.0023854421        0.0046934245
	             0.0040183595       -0.0017348230        0.0070717907
	             0.0003782274       -0.0007691186       -0.0017459186
	             0.0012551316       -0.0004563347        0.0001760558

	Previous optimization step data not found.  Starting new optimization.

	---Fragment 1 Intrafragment Coordinates---
	 - Coordinate -           - BOHR/RAD -       - ANG/DEG -
	 R(1,2)           =         2.634350	       1.394038
	 R(1,8)           =         2.635962	       1.394891
	 R(1,15)          =         2.056795	       1.088409
	 R(2,10)          =         2.635830	       1.394821
	 R(2,16)          =         2.057067	       1.088553
	 R(3,6)           =         2.617591	       1.385169
	 R(3,9)           =         2.627966	       1.390660
	 R(3,17)          =         2.051547	       1.085632
	 R(4,7)           =         2.617918	       1.385343
	 R(4,9)           =         2.627339	       1.390328
	 R(4,18)          =         2.050339	       1.084993
	 R(5,10)          =         2.636938	       1.395407
	 R(5,11)          =         2.635263	       1.394521
	 R(5,19)          =         2.056874	       1.088451
	 R(6,12)          =         2.554139	       1.351592
	 R(6,20)          =         2.050925	       1.085303
	 R(7,12)          =         2.554942	       1.352017
	 R(7,21)          =         2.048596	       1.084071
	 R(8,9)           =         2.734263	       1.446909
	 R(8,11)          =         2.635830	       1.394821
	 R(10,13)         =         2.422221	       1.281784
	 R(11,14)         =         2.534359	       1.341125
	 B(1,2,10)        =         2.094553	     120.009056
	 B(1,2,16)        =         2.068903	     118.539404
	 B(1,8,9)         =         2.091392	     119.827938
	 B(1,8,11)        =         2.093692	     119.959722
	 B(2,1,8)         =         2.094940	     120.031219
	 B(2,1,15)        =         2.079908	     119.169966
	 B(2,10,5)        =         2.094306	     119.994870
	 B(2,10,13)       =         2.094719	     120.018581
	 B(3,6,12)        =         2.165308	     124.063004
	 B(3,6,20)        =         2.107971	     120.777845
	 B(3,9,4)         =         2.089375	     119.712361
	 B(3,9,8)         =         2.096955	     120.146646
	 B(4,7,12)        =         2.164402	     124.011105
	 B(4,7,21)        =         2.108310	     120.797263
	 B(4,9,8)         =         2.096856	     120.140987
	 B(5,10,13)       =         2.094160	     119.986548
	 B(5,11,8)        =         2.095181	     120.045019
	 B(5,11,14)       =         2.081414	     119.256220
	 B(6,3,9)         =         2.057766	     117.901289
	 B(6,3,17)        =         2.098851	     120.255277
	 B(6,12,7)        =         2.031079	     116.372266
	 B(7,4,9)         =         2.058440	     117.939918
	 B(7,4,18)        =         2.099681	     120.302842
	 B(8,1,15)        =         2.108336	     120.798746
	 B(8,11,14)       =         2.106591	     120.698759
	 B(9,3,17)        =         2.126566	     121.843249
	 B(9,4,18)        =         2.125064	     121.757227
	 B(9,8,11)        =         2.098101	     120.212327
	 B(10,2,16)       =         2.119728	     121.451467
	 B(10,5,11)       =         2.093699	     119.960108
	 B(10,5,19)       =         2.120101	     121.472852
	 B(11,5,19)       =         2.069385	     118.567038
	 B(12,6,20)       =         2.009906	     115.159131
	 B(12,7,21)       =         2.010473	     115.191620
	 D(1,2,10,5)      =        -0.000325	      -0.018609
	 D(1,2,10,13)     =         3.141392	     179.988520
	 D(1,8,9,3)       =        -0.786192	     -45.045467
	 D(1,8,9,4)       =         2.354933	     134.927735
	 D(1,8,11,5)      =         0.000325	       0.018608
	 D(1,8,11,14)     =        -3.141528	    -179.996269
	 D(2,1,8,9)       =        -3.141211	    -179.978157
	 D(2,1,8,11)      =        -0.000348	      -0.019945
	 D(2,10,5,11)     =         0.000301	       0.017261
	 D(2,10,5,19)     =        -3.141543	    -179.997173
	 D(3,6,12,7)      =        -0.001294	      -0.074166
	 D(3,9,4,7)       =         0.000223	       0.012791
	 D(3,9,4,18)      =        -3.140632	    -179.944976
	 D(3,9,8,11)      =         2.356132	     134.996427
	 D(4,7,12,6)      =         0.000366	       0.020990
	 D(4,9,3,6)       =        -0.001054	      -0.060395
	 D(4,9,3,17)      =        -3.139923	    -179.904341
	 D(4,9,8,11)      =        -0.785928	     -45.030371
	 D(5,10,2,16)     =         3.139529	     179.881752
	 D(5,11,8,9)      =         3.141185	     179.976658
	 D(6,3,9,8)       =         3.140073	     179.912922
	 D(6,12,7,21)     =         3.141249	     179.980329
	 D(7,4,9,8)       =        -3.140904	    -179.960527
	 D(7,12,6,20)     =         3.139405	     179.874657
	 D(8,1,2,10)      =         0.000348	       0.019955
	 D(8,1,2,16)      =        -3.139556	    -179.883288
	 D(8,9,3,17)      =         0.001204	       0.068976
	 D(8,9,4,18)      =         0.001426	       0.081706
	 D(8,11,5,10)     =        -0.000301	      -0.017270
	 D(8,11,5,19)     =         3.141536	     179.996748
	 D(9,3,6,12)      =         0.001656	       0.094873
	 D(9,3,6,20)      =        -3.138996	    -179.851212
	 D(9,4,7,12)      =         0.000138	       0.007886
	 D(9,4,7,21)      =        -3.140707	    -179.949281
	 D(9,8,1,15)      =         0.002066	       0.118384
	 D(9,8,11,14)     =        -0.000667	      -0.038219
	 D(10,2,1,15)     =         3.140283	     179.924984
	 D(10,5,11,14)    =         3.141547	     179.997392
	 D(11,5,10,13)    =        -3.141416	    -179.989865
	 D(11,8,1,15)     =        -3.140256	    -179.923403
	 D(12,6,3,17)     =         3.140570	     179.941401
	 D(12,7,4,18)     =         3.141004	     179.966293
	 D(13,10,2,16)    =        -0.001939	      -0.111119
	 D(13,10,5,19)    =        -0.000075	      -0.004300
	 D(14,11,5,19)    =         0.000199	       0.011410
	 D(15,1,2,16)     =         0.000379	       0.021741
	 D(17,3,6,20)     =        -0.000082	      -0.004683
	 D(18,4,7,21)     =         0.000159	       0.009126
	 R(4,14)          =         5.303377	       2.806426

	Current energy   :      -652.3230361999

	Generating empirical Hessian (Schlegel '84) for each fragment.
	Adding user-defined constraint: Fragment 1; Coordinate 59:
		Value =    -0.786192; Fixed value    =    -0.785398
		Force =     0.000397; Force constant =     0.500000
	Removing off-diagonal coupling between coordinate 59 and others.
	Taking RFO optimization step.
	Going to follow RFO solution 1.
	Using RFO vector 1.

	Determining step-restricting scale parameter for RS-RFO.
	Maximum step size allowed    0.10000

	 Iter      |step|        alpha        rfo_root  
	------------------------------------------------
	    0     0.26637       1.00000           1
	    1     0.19906       5.40355           1
	    2     0.14649      18.09148           1
	    3     0.11590      37.38171           1
	    4     0.10291      52.18357           1
	    5     0.10013      56.21344           1
	    6     0.10000      56.40973           1
	------------------------------------------------
	Norm of target step-size    0.10000
	Projected energy change by RFO approximation:        -0.0069867292

	Back-transformation to cartesian coordinates...
	Could not converge backtransformation.
	Using first guess instead.

	--- Internal Coordinate Step in ANG or DEG, aJ/ANG or AJ/DEG ---
	 ---------------------------------------------------------------------------
	   Coordinate                Previous        Force       Change         New 
	   ----------                --------       ------       ------       ------
	    1 R(1,2)          =      1.394038    -0.065736    -0.004821     1.389217
	    2 R(1,8)          =      1.394891     0.039246     0.002732     1.397623
	    3 R(1,15)         =      1.088409    -0.038771    -0.003322     1.085087
	    4 R(2,10)         =      1.394821     0.220241     0.016862     1.411683
	    5 R(2,16)         =      1.088553    -0.055930    -0.004790     1.083763
	    6 R(3,6)          =      1.385169     0.005931     0.000425     1.385594
	    7 R(3,9)          =      1.390660     0.024783     0.002189     1.392849
	    8 R(3,17)         =      1.085632    -0.040832    -0.003479     1.082153
	    9 R(4,7)          =      1.385343     0.002597     0.000187     1.385530
	   10 R(4,9)          =      1.390328     0.029000     0.002454     1.392782
	   11 R(4,18)         =      1.084993    -0.047277    -0.004031     1.080961
	   12 R(5,10)         =      1.395407     0.204285     0.015798     1.411206
	   13 R(5,11)         =      1.394521    -0.124294    -0.009195     1.385326
	   14 R(5,19)         =      1.088451    -0.058358    -0.004965     1.083486
	   15 R(6,12)         =      1.351592    -0.102913    -0.007169     1.344423
	   16 R(6,20)         =      1.085303    -0.014903    -0.001271     1.084031
	   17 R(7,12)         =      1.352017    -0.097688    -0.006812     1.345205
	   18 R(7,21)         =      1.084071    -0.009696    -0.000815     1.083255
	   19 R(8,9)          =      1.446909     0.069061     0.005719     1.452629
	   20 R(8,11)         =      1.394821    -0.015014    -0.001298     1.393524
	   21 R(10,13)        =      1.281784    -0.020957    -0.001180     1.280605
	   22 R(11,14)        =      1.341125     0.110658     0.007407     1.348532
	   23 B(1,2,10)       =    120.009056     0.000559     0.717885   120.726941
	   24 B(1,2,16)       =    118.539404     0.000203     0.287247   118.826651
	   25 B(1,8,9)        =    119.827938     0.000711     0.862297   120.690235
	   26 B(1,8,11)       =    119.959722    -0.001063    -1.350331   118.609391
	   27 B(2,1,8)        =    120.031219     0.000693     0.792770   120.823989
	   28 B(2,1,15)       =    119.169966    -0.000041     0.014095   119.184061
	   29 B(2,10,5)       =    119.994870    -0.001819    -2.005658   117.989212
	   30 B(2,10,13)      =    120.018581     0.001005     1.115426   121.134007
	   31 B(3,6,12)       =    124.063004     0.000118     0.104363   124.167368
	   32 B(3,6,20)       =    120.777845    -0.000103    -0.111058   120.666786
	   33 B(3,9,4)        =    119.712361    -0.001324    -1.486229   118.226133
	   34 B(3,9,8)        =    120.146646     0.000656     0.725750   120.872396
	   35 B(4,7,12)       =    124.011105     0.000171     0.171474   124.182579
	   36 B(4,7,21)       =    120.797263    -0.000126    -0.138964   120.658298
	   37 B(4,9,8)        =    120.140987     0.000667     0.760467   120.901454
	   38 B(5,10,13)      =    119.986548     0.000814     0.890228   120.876777
	   39 B(5,11,8)       =    120.045019     0.001208     1.325707   121.370726
	   40 B(5,11,14)      =    119.256220    -0.000119    -0.118702   119.137518
	   41 B(6,3,9)        =    117.901289     0.000609     0.764187   118.665476
	   42 B(6,3,17)       =    120.255277    -0.000090    -0.093845   120.161432
	   43 B(6,12,7)       =    116.372266    -0.000127    -0.249977   116.122289
	   44 B(7,4,9)        =    117.939918     0.000552     0.696039   118.635957
	   45 B(7,4,18)       =    120.302842    -0.000101    -0.112962   120.189879
	   46 B(8,1,15)       =    120.798746    -0.000652    -0.806798   119.991948
	   47 B(8,11,14)      =    120.698759    -0.001089    -1.207183   119.491576
	   48 B(9,3,17)       =    121.843249    -0.000520    -0.670255   121.172994
	   49 B(9,4,18)       =    121.757227    -0.000451    -0.583068   121.174159
	   50 B(9,8,11)       =    120.212327     0.000352     0.487918   120.700245
	   51 B(10,2,16)      =    121.451467    -0.000762    -1.005107   120.446360
	   52 B(10,5,11)      =    119.960108     0.000423     0.519497   120.479605
	   53 B(10,5,19)      =    121.472852    -0.000549    -0.707544   120.765308
	   54 B(11,5,19)      =    118.567038     0.000126     0.188045   118.755083
	   55 B(12,6,20)      =    115.159131    -0.000015     0.006691   115.165822
	   56 B(12,7,21)      =    115.191620    -0.000046    -0.032501   115.159119
	   57 D(1,2,10,5)     =     -0.018609     0.000007     0.060874     0.042265
	   58 D(1,2,10,13)    =    179.988520     0.000004     0.029834   180.018354
	   59 D(1,8,9,3)      =    -45.045467     0.000035     0.188189   -44.857278
	   60 D(1,8,9,4)      =    134.927735     0.000041     0.263294   135.191029
	   61 D(1,8,11,5)     =      0.018608     0.000011     0.101898     0.120506
	   62 D(1,8,11,14)    =   -179.996269    -0.000006    -0.038522  -180.034791
	   63 D(2,1,8,9)      =   -179.978157     0.000008     0.079771  -179.898386
	   64 D(2,1,8,11)     =     -0.019945     0.000001    -0.008313    -0.028258
	   65 D(2,10,5,11)    =      0.017261     0.000004     0.031081     0.048343
	   66 D(2,10,5,19)    =   -179.997173     0.000004     0.023770  -179.973403
	   67 D(3,6,12,7)     =     -0.074166    -0.000003    -0.021995    -0.096161
	   68 D(3,9,4,7)      =      0.012791     0.000005     0.048968     0.061759
	   69 D(3,9,4,18)     =   -179.944976    -0.000003    -0.016703  -179.961679
	   70 D(3,9,8,11)     =    134.996427     0.000042     0.278894   135.275321
	   71 D(4,7,12,6)     =      0.020990    -0.000002    -0.020990     0.000000
	   72 D(4,9,3,6)      =     -0.060395    -0.000010    -0.087651    -0.148046
	   73 D(4,9,3,17)     =   -179.904341    -0.000015    -0.129606  -180.033947
	   74 D(4,9,8,11)     =    -45.030371     0.000048     0.353999   -44.676372
	   75 D(5,10,2,16)    =    179.881752     0.000010     0.079299   179.961051
	   76 D(5,11,8,9)     =    179.976658     0.000004     0.013962   179.990620
	   77 D(6,3,9,8)      =    179.912922    -0.000004    -0.013925   179.898997
	   78 D(6,12,7,21)    =    179.980329     0.000006     0.043056   180.023385
	   79 D(7,4,9,8)      =   -179.960527    -0.000001    -0.024771  -179.985299
	   80 D(7,12,6,20)    =    179.874657     0.000010     0.085526   179.960183
	   81 D(8,1,2,10)     =      0.019955    -0.000010    -0.072337    -0.052382
	   82 D(8,1,2,16)     =   -179.883288    -0.000012    -0.089175  -179.972463
	   83 D(8,9,3,17)     =      0.068976    -0.000009    -0.055879     0.013096
	   84 D(8,9,4,18)     =      0.081706    -0.000009    -0.090442    -0.008737
	   85 D(8,11,5,10)    =     -0.017270    -0.000013    -0.114394    -0.131664
	   86 D(8,11,5,19)    =    179.996748    -0.000013    -0.107098   179.889650
	   87 D(9,3,6,12)     =      0.094873     0.000009     0.078088     0.172961
	   88 D(9,3,6,20)     =   -179.851212    -0.000005    -0.035115  -179.886327
	   89 D(9,4,7,12)     =      0.007886     0.000001     0.006191     0.014078
	   90 D(9,4,7,21)     =   -179.949281    -0.000007    -0.060888  -180.010169
	   91 D(9,8,1,15)     =      0.118384    -0.000007    -0.032667     0.085717
	   92 D(9,8,11,14)    =     -0.038219    -0.000013    -0.126457    -0.164676
	   93 D(10,2,1,15)    =    179.924984     0.000005     0.038404   179.963388
	   94 D(10,5,11,14)   =    179.997392     0.000004     0.025702   180.023095
	   95 D(11,5,10,13)   =   -179.989865     0.000008     0.062055  -179.927810
	   96 D(11,8,1,15)    =   -179.923403    -0.000014    -0.120752  -180.044155
	   97 D(12,6,3,17)    =    179.941401     0.000015     0.118648   180.060050
	   98 D(12,7,4,18)    =    179.966293     0.000009     0.070985   180.037278
	   99 D(13,10,2,16)   =     -0.111119     0.000006     0.048258    -0.062861
	  100 D(13,10,5,19)   =     -0.004300     0.000007     0.054744     0.050444
	  101 D(14,11,5,19)   =      0.011410     0.000004     0.032999     0.044408
	  102 D(15,1,2,16)    =      0.021741     0.000002     0.021565     0.043306
	  103 D(17,3,6,20)    =     -0.004683     0.000001     0.004683     0.000000
	  104 D(18,4,7,21)    =      0.009126     0.000001     0.003905     0.013031
	  105 R(4,14)         =      2.806426     0.025343     0.003807     2.810233
	 ---------------------------------------------------------------------------
	Successfully symmetrized geometry.
	 Forces used to impose fixed constraints are not included.
	  Forces zeroed: 59 

  ==> Convergence Check <==

  Measures of convergence in internal coordinates in au.
  Criteria marked as inactive (o), active & met (*), and active & unmet ( ).
  --------------------------------------------------------------------------------------------- ~
   Step     Total Energy     Delta E     MAX Force     RMS Force      MAX Disp      RMS Disp    ~
  --------------------------------------------------------------------------------------------- ~
    Convergence Criteria    1.00e-06 *    3.00e-04 *             o    1.20e-03 *             o  ~
  --------------------------------------------------------------------------------------------- ~
      1    -652.32303620   -6.52e+02      2.67e-02      7.00e-03 o    3.50e-02      9.75e-03 o  ~
  ---------------------------------------------------------------------------------------------

	Writing optimization data to binary file.
	Structure for next step:
	Cartesian Geometry (in Angstrom)
	    C    -1.3620935857   0.7723888465  -0.7716580875
	    C    -2.4368004233   1.3450261207  -0.1030650667
	    C     0.6055949307  -1.2380746355  -1.8767461895
	    C     2.1165943235  -0.1925764585  -0.3474719434
	    C    -1.4347977843   0.7289289128   2.0113242010
	    C     1.7102147446  -1.7810554944  -2.5130300993
	    C     3.1527072766  -0.7842719446  -1.0517861299
	    C    -0.3151448574   0.1744935226  -0.0647135753
	    C     0.8082895814  -0.4214850422  -0.7667351413
	    C    -2.4969389830   1.3353211573   1.3073030848
	    C    -0.3702784352   0.1645162116   1.3276831610
	    N     2.9812904415  -1.5746904408  -2.1266961870
	    O    -3.4840341064   1.8605654909   1.9315702694
	    F     0.6300135895  -0.4082583549   2.0276003194
	    H    -1.3417303513   0.7934450289  -1.8563500734
	    H    -3.2312213007   1.7994833010  -0.6835009670
	    H    -0.3907428183  -1.4482440429  -2.2430736246
	    H     2.3285884781   0.4327029011   0.5084260009
	    H    -1.4351931147   0.6957664179   3.0943023473
	    H     1.5900567834  -2.4194984918  -3.3808298095
	    H     4.1825973609  -0.6282444402  -0.7544240862
			--------------------------
			 OPTKING Finished Execution 
			--------------------------

    Structure for next step:
    Molecular point group: c1
    Full point group: C1

    Geometry (in Angstrom), charge = -1, multiplicity = 1:

    C           -1.359081066813     0.770204832440    -0.772149404257
    C           -2.433787904330     1.342842106610    -0.103556383365
    C            0.608607449623    -1.240258649600    -1.877237506175
    C            2.119606842391    -0.194760472574    -0.347963260072
    C           -1.431785265411     0.726744898788     2.010832884249
    C            1.713227263492    -1.783239508436    -2.513521416046
    C            3.155719795517    -0.786455958666    -1.052277446591
    C           -0.312132338438     0.172309508557    -0.065204892007
    C            0.811302100299    -0.423669056264    -0.767226458004
    C           -2.493926464109     1.333137143228     1.306811768083
    C           -0.367265916313     0.162332197576     1.327191844317
    N            2.984302960416    -1.576874454812    -2.127187503679
    O           -3.481021587522     1.858381476844     1.931078952689
    F            0.633026108417    -0.410442368929     2.027109002707
    H           -1.338717832372     0.791261014891    -1.856841390063
    H           -3.228208781739     1.797299286956    -0.683992283735
    H           -0.387730299402    -1.450428056909    -2.243564941312
    H            2.331600996990     0.430518887006     0.507934684164
    H           -1.432180595779     0.693582403824     3.093811030543
    H            1.593069302288    -2.421682505842    -3.381321126174
    H            4.185609879804    -0.630428454253    -0.754915402876

gradient() will perform analytic gradient computation.

*** tstart() called on gpu-1-7.local
*** at Sat Nov 11 18:56:21 2017

    SCF Algorithm Type (re)set to DF.

*** tstart() called on gpu-1-7.local
*** at Sat Nov 11 18:56:21 2017

   => Loading Basis Set <=

    Name: AUG-CC-PVTZ
    Role: ORBITAL
    Keyword: BASIS
    atoms 1-11  entry C          line   221 file /cbio/jclab/home/chayas/anaconda/envs/py35/share/psi4/basis/aug-cc-pvtz.gbs 
    atoms 12    entry N          line   267 file /cbio/jclab/home/chayas/anaconda/envs/py35/share/psi4/basis/aug-cc-pvtz.gbs 
    atoms 13    entry O          line   313 file /cbio/jclab/home/chayas/anaconda/envs/py35/share/psi4/basis/aug-cc-pvtz.gbs 
    atoms 14    entry F          line   359 file /cbio/jclab/home/chayas/anaconda/envs/py35/share/psi4/basis/aug-cc-pvtz.gbs 
    atoms 15-21 entry H          line    34 file /cbio/jclab/home/chayas/anaconda/envs/py35/share/psi4/basis/aug-cc-pvtz.gbs 


         ---------------------------------------------------------
                                   SCF
            by Justin Turney, Rob Parrish, and Andy Simmonett
                              RHF Reference
                        8 Threads,   4768 MiB Core
         ---------------------------------------------------------

  ==> Geometry <==

    Molecular point group: c1
    Full point group: C1

    Geometry (in Angstrom), charge = -1, multiplicity = 1:

       Center              X                  Y                   Z               Mass       
    ------------   -----------------  -----------------  -----------------  -----------------
           C         -1.359081066813     0.770204832440    -0.772149404257    12.000000000000
           C         -2.433787904330     1.342842106610    -0.103556383365    12.000000000000
           C          0.608607449623    -1.240258649600    -1.877237506175    12.000000000000
           C          2.119606842391    -0.194760472574    -0.347963260072    12.000000000000
           C         -1.431785265411     0.726744898788     2.010832884249    12.000000000000
           C          1.713227263492    -1.783239508436    -2.513521416046    12.000000000000
           C          3.155719795517    -0.786455958666    -1.052277446591    12.000000000000
           C         -0.312132338438     0.172309508557    -0.065204892007    12.000000000000
           C          0.811302100299    -0.423669056264    -0.767226458004    12.000000000000
           C         -2.493926464109     1.333137143228     1.306811768083    12.000000000000
           C         -0.367265916313     0.162332197576     1.327191844317    12.000000000000
           N          2.984302960416    -1.576874454812    -2.127187503679    14.003074004780
           O         -3.481021587522     1.858381476844     1.931078952689    15.994914619560
           F          0.633026108417    -0.410442368929     2.027109002707    18.998403224000
           H         -1.338717832372     0.791261014891    -1.856841390063     1.007825032070
           H         -3.228208781739     1.797299286956    -0.683992283735     1.007825032070
           H         -0.387730299402    -1.450428056909    -2.243564941312     1.007825032070
           H          2.331600996990     0.430518887006     0.507934684164     1.007825032070
           H         -1.432180595779     0.693582403824     3.093811030543     1.007825032070
           H          1.593069302288    -2.421682505842    -3.381321126174     1.007825032070
           H          4.185609879804    -0.630428454253    -0.754915402876     1.007825032070

  Running in c1 symmetry.

  Rotational constants: A =      0.06396  B =      0.01348  C =      0.01163 [cm^-1]
  Rotational constants: A =   1917.49918  B =    404.05935  C =    348.56563 [MHz]
  Nuclear repulsion =  800.940886664987715

  Charge       = -1
  Multiplicity = 1
  Electrons    = 98
  Nalpha       = 49
  Nbeta        = 49

  ==> Algorithm <==

  SCF Algorithm Type is DF.
  DIIS enabled.
  MOM disabled.
  Fractional occupation disabled.
  Guess Type is READ.
  Energy threshold   = 1.00e-10
  Density threshold  = 1.00e-10
  Integral threshold = 0.00e+00

  ==> Primary Basis <==

  Basis Set: AUG-CC-PVTZ
    Blend: AUG-CC-PVTZ
    Number of shells: 259
    Number of basis function: 805
    Number of Cartesian functions: 945
    Spherical Harmonics?: true
    Max angular momentum: 3

   => Loading Basis Set <=

    Name: (AUG-CC-PVTZ AUX)
    Role: JKFIT
    Keyword: DF_BASIS_SCF
    atoms 1-11  entry C          line   161 file /cbio/jclab/home/chayas/anaconda/envs/py35/share/psi4/basis/aug-cc-pvtz-jkfit.gbs 
    atoms 12    entry N          line   223 file /cbio/jclab/home/chayas/anaconda/envs/py35/share/psi4/basis/aug-cc-pvtz-jkfit.gbs 
    atoms 13    entry O          line   285 file /cbio/jclab/home/chayas/anaconda/envs/py35/share/psi4/basis/aug-cc-pvtz-jkfit.gbs 
    atoms 14    entry F          line   347 file /cbio/jclab/home/chayas/anaconda/envs/py35/share/psi4/basis/aug-cc-pvtz-jkfit.gbs 
    atoms 15-21 entry H          line    69 file /cbio/jclab/home/chayas/anaconda/envs/py35/share/psi4/basis/aug-cc-pvtz-jkfit.gbs 

  Reading orbitals from file 180, no projection.

  ==> Pre-Iterations <==

   -------------------------------------------------------
    Irrep   Nso     Nmo     Nalpha   Nbeta   Ndocc  Nsocc
   -------------------------------------------------------
     A        805     805       0       0       0       0
   -------------------------------------------------------
    Total     805     805      49      49      49       0
   -------------------------------------------------------

  ==> Integral Setup <==

  ==> DFJK: Density-Fitted J/K Matrices <==

    J tasked:                  Yes
    K tasked:                  Yes
    wK tasked:                  No
    OpenMP threads:              8
    Integrals threads:           8
    Memory (MB):              3576
    Algorithm:                Disk
    Integral Cache:           NONE
    Schwarz Cutoff:          1E-12
    Fitting Condition:       1E-12

   => Auxiliary Basis Set <=

  Basis Set: (AUG-CC-PVTZ AUX)
    Blend: AUG-CC-PVTZ-JKFIT
    Number of shells: 518
    Number of basis function: 1778
    Number of Cartesian functions: 2219
    Spherical Harmonics?: true
    Max angular momentum: 4

  Minimum eigenvalue in the overlap matrix is 8.0910510114E-07.
  Using Symmetric Orthogonalization.

  SCF Guess: Orbitals guess was supplied from a previous computation.

  ==> Iterations <==

                           Total Energy        Delta E     RMS |[F,P]|

   @DF-RHF iter   0:  -649.68865095493948   -6.49689e+02   4.49896e-04 
   @DF-RHF iter   1:  -649.61717619197407    7.14748e-02   8.04428e-05 
   @DF-RHF iter   2:  -649.61755778130225   -3.81589e-04   4.46989e-05 DIIS
   @DF-RHF iter   3:  -649.61773434251222   -1.76561e-04   8.66063e-06 DIIS
   @DF-RHF iter   4:  -649.61773982537977   -5.48287e-06   3.94846e-06 DIIS
   @DF-RHF iter   5:  -649.61774153104545   -1.70567e-06   1.56894e-06 DIIS
   @DF-RHF iter   6:  -649.61774189580058   -3.64755e-07   8.76977e-07 DIIS
   @DF-RHF iter   7:  -649.61774200755428   -1.11754e-07   3.05545e-07 DIIS
   @DF-RHF iter   8:  -649.61774203588243   -2.83281e-08   1.66148e-07 DIIS
   @DF-RHF iter   9:  -649.61774204005872   -4.17629e-09   4.09550e-08 DIIS
   @DF-RHF iter  10:  -649.61774204068786   -6.29143e-10   1.81029e-08 DIIS
   @DF-RHF iter  11:  -649.61774204073322   -4.53610e-11   5.64867e-09 DIIS
   @DF-RHF iter  12:  -649.61774204073436   -1.13687e-12   2.09942e-09 DIIS
   @DF-RHF iter  13:  -649.61774204072435    1.00044e-11   7.62922e-10 DIIS
   @DF-RHF iter  14:  -649.61774204073208   -7.73070e-12   2.83625e-10 DIIS
   @DF-RHF iter  15:  -649.61774204072628    5.79803e-12   1.44964e-10 DIIS
   @DF-RHF iter  16:  -649.61774204071980    6.48015e-12   5.21953e-11 DIIS

  ==> Post-Iterations <==

    Orbital Energies (a.u.)
    -----------------------

    Doubly Occupied:                                                      

       1A    -26.185303     2A    -20.309277     3A    -15.454075  
       4A    -11.191256     5A    -11.168478     6A    -11.166857  
       7A    -11.149070     8A    -11.131451     9A    -11.123678  
      10A    -11.121020    11A    -11.110141    12A    -11.084786  
      13A    -11.066214    14A    -11.066059    15A     -1.503559  
      16A     -1.145749    17A     -1.137467    18A     -1.024375  
      19A     -0.965943    20A     -0.925243    21A     -0.874951  
      22A     -0.848790    23A     -0.750950    24A     -0.739337  
      25A     -0.700965    26A     -0.676148    27A     -0.608236  
      28A     -0.581619    29A     -0.574573    30A     -0.563587  
      31A     -0.548260    32A     -0.535784    33A     -0.504082  
      34A     -0.488855    35A     -0.472743    36A     -0.461353  
      37A     -0.434907    38A     -0.419592    39A     -0.411329  
      40A     -0.383953    41A     -0.377008    42A     -0.363453  
      43A     -0.312018    44A     -0.309757    45A     -0.254342  
      46A     -0.242669    47A     -0.225329    48A     -0.203153  
      49A     -0.117249  

    Virtual:                                                              

      50A      0.098387    51A      0.100741    52A      0.115072  
      53A      0.120477    54A      0.124031    55A      0.128136  
      56A      0.132136    57A      0.154776    58A      0.166657  
      59A      0.173668    60A      0.179191    61A      0.183418  
      62A      0.186647    63A      0.187157    64A      0.189769  
      65A      0.197074    66A      0.198671    67A      0.204931  
      68A      0.206971    69A      0.213047    70A      0.213759  
      71A      0.218132    72A      0.221399    73A      0.226375  
      74A      0.228606    75A      0.231188    76A      0.234851  
      77A      0.237821    78A      0.241138    79A      0.247241  
      80A      0.253528    81A      0.255868    82A      0.260093  
      83A      0.263841    84A      0.266529    85A      0.275823  
      86A      0.276248    87A      0.288660    88A      0.293600  
      89A      0.298334    90A      0.312459    91A      0.313388  
      92A      0.318784    93A      0.321367    94A      0.322583  
      95A      0.326480    96A      0.328375    97A      0.330719  
      98A      0.333675    99A      0.336382   100A      0.344903  
     101A      0.348440   102A      0.351681   103A      0.362630  
     104A      0.364756   105A      0.366994   106A      0.373426  
     107A      0.382238   108A      0.384061   109A      0.386675  
     110A      0.390825   111A      0.399494   112A      0.403728  
     113A      0.408194   114A      0.410227   115A      0.415136  
     116A      0.419422   117A      0.421005   118A      0.423525  
     119A      0.430822   120A      0.437952   121A      0.440538  
     122A      0.446323   123A      0.453103   124A      0.458542  
     125A      0.460727   126A      0.467893   127A      0.472501  
     128A      0.474509   129A      0.482200   130A      0.486206  
     131A      0.492317   132A      0.501359   133A      0.506251  
     134A      0.510447   135A      0.514727   136A      0.518420  
     137A      0.532705   138A      0.535110   139A      0.539955  
     140A      0.542787   141A      0.549919   142A      0.556961  
     143A      0.559204   144A      0.562638   145A      0.564175  
     146A      0.564989   147A      0.572885   148A      0.575688  
     149A      0.578519   150A      0.584496   151A      0.586693  
     152A      0.587319   153A      0.596373   154A      0.597017  
     155A      0.600195   156A      0.602169   157A      0.603370  
     158A      0.607049   159A      0.611156   160A      0.620930  
     161A      0.623047   162A      0.626618   163A      0.631575  
     164A      0.632605   165A      0.633848   166A      0.640409  
     167A      0.643930   168A      0.645906   169A      0.653384  
     170A      0.655337   171A      0.658164   172A      0.667344  
     173A      0.676904   174A      0.683174   175A      0.685182  
     176A      0.694341   177A      0.697025   178A      0.702072  
     179A      0.705978   180A      0.707565   181A      0.713681  
     182A      0.715387   183A      0.729112   184A      0.731000  
     185A      0.733875   186A      0.749243   187A      0.751015  
     188A      0.758209   189A      0.770297   190A      0.773197  
     191A      0.783025   192A      0.787456   193A      0.795434  
     194A      0.802588   195A      0.803522   196A      0.814339  
     197A      0.814871   198A      0.818755   199A      0.825690  
     200A      0.830808   201A      0.841194   202A      0.847047  
     203A      0.850630   204A      0.855961   205A      0.859906  
     206A      0.862988   207A      0.867484   208A      0.874052  
     209A      0.877871   210A      0.880069   211A      0.882555  
     212A      0.887586   213A      0.900077   214A      0.912535  
     215A      0.916205   216A      0.923772   217A      0.930749  
     218A      0.945146   219A      0.949120   220A      0.956173  
     221A      0.965450   222A      0.975076   223A      0.978517  
     224A      0.981471   225A      0.983706   226A      0.984842  
     227A      0.995537   228A      1.001922   229A      1.004811  
     230A      1.009239   231A      1.011917   232A      1.016018  
     233A      1.019211   234A      1.028213   235A      1.032999  
     236A      1.038550   237A      1.041747   238A      1.042454  
     239A      1.050614   240A      1.053012   241A      1.061110  
     242A      1.062288   243A      1.071061   244A      1.075580  
     245A      1.078938   246A      1.083345   247A      1.090097  
     248A      1.091671   249A      1.094594   250A      1.102140  
     251A      1.106319   252A      1.111313   253A      1.117808  
     254A      1.123470   255A      1.128230   256A      1.133499  
     257A      1.136209   258A      1.142683   259A      1.143364  
     260A      1.149149   261A      1.150616   262A      1.159269  
     263A      1.165789   264A      1.168831   265A      1.175953  
     266A      1.177887   267A      1.178720   268A      1.184293  
     269A      1.186903   270A      1.189792   271A      1.195809  
     272A      1.199695   273A      1.203667   274A      1.217391  
     275A      1.220098   276A      1.224036   277A      1.226647  
     278A      1.229671   279A      1.237462   280A      1.249131  
     281A      1.254009   282A      1.255312   283A      1.262264  
     284A      1.266361   285A      1.277502   286A      1.281375  
     287A      1.284614   288A      1.289438   289A      1.290677  
     290A      1.295828   291A      1.306191   292A      1.309602  
     293A      1.314694   294A      1.316556   295A      1.320457  
     296A      1.326026   297A      1.331454   298A      1.333623  
     299A      1.336655   300A      1.349964   301A      1.354176  
     302A      1.364682   303A      1.369658   304A      1.373491  
     305A      1.383720   306A      1.386749   307A      1.392507  
     308A      1.395438   309A      1.402640   310A      1.409897  
     311A      1.415217   312A      1.420419   313A      1.428977  
     314A      1.434252   315A      1.439605   316A      1.455652  
     317A      1.459324   318A      1.468385   319A      1.472610  
     320A      1.484111   321A      1.488101   322A      1.493494  
     323A      1.502430   324A      1.506575   325A      1.509693  
     326A      1.519189   327A      1.526649   328A      1.531790  
     329A      1.546705   330A      1.557054   331A      1.565289  
     332A      1.570723   333A      1.580214   334A      1.590129  
     335A      1.596844   336A      1.598275   337A      1.607069  
     338A      1.612164   339A      1.624612   340A      1.628492  
     341A      1.639806   342A      1.651378   343A      1.656195  
     344A      1.666045   345A      1.686274   346A      1.689006  
     347A      1.693010   348A      1.702585   349A      1.709745  
     350A      1.721115   351A      1.726060   352A      1.737621  
     353A      1.744267   354A      1.746049   355A      1.758277  
     356A      1.762105   357A      1.771839   358A      1.773910  
[...]
	 B(2,1,15)        =         2.080371	     119.196505
	 B(2,10,5)        =         1.982328	     113.579007
	 B(2,10,13)       =         2.154599	     123.449433
	 B(3,6,12)        =         2.166248	     124.116852
	 B(3,6,20)        =         2.090708	     119.788725
	 B(3,9,4)         =         2.008660	     115.087751
	 B(3,9,8)         =         2.117263	     121.310234
	 B(4,7,12)        =         2.171822	     124.436251
	 B(4,7,21)        =         2.087428	     119.600841
	 B(4,9,8)         =         2.156613	     123.564842
	 B(5,10,13)       =         2.146252	     122.971204
	 B(5,11,8)        =         2.173584	     124.537188
	 B(5,11,14)       =         2.051567	     117.546103
	 B(6,3,9)         =         2.104517	     120.579917
	 B(6,3,17)        =         2.092112	     119.869212
	 B(6,12,7)        =         2.015510	     115.480201
	 B(7,4,9)         =         2.098985	     120.262957
	 B(7,4,18)        =         2.091953	     119.860066
	 B(8,1,15)        =         2.054819	     117.732450
	 B(8,11,14)       =         2.057180	     117.867730
	 B(9,3,17)        =         2.086527	     119.549184
	 B(9,4,18)        =         2.092141	     119.870857
	 B(9,8,11)        =         2.166791	     124.147970
	 B(10,2,16)       =         2.046062	     117.230714
	 B(10,5,11)       =         2.126038	     121.812984
	 B(10,5,19)       =         2.072855	     118.765860
	 B(11,5,19)       =         2.084262	     119.419436
	 B(12,6,20)       =         2.026068	     116.085121
	 B(12,7,21)       =         2.023925	     115.962349
	 D(1,2,10,5)      =         0.014949	       0.856508
	 D(1,2,10,13)     =        -3.130336	    -179.355024
	 D(1,8,9,3)       =        -0.778507	     -44.605158
	 D(1,8,9,4)       =         2.403715	     137.722725
	 D(1,8,11,5)      =         0.044760	       2.564562
	 D(1,8,11,14)     =         3.140729	     179.950542
	 D(2,1,8,9)       =        -3.060049	    -175.327888
	 D(2,1,8,11)      =        -0.025827	      -1.479797
	 D(2,10,5,11)     =         0.002749	       0.157479
	 D(2,10,5,19)     =        -3.130466	    -179.362463
	 D(3,6,12,7)      =        -0.001723	      -0.098741
	 D(3,9,4,7)       =         0.030051	       1.721814
	 D(3,9,4,18)      =        -3.127269	    -179.179333
	 D(3,9,8,11)      =         2.481310	     142.168595
	 D(4,7,12,6)      =        -0.008541	      -0.489340
	 D(4,9,3,6)       =        -0.039592	      -2.268429
	 D(4,9,3,17)      =         3.093744	     177.258473
	 D(4,9,8,11)      =        -0.619653	     -35.503521
	 D(5,10,2,16)     =        -3.111339	    -178.266592
	 D(5,11,8,9)      =         3.075325	     176.203130
	 D(6,3,9,8)       =         3.139381	     179.873272
	 D(6,12,7,21)     =         3.137837	     179.784795
	 D(7,4,9,8)       =         3.133317	     179.525840
	 D(7,12,6,20)     =        -3.123849	    -178.983373
	 D(8,1,2,10)      =        -0.002909	      -0.166673
	 D(8,1,2,16)      =         3.122945	     178.931548
	 D(8,9,3,17)      =        -0.010469	      -0.599826
	 D(8,9,4,18)      =        -0.024004	      -1.375307
	 D(8,11,5,10)     =        -0.034580	      -1.981269
	 D(8,11,5,19)     =         3.098581	     177.535617
	 D(9,3,6,12)      =         0.027138	       1.554878
	 D(9,3,6,20)      =        -3.134601	    -179.599409
	 D(9,4,7,12)      =        -0.006611	      -0.378805
	 D(9,4,7,21)      =         3.130034	     179.337730
	 D(9,8,1,15)      =         0.049974	       2.863279
	 D(9,8,11,14)     =        -0.111891	      -6.410890
	 D(10,2,1,15)     =        -3.112491	    -178.332597
	 D(10,5,11,14)    =        -3.130683	    -179.374949
	 D(11,5,10,13)    =        -3.135172	    -179.632141
	 D(11,8,1,15)     =         3.084195	     176.711370
	 D(12,6,3,17)     =        -3.106171	    -177.970514
	 D(12,7,4,18)     =        -3.132478	    -179.477755
	 D(13,10,2,16)    =         0.026562	       1.521876
	 D(13,10,5,19)    =         0.014799	       0.847917
	 D(14,11,5,19)    =         0.002477	       0.141937
	 D(15,1,2,16)     =         0.013363	       0.765624
	 D(17,3,6,20)     =         0.015275	       0.875199
	 D(18,4,7,21)     =         0.004167	       0.238780
	 R(4,14)          =         5.424366	       2.870451

	Current energy   :      -652.3343980581

	Energy change for the previous step:
		Projected    :         0.0000031903
		Actual       :        -0.0000032287

	Performing BFGS update.
	Previous computed or guess Hessian on step 1.
	Steps to be used in Hessian update: 13 12
	Adding user-defined constraint: Fragment 1; Coordinate 59:
		Value =    -0.778507; Fixed value    =    -0.785400
		Force =    -0.005687; Force constant =     0.825000
	Removing off-diagonal coupling between coordinate 59 and others.
	Taking RFO optimization step.
	Going to follow RFO solution 1.
	Rejecting RFO root 1 because normalization gives large value.
	Using RFO vector 2.
	Norm of target step-size    0.00371
	Projected energy change by RFO approximation:        -0.0000004503

	Back-transformation to cartesian coordinates...
	Successfully converged to displaced geometry.

	--- Internal Coordinate Step in ANG or DEG, aJ/ANG or AJ/DEG ---
	 ---------------------------------------------------------------------------
	   Coordinate                Previous        Force       Change         New 
	   ----------                --------       ------       ------       ------
	    1 R(1,2)          =      1.374272     0.000068     0.000001     1.374274
	    2 R(1,8)          =      1.406950    -0.000028    -0.000005     1.406944
	    3 R(1,15)         =      1.083180    -0.000017     0.000000     1.083181
	    4 R(2,10)         =      1.436688     0.000035     0.000013     1.436701
	    5 R(2,16)         =      1.080913     0.000004     0.000005     1.080918
	    6 R(3,6)          =      1.383410     0.000019     0.000006     1.383417
	    7 R(3,9)          =      1.399530     0.000008    -0.000001     1.399529
	    8 R(3,17)         =      1.080217    -0.000042    -0.000004     1.080214
	    9 R(4,7)          =      1.383701     0.000006    -0.000001     1.383700
	   10 R(4,9)          =      1.399221    -0.000037     0.000002     1.399223
	   11 R(4,18)         =      1.078202    -0.000003     0.000003     1.078205
	   12 R(5,10)         =      1.435339     0.000091     0.000024     1.435363
	   13 R(5,11)         =      1.366944     0.000032    -0.000002     1.366942
	   14 R(5,19)         =      1.079157     0.000007     0.000004     1.079161
	   15 R(6,12)         =      1.338493    -0.000048    -0.000010     1.338483
	   16 R(6,20)         =      1.082698    -0.000005     0.000001     1.082699
	   17 R(7,12)         =      1.338979     0.000031     0.000011     1.338990
	   18 R(7,21)         =      1.082534    -0.000026    -0.000006     1.082529
	   19 R(8,9)          =      1.443399     0.000128     0.000019     1.443417
	   20 R(8,11)         =      1.395428     0.000211     0.000046     1.395475
	   21 R(10,13)        =      1.261118    -0.000084    -0.000019     1.261099
	   22 R(11,14)        =      1.371691     0.000119     0.000033     1.371724
	   23 B(1,2,10)       =    122.605349     0.000001     0.002069   122.607418
	   24 B(1,2,16)       =    120.158124     0.000000     0.002486   120.160610
	   25 B(1,8,9)        =    121.166956     0.000001     0.001410   121.168366
	   26 B(1,8,11)       =    114.373760    -0.000001    -0.003777   114.369983
	   27 B(2,1,8)        =    123.046777     0.000000     0.001857   123.048634
	   28 B(2,1,15)       =    119.196505     0.000000    -0.000046   119.196459
	   29 B(2,10,5)       =    113.579007    -0.000000    -0.002903   113.576105
	   30 B(2,10,13)      =    123.449433     0.000000     0.001544   123.450978
	   31 B(3,6,12)       =    124.116852    -0.000000    -0.000914   124.115938
	   32 B(3,6,20)       =    119.788725    -0.000000    -0.001331   119.787394
	   33 B(3,9,4)        =    115.087751    -0.000000    -0.001448   115.086302
	   34 B(3,9,8)        =    121.310234     0.000000    -0.000975   121.309259
	   35 B(4,7,12)       =    124.436251    -0.000000    -0.000452   124.435799
	   36 B(4,7,21)       =    119.600841    -0.000000    -0.000287   119.600555
	   37 B(4,9,8)        =    123.564842    -0.000000     0.002057   123.566899
	   38 B(5,10,13)      =    122.971204     0.000000     0.001175   122.972379
	   39 B(5,11,8)       =    124.537188     0.000000     0.002237   124.539425
	   40 B(5,11,14)      =    117.546103    -0.000001    -0.004916   117.541188
	   41 B(6,3,9)        =    120.579917     0.000000     0.000833   120.580750
	   42 B(6,3,17)       =    119.869212     0.000000     0.002721   119.871933
	   43 B(6,12,7)       =    115.480201     0.000000     0.000193   115.480393
	   44 B(7,4,9)        =    120.262957     0.000000     0.000750   120.263707
	   45 B(7,4,18)       =    119.860066     0.000001     0.003359   119.863425
	   46 B(8,1,15)       =    117.732450    -0.000000    -0.002305   117.730146
	   47 B(8,11,14)      =    117.867730     0.000001     0.004945   117.872675
	   48 B(9,3,17)       =    119.549184    -0.000001    -0.003568   119.545615
	   49 B(9,4,18)       =    119.870857    -0.000001    -0.004036   119.866821
	   50 B(9,8,11)       =    124.147970     0.000000     0.002844   124.150815
	   51 B(10,2,16)      =    117.230714    -0.000001    -0.004718   117.225996
	   52 B(10,5,11)      =    121.812984     0.000000     0.000542   121.813526
	   53 B(10,5,19)      =    118.765860    -0.000000    -0.002494   118.763366
	   54 B(11,5,19)      =    119.419436     0.000000     0.001981   119.421417
	   55 B(12,6,20)      =    116.085121     0.000000     0.000760   116.085881
	   56 B(12,7,21)      =    115.962349     0.000000     0.000412   115.962761
	   57 D(1,2,10,5)     =      0.856508     0.000000     0.014923     0.871431
	   58 D(1,2,10,13)    =   -179.355024    -0.000000    -0.033749  -179.388774
	   59 D(1,8,9,3)      =    -44.605158     0.000001    -0.006456   -44.611614
	   60 D(1,8,9,4)      =    137.722725     0.000001     0.004998   137.727723
	   61 D(1,8,11,5)     =      2.564562    -0.000000    -0.002261     2.562301
	   62 D(1,8,11,14)    =    179.950542     0.000000     0.058759   180.009301
	   63 D(2,1,8,9)      =   -175.327888    -0.000000    -0.013516  -175.341404
	   64 D(2,1,8,11)     =     -1.479797     0.000000    -0.008657    -1.488455
	   65 D(2,10,5,11)    =      0.157479    -0.000000    -0.025320     0.132160
	   66 D(2,10,5,19)    =   -179.362463    -0.000000    -0.029413  -179.391876
	   67 D(3,6,12,7)     =     -0.098741    -0.000000    -0.022625    -0.121366
	   68 D(3,9,4,7)      =      1.721814    -0.000000    -0.003520     1.718294
	   69 D(3,9,4,18)     =   -179.179333    -0.000000     0.001918  -179.177416
	   70 D(3,9,8,11)     =    142.168595     0.000001    -0.011378   142.157218
	   71 D(4,7,12,6)     =     -0.489340    -0.000000    -0.019210    -0.508549
	   72 D(4,9,3,6)      =     -2.268429     0.000000    -0.034998    -2.303427
	   73 D(4,9,3,17)     =    177.258473     0.000000    -0.037091   177.221382
	   74 D(4,9,8,11)     =    -35.503521     0.000000     0.000076   -35.503445
	   75 D(5,10,2,16)    =   -178.266592     0.000000     0.027142  -178.239449
	   76 D(5,11,8,9)     =    176.203130     0.000000     0.002645   176.205775
	   77 D(6,3,9,8)      =    179.873272    -0.000000    -0.024538   179.848734
	   78 D(6,12,7,21)    =    179.784795     0.000001     0.051592   179.836387
	   79 D(7,4,9,8)      =    179.525840     0.000000    -0.014321   179.511519
	   80 D(7,12,6,20)    =   -178.983373     0.000000     0.063109  -178.920264
	   81 D(8,1,2,10)     =     -0.166673    -0.000000     0.001738    -0.164935
	   82 D(8,1,2,16)     =    178.931548    -0.000000    -0.010889   178.920658
	   83 D(8,9,3,17)     =     -0.599826    -0.000000    -0.026630    -0.626456
	   84 D(8,9,4,18)     =     -1.375307     0.000000    -0.008884    -1.384191
	   85 D(8,11,5,10)    =     -1.981269     0.000000     0.020290    -1.960979
	   86 D(8,11,5,19)    =    177.535617     0.000000     0.024389   177.560006
	   87 D(9,3,6,12)     =      1.554878     0.000000     0.051159     1.606037
	   88 D(9,3,6,20)     =   -179.599409    -0.000000    -0.037542  -179.636952
	   89 D(9,4,7,12)     =     -0.378805     0.000000     0.032404    -0.346400
	   90 D(9,4,7,21)     =    179.337730    -0.000000    -0.040805   179.296925
	   91 D(9,8,1,15)     =      2.863279    -0.000000    -0.031793     2.831486
	   92 D(9,8,11,14)    =     -6.410890     0.000001     0.063664    -6.347225
	   93 D(10,2,1,15)    =   -178.332597     0.000000     0.020309  -178.312288
	   94 D(10,5,11,14)   =   -179.374949    -0.000000    -0.040780  -179.415729
	   95 D(11,5,10,13)   =   -179.632141     0.000000     0.023087  -179.609054
	   96 D(11,8,1,15)    =    176.711370     0.000000    -0.026934   176.684435
	   97 D(12,6,3,17)    =   -177.970514     0.000000     0.053288  -177.917226
	   98 D(12,7,4,18)    =   -179.477755     0.000000     0.027034  -179.450721
	   99 D(13,10,2,16)   =      1.521876    -0.000000    -0.021530     1.500346
	  100 D(13,10,5,19)   =      0.847917     0.000000     0.018993     0.866910
	  101 D(14,11,5,19)   =      0.141937    -0.000000    -0.036681     0.105255
	  102 D(15,1,2,16)    =      0.765624    -0.000000     0.007681     0.773305
	  103 D(17,3,6,20)    =      0.875199    -0.000000    -0.035413     0.839786
	  104 D(18,4,7,21)    =      0.238780    -0.000000    -0.046176     0.192604
	  105 R(4,14)         =      2.870451     0.000079    -0.000136     2.870315
	 ---------------------------------------------------------------------------
	Successfully symmetrized geometry.
	 Forces used to impose fixed constraints are not included.
	  Forces zeroed: 59 

  ==> Convergence Check <==

  Measures of convergence in internal coordinates in au.
  Criteria marked as inactive (o), active & met (*), and active & unmet ( ).
  ---------------------------------------------------------------------------------------------
   Step     Total Energy     Delta E     MAX Force     RMS Force      MAX Disp      RMS Disp   
  ---------------------------------------------------------------------------------------------
    Convergence Criteria    1.00e-06 *    3.00e-04 *             o    1.20e-03 *             o
  ---------------------------------------------------------------------------------------------
     14    -652.33439806   -3.23e-06      4.90e-05 *    1.31e-05 o    1.11e-03 *    3.62e-04 o  ~
  ---------------------------------------------------------------------------------------------


  **** Optimization is complete! (in 14 steps) ****

  ==> Optimization Summary <==

  Measures of convergence in internal coordinates in au.
  --------------------------------------------------------------------------------------------------------------- ~
   Step         Total Energy             Delta E       MAX Force       RMS Force        MAX Disp        RMS Disp  ~
  --------------------------------------------------------------------------------------------------------------- ~
      1    -652.323036199930   -652.323036199930      0.02673241      0.00699812      0.03500534      0.00975201  ~
      2    -652.328794925398     -0.005758725468      0.01552422      0.00444029      0.03473047      0.00975575  ~
      3    -652.332245328036     -0.003450402638      0.00816080      0.00234526      0.02982464      0.00977836  ~
      4    -652.333782901520     -0.001537573484      0.00223768      0.00081209      0.04681903      0.00982529  ~
      5    -652.334233271427     -0.000450369907      0.00123305      0.00031467      0.05037656      0.00982734  ~
      6    -652.334414808849     -0.000181537422      0.00072257      0.00019316      0.02814779      0.00613425  ~
      7    -652.334452402123     -0.000037593274      0.00096141      0.00015546      0.00560664      0.00157740  ~
      8    -652.334429001180      0.000023400942      0.00044274      0.00008272      0.00816012      0.00195794  ~
      9    -652.334416230147      0.000012771034      0.00020935      0.00006149      0.00708955      0.00176457  ~
     10    -652.334414136389      0.000002093757      0.00016523      0.00004108      0.00732466      0.00185804  ~
     11    -652.334410495830      0.000003640559      0.00022254      0.00006542      0.01586606      0.00453336  ~
     12    -652.334387323950      0.000023171880      0.00055471      0.00014766      0.01453667      0.00406655  ~
     13    -652.334394829309     -0.000007505359      0.00021716      0.00005158      0.00336108      0.00100557  ~
     14    -652.334398058054     -0.000003228745      0.00008027      0.00001524      0.00111116      0.00036209  ~
  --------------------------------------------------------------------------------------------------------------- ~

	Writing optimization data to binary file.
	Final energy is   -652.3343980580536
	Final (previous) structure:
	Cartesian Geometry (in Angstrom)
	    C    -1.3891922190   0.6897694142  -0.7395019144
	    C    -2.4436116311   1.2981662470  -0.1017893212
	    C     0.6533351578  -1.2344424312  -1.9048657362
	    C     2.1436651778  -0.2714882035  -0.3464188059
	    C    -1.4330369393   0.7756887648   2.0147615566
	    C     1.7523404645  -1.7420004952  -2.5744898994
	    C     3.1806363329  -0.8280974498  -1.0740902872
	    C    -0.3168025960   0.0935767254  -0.0509947620
	    C     0.8185165450  -0.4462332264  -0.7602589135
	    C    -2.5429248517   1.3745703078   1.3294237320
	    C    -0.3946673613   0.1988974600   1.3382727656
	    N     3.0196534510  -1.5576345337  -2.1852723335
	    O    -3.5086236465   1.9183955670   1.9311694777
	    F     0.6143876788  -0.3592012782   2.0811528823
	    H    -1.3564997486   0.6877514047  -1.8221868258
	    H    -3.2349380062   1.7569914257  -0.6776845690
	    H    -0.3424238311  -1.4531233287  -2.2619545086
	    H     2.3586024778   0.3113371277   0.5348504796
	    H    -1.4271160195   0.7769254718   3.0939012743
	    H     1.6099509813  -2.3449135215  -3.4624397919
	    H     4.2024834755  -0.6771324068  -0.7501791458
	Saving final (previous) structure.
			--------------------------
			 OPTKING Finished Execution 
			--------------------------

    Final optimized geometry and variables:
    Molecular point group: c1
    Full point group: C1

    Geometry (in Angstrom), charge = -1, multiplicity = 1:

    C           -1.389192218961     0.689769414212    -0.739501914432
    C           -2.443611631085     1.298166246996    -0.101789321152
    C            0.653335157814    -1.234442431168    -1.904865736181
    C            2.143665177764    -0.271488203504    -0.346418805935
    C           -1.433036939258     0.775688764829     2.014761556601
    C            1.752340464525    -1.742000495199    -2.574489899400
    C            3.180636332877    -0.828097449768    -1.074090287179
    C           -0.316802595955     0.093576725375    -0.050994761993
    C            0.818516544986    -0.446233226382    -0.760258913503
    C           -2.542924851704     1.374570307782     1.329423731953
    C           -0.394667361321     0.198897459967     1.338272765628
    N            3.019653450978    -1.557634533653    -2.185272333512
    O           -3.508623646543     1.918395567016     1.931169477726
    F            0.614387678818    -0.359201278217     2.081152882298
    H           -1.356499748560     0.687751404668    -1.822186825761
    H           -3.234938006229     1.756991425744    -0.677684568959
    H           -0.342423831087    -1.453123328736    -2.261954508599
    H            2.358602477811     0.311337127744     0.534850479581
    H           -1.427116019473     0.776925471769     3.093901274302
    H            1.609950981277    -2.344913521550    -3.462439791870
    H            4.202483475505    -0.677132406822    -0.750179145779

	Cleaning optimization helper files.

*** Psi4 exiting successfully. Buy a developer a beer!
