
    -----------------------------------------------------------------------
          Psi4: An Open-Source Ab Initio Electronic Structure Package
                               Psi4 1.1 release

                         Git: Rev {HEAD} add49b9 


    R. M. Parrish, L. A. Burns, D. G. A. Smith, A. C. Simmonett,
    A. E. DePrince III, E. G. Hohenstein, U. Bozkaya, A. Yu. Sokolov,
    R. Di Remigio, R. M. Richard, J. F. Gonthier, A. M. James,
    H. R. McAlexander, A. Kumar, M. Saitow, X. Wang, B. P. Pritchard,
    P. Verma, H. F. Schaefer III, K. Patkowski, R. A. King, E. F. Valeev,
    F. A. Evangelista, J. M. Turney, T. D. Crawford, and C. D. Sherrill,
    J. Chem. Theory Comput. in press (2017).
    (doi: 10.1021/acs.jctc.7b00174)

    -----------------------------------------------------------------------


    Psi4 started on: Saturday, 11 November 2017 06:16PM

    Process ID:  28324
    PSIDATADIR: /cbio/jclab/home/chayas/anaconda/envs/py35/share/psi4
    Memory:     500.0 MiB
    Threads:    8
    
  ==> Input File <==

--------------------------------------------------------------------------

memory 5 Gb

molecule phepyrFOH_cation {
  symmetry C1
  1 1 
  C      1.885   -1.036   -0.112
  C      0.807   -0.463   0.561
  C      4.830   -1.443   -0.930
  C      4.321   -3.578   0.063
  C      1.800   -1.079   2.676
  C      5.894   -2.040   -1.592
  C      5.398   -4.120   -0.624
  C      2.921   -1.631   0.608
  C      4.038   -2.225   -0.095
  C      0.764   -0.484   1.955
  C      2.878   -1.652   2.002
  N      6.144   -3.345   -1.422
  O      -0.289   0.076   2.612
  F      3.866   -2.220   2.709
  H      1.904   -1.012   -1.199
  H      0.002   -0.002   -0.006
  H      4.632   -0.385   -1.072
  H      3.719   -4.212   0.708
  H      1.772   -1.099   3.762
  H      6.561   -1.511   -2.259
  H      5.691   -5.159   -0.561
  H      6.930   -3.764   -1.918
  H      -0.175   -0.018   3.571
  units Angstrom
}

dih_string = "1 8 9 3 60"
set optking fixed_dihedral = $dih_string

optimize('MP2/aug-cc-PVTZ')
--------------------------------------------------------------------------

  Memory set to   4.657 GiB by Python driver.
gradient() will perform analytic gradient computation.

*** tstart() called on gpu-1-17.local
*** at Sat Nov 11 18:16:21 2017

    SCF Algorithm Type (re)set to DF.

*** tstart() called on gpu-1-17.local
*** at Sat Nov 11 18:16:21 2017

   => Loading Basis Set <=

    Name: AUG-CC-PVTZ
    Role: ORBITAL
    Keyword: BASIS
    atoms 1-11  entry C          line   221 file /cbio/jclab/home/chayas/anaconda/envs/py35/share/psi4/basis/aug-cc-pvtz.gbs 
    atoms 12    entry N          line   267 file /cbio/jclab/home/chayas/anaconda/envs/py35/share/psi4/basis/aug-cc-pvtz.gbs 
    atoms 13    entry O          line   313 file /cbio/jclab/home/chayas/anaconda/envs/py35/share/psi4/basis/aug-cc-pvtz.gbs 
    atoms 14    entry F          line   359 file /cbio/jclab/home/chayas/anaconda/envs/py35/share/psi4/basis/aug-cc-pvtz.gbs 
    atoms 15-23 entry H          line    34 file /cbio/jclab/home/chayas/anaconda/envs/py35/share/psi4/basis/aug-cc-pvtz.gbs 


         ---------------------------------------------------------
                                   SCF
            by Justin Turney, Rob Parrish, and Andy Simmonett
                              RHF Reference
                        8 Threads,   4768 MiB Core
         ---------------------------------------------------------

  ==> Geometry <==

    Molecular point group: c1
    Full point group: C1

    Geometry (in Angstrom), charge = 1, multiplicity = 1:

       Center              X                  Y                   Z               Mass       
    ------------   -----------------  -----------------  -----------------  -----------------
           C         -1.337924706937     0.763942896639    -0.788136163608    12.000000000000
           C         -2.415924706937     1.336942896639    -0.115136163608    12.000000000000
           C          1.607075293063     0.356942896639    -1.606136163608    12.000000000000
           C          1.098075293063    -1.778057103361    -0.613136163608    12.000000000000
           C         -1.422924706937     0.720942896639     1.999863836392    12.000000000000
           C          2.671075293063    -0.240057103361    -2.268136163608    12.000000000000
           C          2.175075293063    -2.320057103361    -1.300136163608    12.000000000000
           C         -0.301924706937     0.168942896639    -0.068136163608    12.000000000000
           C          0.815075293063    -0.425057103361    -0.771136163608    12.000000000000
           C         -2.458924706937     1.315942896639     1.278863836392    12.000000000000
           C         -0.344924706937     0.147942896639     1.325863836392    12.000000000000
           N          2.921075293063    -1.545057103361    -2.098136163608    14.003074004780
           O         -3.511924706937     1.875942896639     1.935863836392    15.994914619560
           F          0.643075293063    -0.420057103361     2.032863836392    18.998403224000
           H         -1.318924706937     0.787942896639    -1.875136163608     1.007825032070
           H         -3.220924706937     1.797942896639    -0.682136163608     1.007825032070
           H          1.409075293063     1.414942896639    -1.748136163608     1.007825032070
           H          0.496075293063    -2.412057103360     0.031863836392     1.007825032070
           H         -1.450924706937     0.700942896639     3.085863836392     1.007825032070
           H          3.338075293063     0.288942896639    -2.935136163608     1.007825032070
           H          2.468075293063    -3.359057103361    -1.237136163608     1.007825032070
           H          3.707075293063    -1.964057103360    -2.594136163608     1.007825032070
           H         -3.397924706937     1.781942896639     2.894863836392     1.007825032070

  Running in c1 symmetry.

  Rotational constants: A =      0.06291  B =      0.01289  C =      0.01150 [cm^-1]
  Rotational constants: A =   1886.00830  B =    386.37885  C =    344.77968 [MHz]
  Nuclear repulsion =  829.464363116682080

  Charge       = 1
  Multiplicity = 1
  Electrons    = 98
  Nalpha       = 49
  Nbeta        = 49

  ==> Algorithm <==

  SCF Algorithm Type is DF.
  DIIS enabled.
  MOM disabled.
  Fractional occupation disabled.
  Guess Type is SAD.
  Energy threshold   = 1.00e-10
  Density threshold  = 1.00e-10
  Integral threshold = 0.00e+00

  ==> Primary Basis <==

  Basis Set: AUG-CC-PVTZ
    Blend: AUG-CC-PVTZ
    Number of shells: 277
    Number of basis function: 851
    Number of Cartesian functions: 995
    Spherical Harmonics?: true
    Max angular momentum: 3

   => Loading Basis Set <=

    Name: (AUG-CC-PVTZ AUX)
    Role: JKFIT
    Keyword: DF_BASIS_SCF
    atoms 1-11  entry C          line   161 file /cbio/jclab/home/chayas/anaconda/envs/py35/share/psi4/basis/aug-cc-pvtz-jkfit.gbs 
    atoms 12    entry N          line   223 file /cbio/jclab/home/chayas/anaconda/envs/py35/share/psi4/basis/aug-cc-pvtz-jkfit.gbs 
    atoms 13    entry O          line   285 file /cbio/jclab/home/chayas/anaconda/envs/py35/share/psi4/basis/aug-cc-pvtz-jkfit.gbs 
    atoms 14    entry F          line   347 file /cbio/jclab/home/chayas/anaconda/envs/py35/share/psi4/basis/aug-cc-pvtz-jkfit.gbs 
    atoms 15-23 entry H          line    69 file /cbio/jclab/home/chayas/anaconda/envs/py35/share/psi4/basis/aug-cc-pvtz-jkfit.gbs 

  ==> Pre-Iterations <==

   -------------------------------------------------------
    Irrep   Nso     Nmo     Nalpha   Nbeta   Ndocc  Nsocc
   -------------------------------------------------------
     A        851     851       0       0       0       0
   -------------------------------------------------------
    Total     851     851      49      49      49       0
   -------------------------------------------------------

  ==> Integral Setup <==

  ==> DFJK: Density-Fitted J/K Matrices <==

    J tasked:                  Yes
    K tasked:                  Yes
    wK tasked:                  No
    OpenMP threads:              8
    Integrals threads:           8
    Memory (MB):              3576
    Algorithm:                Disk
    Integral Cache:           NONE
    Schwarz Cutoff:          1E-12
    Fitting Condition:       1E-12

   => Auxiliary Basis Set <=

  Basis Set: (AUG-CC-PVTZ AUX)
    Blend: AUG-CC-PVTZ-JKFIT
    Number of shells: 546
    Number of basis function: 1870
    Number of Cartesian functions: 2329
    Spherical Harmonics?: true
    Max angular momentum: 4

  Minimum eigenvalue in the overlap matrix is 6.8855768437E-07.
  Using Symmetric Orthogonalization.

  SCF Guess: Superposition of Atomic Densities via on-the-fly atomic UHF.

  ==> Iterations <==

                           Total Energy        Delta E     RMS |[F,P]|

   @DF-RHF iter   0:  -653.99505460002797   -6.53995e+02   2.14564e-02 
   @DF-RHF iter   1:  -650.14128892468000    3.85377e+00   2.32841e-03 
   @DF-RHF iter   2:  -650.45946922108647   -3.18180e-01   9.50749e-04 DIIS
   @DF-RHF iter   3:  -650.53910662867429   -7.96374e-02   3.53674e-04 DIIS
   @DF-RHF iter   4:  -650.55660641148711   -1.74998e-02   1.37894e-04 DIIS
   @DF-RHF iter   5:  -650.55895687278667   -2.35046e-03   5.52844e-05 DIIS
   @DF-RHF iter   6:  -650.55945566180571   -4.98789e-04   2.41448e-05 DIIS
   @DF-RHF iter   7:  -650.55953211486542   -7.64531e-05   7.22535e-06 DIIS
   @DF-RHF iter   8:  -650.55953945599981   -7.34113e-06   1.79735e-06 DIIS
   @DF-RHF iter   9:  -650.55954046794318   -1.01194e-06   1.06498e-06 DIIS
   @DF-RHF iter  10:  -650.55954068306937   -2.15126e-07   4.96489e-07 DIIS
   @DF-RHF iter  11:  -650.55954073510566   -5.20363e-08   2.00001e-07 DIIS
   @DF-RHF iter  12:  -650.55954074339172   -8.28607e-09   8.90145e-08 DIIS
   @DF-RHF iter  13:  -650.55954074489443   -1.50271e-09   3.88019e-08 DIIS
   @DF-RHF iter  14:  -650.55954074519116   -2.96723e-10   1.07651e-08 DIIS
   @DF-RHF iter  15:  -650.55954074518331    7.84439e-12   4.33666e-09 DIIS
   @DF-RHF iter  16:  -650.55954074522037   -3.70619e-11   1.81748e-09 DIIS
   @DF-RHF iter  17:  -650.55954074520309    1.72804e-11   6.93315e-10 DIIS
   @DF-RHF iter  18:  -650.55954074522242   -1.93268e-11   3.42933e-10 DIIS
   @DF-RHF iter  19:  -650.55954074522072    1.70530e-12   1.71668e-10 DIIS
   @DF-RHF iter  20:  -650.55954074523015   -9.43601e-12   7.03772e-11 DIIS

  ==> Post-Iterations <==

    Orbital Energies (a.u.)
    -----------------------

    Doubly Occupied:                                                      

       1A    -26.444619     2A    -20.705319     3A    -15.843527  
       4A    -11.490134     5A    -11.488653     6A    -11.469438  
       7A    -11.451690     8A    -11.438238     9A    -11.421837  
      10A    -11.420672    11A    -11.384389    12A    -11.377899  
      13A    -11.361435    14A    -11.353918    15A     -1.762795  
      16A     -1.519945    17A     -1.518755    18A     -1.325261  
      19A     -1.270884    20A     -1.242812    21A     -1.163886  
      22A     -1.151933    23A     -1.072869    24A     -1.061484  
      25A     -0.991154    26A     -0.969267    27A     -0.963021  
      28A     -0.890173    29A     -0.873931    30A     -0.859447  
      31A     -0.856331    32A     -0.828849    33A     -0.821035  
      34A     -0.806921    35A     -0.798708    36A     -0.780759  
      37A     -0.757885    38A     -0.748439    39A     -0.727591  
      40A     -0.717114    41A     -0.705170    42A     -0.687587  
      43A     -0.653806    44A     -0.644862    45A     -0.619093  
      46A     -0.578239    47A     -0.540564    48A     -0.470599  
      49A     -0.446011  

    Virtual:                                                              

      50A     -0.105327    51A     -0.086705    52A     -0.067241  
      53A     -0.062988    54A     -0.058399    55A     -0.050453  
      56A     -0.041941    57A     -0.039929    58A     -0.034614  
      59A     -0.029923    60A     -0.024667    61A     -0.018384  
      62A     -0.013041    63A     -0.010751    64A     -0.006640  
      65A     -0.001893    66A      0.001255    67A      0.008253  
      68A      0.009170    69A      0.013074    70A      0.016452  
      71A      0.018782    72A      0.024442    73A      0.025914  
      74A      0.031087    75A      0.033041    76A      0.034331  
      77A      0.037938    78A      0.040520    79A      0.042068  
      80A      0.047378    81A      0.051594    82A      0.054955  
      83A      0.061181    84A      0.064919    85A      0.067065  
      86A      0.070325    87A      0.078065    88A      0.080218  
      89A      0.083068    90A      0.086777    91A      0.091931  
      92A      0.095601    93A      0.101426    94A      0.107050  
      95A      0.111347    96A      0.116606    97A      0.117727  
      98A      0.124035    99A      0.129395   100A      0.133012  
     101A      0.136171   102A      0.137449   103A      0.140742  
     104A      0.142821   105A      0.151332   106A      0.155829  
     107A      0.158373   108A      0.161246   109A      0.164552  
     110A      0.167156   111A      0.169081   112A      0.172845  
     113A      0.175796   114A      0.180062   115A      0.184321  
     116A      0.189323   117A      0.196362   118A      0.197642  
     119A      0.198843   120A      0.206722   121A      0.209276  
     122A      0.210268   123A      0.216037   124A      0.221104  
     125A      0.222925   126A      0.223853   127A      0.228571  
     128A      0.233241   129A      0.236443   130A      0.241183  
     131A      0.244470   132A      0.249261   133A      0.252661  
     134A      0.254413   135A      0.259964   136A      0.268429  
     137A      0.268986   138A      0.273650   139A      0.280140  
     140A      0.280835   141A      0.284382   142A      0.292674  
     143A      0.294210   144A      0.297288   145A      0.305262  
     146A      0.312564   147A      0.314857   148A      0.318640  
     149A      0.322253   150A      0.325248   151A      0.328105  
     152A      0.328629   153A      0.333136   154A      0.336048  
     155A      0.340834   156A      0.343816   157A      0.344679  
     158A      0.348968   159A      0.351127   160A      0.353922  
     161A      0.360473   162A      0.364008   163A      0.369879  
     164A      0.371156   165A      0.373898   166A      0.378606  
     167A      0.380555   168A      0.381521   169A      0.389234  
     170A      0.391094   171A      0.391362   172A      0.402290  
     173A      0.403537   174A      0.405603   175A      0.406839  
     176A      0.413004   177A      0.418942   178A      0.423772  
     179A      0.425283   180A      0.428159   181A      0.430233  
     182A      0.434420   183A      0.439534   184A      0.444490  
     185A      0.451991   186A      0.454470   187A      0.458995  
     188A      0.464750   189A      0.470764   190A      0.477310  
     191A      0.479979   192A      0.484365   193A      0.488684  
     194A      0.492552   195A      0.505450   196A      0.507752  
     197A      0.519149   198A      0.520550   199A      0.525894  
     200A      0.536558   201A      0.539998   202A      0.543625  
     203A      0.556342   204A      0.561477   205A      0.563306  
     206A      0.569457   207A      0.570950   208A      0.575460  
     209A      0.580613   210A      0.590270   211A      0.593179  
     212A      0.596004   213A      0.601497   214A      0.604598  
     215A      0.610317   216A      0.615638   217A      0.617411  
     218A      0.621054   219A      0.628510   220A      0.633781  
     221A      0.637782   222A      0.638625   223A      0.645942  
     224A      0.660144   225A      0.666522   226A      0.673468  
     227A      0.682154   228A      0.690911   229A      0.691645  
     230A      0.698784   231A      0.702060   232A      0.709336  
     233A      0.713319   234A      0.718044   235A      0.725538  
     236A      0.730129   237A      0.735357   238A      0.737976  
     239A      0.744867   240A      0.751390   241A      0.755926  
     242A      0.760764   243A      0.764195   244A      0.766988  
     245A      0.770506   246A      0.773664   247A      0.780086  
     248A      0.783058   249A      0.786354   250A      0.787717  
     251A      0.795875   252A      0.800974   253A      0.805128  
     254A      0.808264   255A      0.812829   256A      0.817185  
     257A      0.822711   258A      0.828392   259A      0.831465  
     260A      0.837039   261A      0.839585   262A      0.844313  
     263A      0.853895   264A      0.857444   265A      0.861564  
     266A      0.864153   267A      0.870043   268A      0.879365  
     269A      0.881166   270A      0.885464   271A      0.894467  
     272A      0.896336   273A      0.904084   274A      0.908567  
     275A      0.914166   276A      0.914785   277A      0.920271  
     278A      0.924694   279A      0.928560   280A      0.933234  
     281A      0.935476   282A      0.941380   283A      0.942944  
     284A      0.951777   285A      0.955038   286A      0.959676  
     287A      0.966671   288A      0.970634   289A      0.973460  
     290A      0.979505   291A      0.984132   292A      0.986343  
     293A      0.987306   294A      0.989283   295A      0.996162  
     296A      0.999127   297A      1.004217   298A      1.010717  
     299A      1.014127   300A      1.021052   301A      1.023997  
     302A      1.025840   303A      1.031581   304A      1.039148  
     305A      1.042378   306A      1.048627   307A      1.053414  
     308A      1.062680   309A      1.065543   310A      1.070128  
     311A      1.074087   312A      1.081925   313A      1.086624  
     314A      1.087249   315A      1.092499   316A      1.105295  
     317A      1.105900   318A      1.108105   319A      1.116205  
     320A      1.123459   321A      1.125524   322A      1.131572  
     323A      1.135483   324A      1.139666   325A      1.143719  
     326A      1.150793   327A      1.154305   328A      1.162889  
     329A      1.168307   330A      1.178286   331A      1.187093  
     332A      1.189163   333A      1.195170   334A      1.208211  
     335A      1.209313   336A      1.218683   337A      1.226674  
     338A      1.235467   339A      1.237507   340A      1.244873  
     341A      1.246805   342A      1.250974   343A      1.258990  
     344A      1.268985   345A      1.274565   346A      1.276864  
     347A      1.278551   348A      1.291037   349A      1.293170  
     350A      1.300913   351A      1.311620   352A      1.317980  
     353A      1.321560   354A      1.330411   355A      1.335351  
     356A      1.344478   357A      1.347482   358A      1.355635  
     359A      1.365730   360A      1.377953   361A      1.381375  
     362A      1.387577   363A      1.389077   364A      1.394057  
     365A      1.405245   366A      1.408368   367A      1.420316  
     368A      1.423201   369A      1.436440   370A      1.438883  
     371A      1.445252   372A      1.450504   373A      1.460442  
     374A      1.471570   375A      1.474376   376A      1.489858  
     377A      1.500202   378A      1.502586   379A      1.504637  
     380A      1.510183   381A      1.517011   382A      1.525013  
     383A      1.530308   384A      1.534071   385A      1.539280  
     386A      1.542960   387A      1.554189   388A      1.560552  
     389A      1.571046   390A      1.581111   391A      1.587870  
     392A      1.594069   393A      1.599522   394A      1.613210  
     395A      1.617385   396A      1.630314   397A      1.636463  
     398A      1.645588   399A      1.657089   400A      1.660308  
     401A      1.671861   402A      1.677418   403A      1.682217  
     404A      1.687492   405A      1.694155   406A      1.707670  
     407A      1.719854   408A      1.723804   409A      1.724830  
     410A      1.732315   411A      1.741295   412A      1.749641  
     413A      1.750883   414A      1.762143   415A      1.772737  
     416A      1.785629   417A      1.787643   418A      1.797916  
     419A      1.804960   420A      1.810740   421A      1.815298  
     422A      1.826239   423A      1.829017   424A      1.834056  
     425A      1.840492   426A      1.847234   427A      1.852546  
     428A      1.865878   429A      1.870476   430A      1.882751  
     431A      1.888198   432A      1.898197   433A      1.899586  
     434A      1.908780   435A      1.918787   436A      1.922001  
     437A      1.935551   438A      1.939019   439A      1.944224  
     440A      1.956689   441A      1.961345   442A      1.973929  
     443A      1.983169   444A      1.992401   445A      1.997375  
     446A      2.004193   447A      2.020489   448A      2.028499  
     449A      2.035662   450A      2.044855   451A      2.053745  
     452A      2.056715   453A      2.065588   454A      2.066022  
     455A      2.070960   456A      2.079187   457A      2.087704  
     458A      2.098287   459A      2.117218   460A      2.129766  
     461A      2.132623   462A      2.146028   463A      2.154941  
     464A      2.174049   465A      2.180772   466A      2.188752  
     467A      2.196223   468A      2.205582   469A      2.213495  
     470A      2.223192   471A      2.232711   472A      2.241980  
     473A      2.254693   474A      2.261813   475A      2.273858  
     476A      2.276502   477A      2.295611   478A      2.301315  
     479A      2.302534   480A      2.312978   481A      2.325515  
     482A      2.337153   483A      2.360235   484A      2.368482  
     485A      2.369195   486A      2.390554   487A      2.399121  
     488A      2.409192   489A      2.411716   490A      2.419142  
     491A      2.436200   492A      2.440957   493A      2.472373  
     494A      2.475258   495A      2.487117   496A      2.496463  
     497A      2.512208   498A      2.525470   499A      2.534876  
     500A      2.542692   501A      2.561226   502A      2.568294  
     503A      2.577035   504A      2.594396   505A      2.606476  
     506A      2.617781   507A      2.632867   508A      2.636682  
     509A      2.658535   510A      2.711412   511A      2.714888  
     512A      2.720517   513A      2.744413   514A      2.759580  
     515A      2.767386   516A      2.783605   517A      2.798720  
     518A      2.811555   519A      2.841116   520A      2.859419  
     521A      2.907772   522A      2.926505   523A      2.928038  
     524A      2.940122   525A      2.948363   526A      2.951959  
     527A      2.974083   528A      2.983797   529A      3.003337  
     530A      3.021694   531A      3.025746   532A      3.039097  
     533A      3.043799   534A      3.056843   535A      3.063369  
     536A      3.082773   537A      3.100437   538A      3.112344  
     539A      3.128411   540A      3.131865   541A      3.142143  
     542A      3.157828   543A      3.161183   544A      3.179707  
     545A      3.184393   546A      3.199204   547A      3.219271  
     548A      3.230847   549A      3.232260   550A      3.242221  
     551A      3.257610   552A      3.264219   553A      3.271145  
     554A      3.287300   555A      3.294428   556A      3.310208  
     557A      3.314857   558A      3.320553   559A      3.339279  
     560A      3.343092   561A      3.349820   562A      3.361484  
     563A      3.365209   564A      3.369531   565A      3.379747  
     566A      3.389067   567A      3.397663   568A      3.404786  
     569A      3.417393   570A      3.423298   571A      3.428499  
     572A      3.434635   573A      3.444090   574A      3.449285  
     575A      3.465887   576A      3.477000   577A      3.479504  
     578A      3.488045   579A      3.503866   580A      3.510313  
     581A      3.515599   582A      3.523684   583A      3.530201  
     584A      3.539946   585A      3.553564   586A      3.569611  
     587A      3.577670   588A      3.587741   589A      3.598351  
     590A      3.604482   591A      3.612173   592A      3.624393  
     593A      3.625926   594A      3.647637   595A      3.649546  
     596A      3.652827   597A      3.663157   598A      3.677525  
     599A      3.684976   600A      3.692901   601A      3.702236  
     602A      3.708288   603A      3.713223   604A      3.719307  
     605A      3.731519   606A      3.743054   607A      3.749767  
     608A      3.757415   609A      3.765770   610A      3.769611  
     611A      3.778793   612A      3.785210   613A      3.793539  
     614A      3.806820   615A      3.813252   616A      3.817701  
     617A      3.828698   618A      3.831682   619A      3.846571  
     620A      3.849889   621A      3.860632   622A      3.872449  
     623A      3.881757   624A      3.882894   625A      3.898864  
     626A      3.905592   627A      3.912597   628A      3.927395  
     629A      3.933359   630A      3.941217   631A      3.957434  
     632A      3.961620   633A      3.973489   634A      3.990041  
     635A      3.993387   636A      3.997988   637A      4.004101  
     638A      4.008874   639A      4.021564   640A      4.035635  
     641A      4.037733   642A      4.042951   643A      4.055644  
     644A      4.066676   645A      4.070692   646A      4.083767  
     647A      4.093421   648A      4.106964   649A      4.111747  
     650A      4.115016   651A      4.124698   652A      4.137326  
     653A      4.143247   654A      4.157483   655A      4.168889  
     656A      4.178848   657A      4.190771   658A      4.196954  
     659A      4.203729   660A      4.209020   661A      4.219726  
     662A      4.227071   663A      4.236336   664A      4.239413  
     665A      4.247460   666A      4.259049   667A      4.266590  
     668A      4.274713   669A      4.287621   670A      4.290279  
     671A      4.300498   672A      4.304288   673A      4.311397  
     674A      4.317318   675A      4.332853   676A      4.349335  
     677A      4.352191   678A      4.366349   679A      4.370826  
     680A      4.381886   681A      4.391031   682A      4.403867  
     683A      4.416955   684A      4.427013   685A      4.434935  
     686A      4.450199   687A      4.459148   688A      4.464717  
     689A      4.468423   690A      4.486119   691A      4.501653  
     692A      4.505388   693A      4.522272   694A      4.564662  
     695A      4.569866   696A      4.583623   697A      4.596848  
     698A      4.608375   699A      4.616031   700A      4.620462  
     701A      4.630228   702A      4.641315   703A      4.651437  
     704A      4.669627   705A      4.694075   706A      4.706848  
     707A      4.714323   708A      4.732318   709A      4.739160  
     710A      4.745438   711A      4.755389   712A      4.771022  
     713A      4.785398   714A      4.810791   715A      4.812893  
     716A      4.821018   717A      4.828089   718A      4.842549  
     719A      4.855074   720A      4.860888   721A      4.889680  
     722A      4.905698   723A      4.910530   724A      4.922033  
     725A      4.934873   726A      4.939225   727A      4.942127  
     728A      4.955907   729A      4.973104   730A      4.994077  
     731A      4.998923   732A      5.009325   733A      5.026590  
     734A      5.032034   735A      5.041174   736A      5.050120  
     737A      5.056127   738A      5.063776   739A      5.084766  
     740A      5.095303   741A      5.110160   742A      5.157296  
     743A      5.166608   744A      5.171851   745A      5.190993  
     746A      5.195129   747A      5.200392   748A      5.205658  
     749A      5.241385   750A      5.256182   751A      5.269537  
     752A      5.280494   753A      5.315999   754A      5.327657  
     755A      5.336400   756A      5.363223   757A      5.370545  
     758A      5.387294   759A      5.396701   760A      5.414109  
     761A      5.452687   762A      5.465165   763A      5.480122  
     764A      5.502432   765A      5.518204   766A      5.553528  
     767A      5.587427   768A      5.591756   769A      5.605692  
     770A      5.625815   771A      5.655367   772A      5.660512  
     773A      5.684226   774A      5.694038   775A      5.715920  
     776A      5.745953   777A      5.776585   778A      5.829965  
     779A      5.834395   780A      5.887975   781A      5.922910  
     782A      5.934239   783A      5.975373   784A      5.982404  
     785A      6.000706   786A      6.032854   787A      6.087070  
     788A      6.150965   789A      6.155106   790A      6.193480  
     791A      6.205186   792A      6.270258   793A      6.285835  
     794A      6.342452   795A      6.358721   796A      6.401693  
     797A      6.414585   798A      6.455831   799A      6.514047  
     800A      6.559100   801A      6.595208   802A      6.624687  
     803A      6.651832   804A      6.737764   805A      6.744442  
     806A      6.793064   807A      6.831964   808A      6.841851  
     809A      6.898507   810A      6.911516   811A      6.948568  
     812A      6.969139   813A      7.080117   814A      7.159767  
     815A      7.289595   816A      7.320734   817A      7.363063  
     818A      7.446669   819A      7.540062   820A      7.582666  
     821A      7.589004   822A      7.649096   823A      7.901012  
     824A      8.282248   825A      8.537294   826A      8.887216  
     827A      8.929948   828A      9.152991   829A      9.170986  
     830A      9.288621   831A      9.403238   832A      9.422591  
     833A      9.479247   834A      9.526276   835A      9.597193  
     836A      9.917044   837A      9.961165   838A     15.840144  
     839A     16.081866   840A     16.458482   841A     16.500191  
     842A     16.735392   843A     16.889248   844A     18.725169  
     845A     19.160696   846A     19.526015   847A     19.638663  
     848A     20.060434   849A     20.144387   850A     20.336926  
     851A     21.722253  

    Final Occupation by Irrep:
              A 
    DOCC [    49 ]

  Energy converged.

  @DF-RHF Final Energy:  -650.55954074523015

   => Energetics <=

    Nuclear Repulsion Energy =            829.4643631166820796
    One-Electron Energy =               -2519.0899078245392957
    Two-Electron Energy =                1039.0660039626270645
    DFT Exchange-Correlation Energy =       0.0000000000000000
    Empirical Dispersion Energy =           0.0000000000000000
    PCM Polarization Energy =               0.0000000000000000
    EFP Energy =                            0.0000000000000000
    Total Energy =                       -650.5595407452301515



Properties will be evaluated at   0.000000,   0.000000,   0.000000 Bohr

Properties computed using the SCF density matrix

  Nuclear Dipole Moment: (a.u.)
     X:     1.2708      Y:    -0.4926      Z:    -6.6452

  Electronic Dipole Moment: (a.u.)
     X:     1.7275      Y:    -1.0959      Z:     4.2834

  Dipole Moment: (a.u.)
     X:     2.9983      Y:    -1.5885      Z:    -2.3618     Total:     4.1341

  Dipole Moment: (Debye)
     X:     7.6208      Y:    -4.0376      Z:    -6.0030     Total:    10.5079


*** tstop() called on gpu-1-17.local at Sat Nov 11 18:26:11 2017
Module time:
	user time   =    1695.65 seconds =      28.26 minutes
	system time =      57.55 seconds =       0.96 minutes
	total time  =        590 seconds =       9.83 minutes
Total time:
	user time   =    1695.65 seconds =      28.26 minutes
	system time =      57.55 seconds =       0.96 minutes
	total time  =        590 seconds =       9.83 minutes

  //>>>>>>>>>>>>>>>>>>>>>>>>>>>>>>>>>>>//
  //               DFMP2               //
  //<<<<<<<<<<<<<<<<<<<<<<<<<<<<<<<<<<<//

   => Loading Basis Set <=

    Name: (AUG-CC-PVTZ AUX)
    Role: RIFIT
    Keyword: DF_BASIS_MP2
    atoms 1-11  entry C          line   147 file /cbio/jclab/home/chayas/anaconda/envs/py35/share/psi4/basis/aug-cc-pvtz-ri.gbs 
    atoms 12    entry N          line   205 file /cbio/jclab/home/chayas/anaconda/envs/py35/share/psi4/basis/aug-cc-pvtz-ri.gbs 
    atoms 13    entry O          line   263 file /cbio/jclab/home/chayas/anaconda/envs/py35/share/psi4/basis/aug-cc-pvtz-ri.gbs 
    atoms 14    entry F          line   321 file /cbio/jclab/home/chayas/anaconda/envs/py35/share/psi4/basis/aug-cc-pvtz-ri.gbs 
    atoms 15-23 entry H          line    29 file /cbio/jclab/home/chayas/anaconda/envs/py35/share/psi4/basis/aug-cc-pvtz-ri.gbs 

	 --------------------------------------------------------
	                          DF-MP2                         
	      2nd-Order Density-Fitted Moller-Plesset Theory     
	              RMP2 Wavefunction,   8 Threads             
	                                                         
	        Rob Parrish, Justin Turney, Andy Simmonett,      
	           Ed Hohenstein, and C. David Sherrill          
	 --------------------------------------------------------

   => Auxiliary Basis Set <=

  Basis Set: (AUG-CC-PVTZ AUX)
    Blend: AUG-CC-PVTZ-RI
    Number of shells: 518
    Number of basis function: 1898
    Number of Cartesian functions: 2399
    Spherical Harmonics?: true
    Max angular momentum: 4

	 --------------------------------------------------------
	                 NBF =   851, NAUX =  1898
	 --------------------------------------------------------
	   CLASS    FOCC     OCC    AOCC    AVIR     VIR    FVIR
	   PAIRS       0      49      49     802     802       0
	 --------------------------------------------------------


         ------------------------------------------------------------
                                     CPHF                           
                                  Rob Parrish                       
         ------------------------------------------------------------

  ==> Geometry <==

    Molecular point group: c1
    Full point group: C1

    Geometry (in Angstrom), charge = 1, multiplicity = 1:

       Center              X                  Y                   Z               Mass       
    ------------   -----------------  -----------------  -----------------  -----------------
           C         -1.337924706937     0.763942896639    -0.788136163608    12.000000000000
           C         -2.415924706937     1.336942896639    -0.115136163608    12.000000000000
           C          1.607075293063     0.356942896639    -1.606136163608    12.000000000000
           C          1.098075293063    -1.778057103361    -0.613136163608    12.000000000000
           C         -1.422924706937     0.720942896639     1.999863836392    12.000000000000
           C          2.671075293063    -0.240057103361    -2.268136163608    12.000000000000
           C          2.175075293063    -2.320057103361    -1.300136163608    12.000000000000
           C         -0.301924706937     0.168942896639    -0.068136163608    12.000000000000
           C          0.815075293063    -0.425057103361    -0.771136163608    12.000000000000
           C         -2.458924706937     1.315942896639     1.278863836392    12.000000000000
           C         -0.344924706937     0.147942896639     1.325863836392    12.000000000000
           N          2.921075293063    -1.545057103361    -2.098136163608    14.003074004780
           O         -3.511924706937     1.875942896639     1.935863836392    15.994914619560
           F          0.643075293063    -0.420057103361     2.032863836392    18.998403224000
           H         -1.318924706937     0.787942896639    -1.875136163608     1.007825032070
           H         -3.220924706937     1.797942896639    -0.682136163608     1.007825032070
           H          1.409075293063     1.414942896639    -1.748136163608     1.007825032070
           H          0.496075293063    -2.412057103360     0.031863836392     1.007825032070
           H         -1.450924706937     0.700942896639     3.085863836392     1.007825032070
           H          3.338075293063     0.288942896639    -2.935136163608     1.007825032070
           H          2.468075293063    -3.359057103361    -1.237136163608     1.007825032070
           H          3.707075293063    -1.964057103360    -2.594136163608     1.007825032070
           H         -3.397924706937     1.781942896639     2.894863836392     1.007825032070

  Nuclear repulsion =  829.464363116682080
  Reference energy  = -650.559540745230152

  ==> Basis Set <==

  Basis Set: AUG-CC-PVTZ
    Blend: AUG-CC-PVTZ
    Number of shells: 277
    Number of basis function: 851
    Number of Cartesian functions: 995
    Spherical Harmonics?: true
    Max angular momentum: 3

  ==> CGRSolver (by Rob Parrish) <==

   Number of roots    =         1
   Preconditioning    =    JACOBI
   Convergence cutoff =     1E-06
   Maximum iterations =       100

  ==> CPHFRHamiltonian (by Rob Parrish) <== 

  ==> DFJK: Density-Fitted J/K Matrices <==

    J tasked:                  Yes
    K tasked:                  Yes
    wK tasked:                  No
    OpenMP threads:              8
    Integrals threads:           8
    Memory (MB):              3576
    Algorithm:                Disk
    Integral Cache:           NONE
    Schwarz Cutoff:          1E-12
    Fitting Condition:       1E-12

   => Auxiliary Basis Set <=

  Basis Set: (AUG-CC-PVTZ AUX)
    Blend: AUG-CC-PVTZ-JKFIT
    Number of shells: 546
    Number of basis function: 1870
    Number of Cartesian functions: 2329
    Spherical Harmonics?: true
    Max angular momentum: 4

  ==> CPHF Iterations <==

  => Iterations <=

             Iter  Converged  Remaining    Residual
  CGR           1          0          1   1.205E-01
  CGR           2          0          1   4.756E-02
  CGR           3          0          1   2.782E-02
  CGR           4          0          1   9.100E-03
  CGR           5          0          1   3.825E-03
  CGR           6          0          1   1.611E-03
  CGR           7          0          1   5.226E-04
  CGR           8          0          1   2.233E-04
  CGR           9          0          1   1.002E-04
  CGR          10          0          1   4.047E-05
  CGR          11          0          1   1.674E-05
  CGR          12          0          1   5.677E-06
  CGR          13          0          1   2.094E-06
  CGR          14          1          0   7.345E-07

    CGRSolver converged.

  ==> DFCorrGrad: Density-Fitted Correlated Gradients <==

    OpenMP threads:              8
    Integrals threads:           8
    Memory (MB):              3576
    Schwarz Cutoff:          0E+00
    Fitting Condition:       1E-12

   => Auxiliary Basis Set <=

  Basis Set: (AUG-CC-PVTZ AUX)
    Blend: AUG-CC-PVTZ-JKFIT
    Number of shells: 546
    Number of basis function: 1870
    Number of Cartesian functions: 2329
    Spherical Harmonics?: true
    Max angular momentum: 4

	-----------------------------------------------------------
	 ==================> DF-MP2 Energies <==================== 
	-----------------------------------------------------------
	 Reference Energy          =    -650.5595407452301515 [Eh]
	 Singles Energy            =      -0.0000000000000004 [Eh]
	 Same-Spin Energy          =      -0.6691329689911296 [Eh]
	 Opposite-Spin Energy      =      -2.0141326239396262 [Eh]
	 Correlation Energy        =      -2.6832655929307561 [Eh]
	 Total Energy              =    -653.2428063381609036 [Eh]
	-----------------------------------------------------------
	 ================> DF-SCS-MP2 Energies <================== 
	-----------------------------------------------------------
	 SCS Same-Spin Scale       =       0.3333333333333333 [-]
	 SCS Opposite-Spin Scale   =       1.2000000000000000 [-]
	 SCS Same-Spin Energy      =      -0.2230443229970432 [Eh]
	 SCS Opposite-Spin Energy  =      -2.4169591487275515 [Eh]
	 SCS Correlation Energy    =      -2.6400034717245950 [Eh]
	 SCS Total Energy          =    -653.1995442169547914 [Eh]
	-----------------------------------------------------------


  -Total Gradient:
     Atom            X                  Y                   Z
    ------   -----------------  -----------------  -----------------
       1        0.009589564464    -0.010254518808    -0.011080395481
       2        0.001699002931    -0.000833140232     0.007283244513
       3       -0.010564403320     0.008005879149     0.010397690529
       4       -0.014472111454     0.006739360839     0.005409029165
       5       -0.010953874977     0.005640764391     0.002143492908
       6        0.002192875948    -0.011592770403     0.003237518037
       7        0.006180874179     0.007798393980    -0.007935654987
       8       -0.003744227486     0.001810966743    -0.002766748009
       9        0.003614403802    -0.002161349658    -0.004587439934
      10       -0.000357422528     0.000630047848    -0.011567033113
      11        0.024965194877    -0.008520626567    -0.000374854778
      12        0.000934801751    -0.001005352754    -0.000632939937
      13       -0.006408808121     0.003377288484     0.007759908271
      14        0.000044928028    -0.000372035155     0.004489071904
      15       -0.001264283834     0.001418246056    -0.005668768854
      16       -0.003387918224     0.002522243037    -0.005095724437
      17       -0.001256114788     0.005405146565    -0.001538307150
      18       -0.003382864463    -0.003956518451     0.003796812036
      19       -0.001864141279     0.000327177710     0.004717671298
      20        0.002098959230     0.000178654194    -0.002137766378
      21        0.001877783597    -0.002248970494    -0.000381190326
      22        0.004509781554    -0.002594469493    -0.002991671340
      23       -0.000051999890    -0.000314416983     0.007524056064


*** tstop() called on gpu-1-17.local at Sat Nov 11 19:07:48 2017
Module time:
	user time   =    7534.41 seconds =     125.57 minutes
	system time =     121.12 seconds =       2.02 minutes
	total time  =       3087 seconds =      51.45 minutes
Total time:
	user time   =    7534.41 seconds =     125.57 minutes
	system time =     121.12 seconds =       2.02 minutes
	total time  =       3087 seconds =      51.45 minutes

			-----------------------------------------
			 OPTKING 2.0: for geometry optimizations 
			  - R.A. King,  Bethel University        
			-----------------------------------------

	Internal coordinates to be generated automatically.
	Detected frag 1 with atoms:  1 2 3 4 5 6 7 8 9 10 11 12 13 14 15 16 17 18 19 20
	 21 22 23
	---Fragment 1 Bond Connectivity---
	 1 : 2 8 15
	 2 : 1 10 16
	 3 : 6 9 17
	 4 : 7 9 18
	 5 : 10 11 19
	 6 : 3 12 20
	 7 : 4 12 21
	 8 : 1 9 11
	 9 : 3 4 8
	 10 : 2 5 13
	 11 : 5 8 14
	 12 : 6 7 22
	 13 : 10 23
	 14 : 11
	 15 : 1
	 16 : 2
	 17 : 3
	 18 : 4
	 19 : 5
	 20 : 6
	 21 : 7
	 22 : 12
	 23 : 13

	Assuming in current code that numbering for constraints corresponds to unified fragment.
	Fixed dihedral atom list: 
	     1     8     9     3
	---Fragment 1 Geometry and Gradient---
	 C          -2.5283112825        1.4436428558       -1.4893615046
	 C          -4.5654360538        2.5264559300       -0.2175758172
	 C           3.0369321788        0.6745243197       -3.0351574813
	 C           2.0750615772       -3.3600409740       -1.1586594314
	 C          -2.6889380038        1.3623846321        3.7791949538
	 C           5.0476007842       -0.4536421816       -4.2861561813
	 C           4.1102966223       -4.3842725380       -2.4569012847
	 C          -0.5705550089        0.3192558067       -0.1287586890
	 C           1.5402690816       -0.8032415162       -1.4572361604
	 C          -4.6466942775        2.4867716812        2.4167024120
	 C          -0.6518132326        0.2795715580        2.5055195403
	 N           5.5200323174       -2.9197347850       -3.9649027387
	 O          -6.6365758954        3.5450183156        3.6582524813
	 F           1.2152361867       -0.7937928855        3.8415559162
	 H          -2.4924064860        1.4889962830       -3.5434938111
	 H          -6.0866655908        3.3976196772       -1.2890505346
	 H           2.6627664045        2.6738545683       -3.3034985922
	 H           0.9374464452       -4.5581273422        0.0602139243
	 H          -2.7418503355        1.3245901094        5.8314375342
	 H           6.3080481148        0.5460229427       -5.5466035119
	 H           4.6639863792       -6.3476979901       -2.3378485383
	 H           7.0053570579       -3.7115300347       -4.9022069006
	 H          -6.4211471163        3.3673840591        5.4704998428
	             0.0095895645       -0.0102545188       -0.0110803955
	             0.0016990029       -0.0008331402        0.0072832445
	            -0.0105644033        0.0080058791        0.0103976905
	            -0.0144721115        0.0067393608        0.0054090292
	            -0.0109538750        0.0056407644        0.0021434929
	             0.0021928759       -0.0115927704        0.0032375180
	             0.0061808742        0.0077983940       -0.0079356550
	            -0.0037442275        0.0018109667       -0.0027667480
	             0.0036144038       -0.0021613497       -0.0045874399
	            -0.0003574225        0.0006300478       -0.0115670331
	             0.0249651949       -0.0085206266       -0.0003748548
	             0.0009348018       -0.0010053528       -0.0006329399
	            -0.0064088081        0.0033772885        0.0077599083
	             0.0000449280       -0.0003720352        0.0044890719
	            -0.0012642838        0.0014182461       -0.0056687689
	            -0.0033879182        0.0025222430       -0.0050957244
	            -0.0012561148        0.0054051466       -0.0015383071
	            -0.0033828645       -0.0039565185        0.0037968120
	            -0.0018641413        0.0003271777        0.0047176713
	             0.0020989592        0.0001786542       -0.0021377664
	             0.0018777836       -0.0022489705       -0.0003811903
	             0.0045097816       -0.0025944695       -0.0029916713
	            -0.0000519999       -0.0003144170        0.0075240561

	Previous optimization step data not found.  Starting new optimization.

	---Fragment 1 Intrafragment Coordinates---
	 - Coordinate -           - BOHR/RAD -       - ANG/DEG -
	 R(1,2)           =         2.634350	       1.394038
	 R(1,8)           =         2.635962	       1.394891
	 R(1,15)          =         2.054947	       1.087431
	 R(2,10)          =         2.635830	       1.394821
	 R(2,16)          =         2.054537	       1.087214
	 R(3,6)           =         2.623079	       1.388074
	 R(3,9)           =         2.629378	       1.391407
	 R(3,17)          =         2.051665	       1.085694
	 R(4,7)           =         2.622339	       1.387682
	 R(4,9)           =         2.629140	       1.391281
	 R(4,18)          =         2.053103	       1.086455
	 R(5,10)          =         2.636938	       1.395407
	 R(5,11)          =         2.635263	       1.394521
	 R(5,19)          =         2.053272	       1.086545
	 R(6,12)          =         2.531404	       1.339561
	 R(6,20)          =         2.043719	       1.081489
	 R(7,12)          =         2.531066	       1.339382
	 R(7,21)          =         2.043474	       1.081360
	 R(8,9)           =         2.735038	       1.447320
	 R(8,11)          =         2.635830	       1.394821
	 R(10,13)         =         2.573123	       1.361638
	 R(11,14)         =         2.534359	       1.341125
	 R(12,22)         =         1.926569	       1.019496
	 R(13,23)         =         1.833631	       0.970316
	 B(1,2,10)        =         2.094553	     120.009056
	 B(1,2,16)        =         2.088723	     119.675016
	 B(1,8,9)         =         2.091569	     119.838095
	 B(1,8,11)        =         2.093692	     119.959722
	 B(2,1,8)         =         2.094940	     120.031219
	 B(2,1,15)        =         2.079469	     119.144799
	 B(2,10,5)        =         2.094306	     119.994870
	 B(2,10,13)       =         2.094247	     119.991510
	 B(3,6,12)        =         2.096160	     120.101096
	 B(3,6,20)        =         2.160978	     123.814942
	 B(3,9,4)         =         2.093156	     119.928982
	 B(3,9,8)         =         2.094542	     120.008404
	 B(4,7,12)        =         2.095824	     120.081885
	 B(4,7,21)        =         2.161239	     123.829863
	 B(4,9,8)         =         2.095488	     120.062613
	 B(5,10,13)       =         2.094633	     120.013619
	 B(5,11,8)        =         2.095181	     120.045019
	 B(5,11,14)       =         2.081414	     119.256220
	 B(6,3,9)         =         2.072362	     118.737620
	 B(6,3,17)        =         2.090402	     119.771194
	 B(6,12,7)        =         2.135730	     122.368334
	 B(6,12,22)       =         2.074333	     118.850498
	 B(7,4,9)         =         2.073138	     118.782073
	 B(7,4,18)        =         2.089816	     119.737652
	 B(7,12,22)       =         2.073122	     118.781161
	 B(8,1,15)        =         2.108776	     120.823969
	 B(8,11,14)       =         2.106591	     120.698759
	 B(9,3,17)        =         2.120421	     121.491171
	 B(9,4,18)        =         2.120230	     121.480258
	 B(9,8,11)        =         2.097924	     120.202184
	 B(10,2,16)       =         2.099909	     120.315896
	 B(10,5,11)       =         2.093699	     119.960108
	 B(10,5,19)       =         2.100355	     120.341451
	 B(10,13,23)      =         1.924294	     110.253909
	 B(11,5,19)       =         2.089132	     119.698439
	 B(12,6,20)       =         2.026047	     116.083959
	 B(12,7,21)       =         2.026122	     116.088250
	 D(1,2,10,5)      =        -0.000325	      -0.018609
	 D(1,2,10,13)     =         3.141388	     179.988267
	 D(1,8,9,3)       =         1.047203	      60.000294
	 D(1,8,9,4)       =        -2.094232	    -119.990639
	 D(1,8,11,5)      =         0.000325	       0.018608
	 D(1,8,11,14)     =        -3.141528	    -179.996269
	 D(2,1,8,9)       =         3.141277	     179.981897
	 D(2,1,8,11)      =        -0.000348	      -0.019945
	 D(2,10,5,11)     =         0.000301	       0.017261
	 D(2,10,5,19)     =        -3.141029	    -179.967685
	 D(2,10,13,23)    =         3.141285	     179.982383
	 D(3,6,12,7)      =        -0.000167	      -0.009589
	 D(3,6,12,22)     =         3.140892	     179.959844
	 D(3,9,4,7)       =        -0.000213	      -0.012204
	 D(3,9,4,18)      =        -3.140964	    -179.964007
	 D(3,9,8,11)      =        -2.094358	    -119.997860
	 D(4,7,12,6)      =         0.000492	       0.028196
	 D(4,7,12,22)     =        -3.140567	    -179.941258
	 D(4,9,3,6)       =         0.000525	       0.030092
	 D(4,9,3,17)      =         3.141327	     179.984799
	 D(4,9,8,11)      =         1.047393	      60.011207
	 D(5,10,2,16)     =         3.140149	     179.917291
	 D(5,10,13,23)    =        -0.000187	      -0.010740
	 D(5,11,8,9)      =        -3.141300	    -179.983240
	 D(6,3,9,8)       =        -3.140909	    -179.960854
	 D(6,12,7,21)     =        -3.140902	    -179.960420
	 D(7,4,9,8)       =         3.141222	     179.978736
	 D(7,12,6,20)     =         3.141065	     179.969740
	 D(8,1,2,10)      =         0.000348	       0.019955
	 D(8,1,2,16)      =        -3.140133	    -179.916358
	 D(8,9,3,17)      =        -0.000107	      -0.006146
	 D(8,9,4,18)      =         0.000470	       0.026933
	 D(8,11,5,10)     =        -0.000301	      -0.017270
	 D(8,11,5,19)     =         3.141030	     179.967774
	 D(9,3,6,12)      =        -0.000344	      -0.019721
	 D(9,3,6,20)      =        -3.141547	    -179.997375
	 D(9,4,7,12)      =        -0.000293	      -0.016764
	 D(9,4,7,21)      =         3.141085	     179.970928
	 D(9,8,1,15)      =         0.000403	       0.023110
	 D(9,8,11,14)     =         0.000033	       0.001883
	 D(10,2,1,15)     =         3.141234	     179.979432
	 D(10,5,11,14)    =         3.141547	     179.997392
	 D(11,5,10,13)    =        -3.141411	    -179.989616
	 D(11,8,1,15)     =        -3.141221	    -179.978731
	 D(12,6,3,17)     =        -3.141160	    -179.975226
	 D(12,7,4,18)     =         3.140474	     179.935898
	 D(13,10,2,16)    =        -0.001324	      -0.075833
	 D(13,10,5,19)    =         0.000444	       0.025437
	 D(14,11,5,19)    =        -0.000307	      -0.017564
	 D(15,1,2,16)     =         0.000753	       0.043120
	 D(17,3,6,20)     =         0.000822	       0.047120
	 D(18,4,7,21)     =        -0.001334	      -0.076410
	 D(20,6,12,22)    =        -0.001062	      -0.060827
	 D(21,7,12,22)    =         0.001224	       0.070126
	 R(4,14)          =         5.685691	       3.008738

	Current energy   :      -653.2428063382

	Generating empirical Hessian (Schlegel '84) for each fragment.
	Adding user-defined constraint: Fragment 1; Coordinate 64:
		Value =     1.047203; Fixed value    =     1.047198
		Force =    -0.000003; Force constant =     0.500000
	Removing off-diagonal coupling between coordinate 64 and others.
	Taking RFO optimization step.
	Going to follow RFO solution 1.
	Using RFO vector 1.

	Determining step-restricting scale parameter for RS-RFO.
	Maximum step size allowed    0.10000

	 Iter      |step|        alpha        rfo_root  
	------------------------------------------------
	    0     0.21945       1.00000           1
	    1     0.16293       4.17669           1
	    2     0.13041      11.39226           1
	    3     0.11012      23.18247           1
	    4     0.10152      31.55015           1
	    5     0.10004      33.28286           1
	    6     0.10000      33.33337           1
	------------------------------------------------
	Norm of target step-size    0.10000
	Projected energy change by RFO approximation:        -0.0043149243

	Back-transformation to cartesian coordinates...
	Successfully converged to displaced geometry.
	First geometry is closer to target in internal coordinates, so am using that one.
	First geometry has RMS(Delta(q)) = 1.13e-04

	--- Internal Coordinate Step in ANG or DEG, aJ/ANG or AJ/DEG ---
	 ---------------------------------------------------------------------------
	   Coordinate                Previous        Force       Change         New 
	   ----------                --------       ------       ------       ------
	    1 R(1,2)          =      1.394038    -0.092313    -0.009545     1.384493
	    2 R(1,8)          =      1.394891    -0.007596    -0.000637     1.394254
	    3 R(1,15)         =      1.087431    -0.046760    -0.005970     1.081461
	    4 R(2,10)         =      1.394821    -0.055779    -0.005760     1.389061
	    5 R(2,16)         =      1.087214    -0.051372    -0.006497     1.080717
	    6 R(3,6)          =      1.388074    -0.094677    -0.009659     1.378415
	    7 R(3,9)          =      1.391407     0.027780     0.002893     1.394300
	    8 R(3,17)         =      1.085694    -0.046941    -0.005970     1.079725
	    9 R(4,7)          =      1.387682    -0.095714    -0.009741     1.377941
	   10 R(4,9)          =      1.391281     0.035536     0.003775     1.395056
	   11 R(4,18)         =      1.086455    -0.053034    -0.006749     1.079707
	   12 R(5,10)         =      1.395407    -0.027498    -0.002883     1.392525
	   13 R(5,11)         =      1.394521    -0.132736    -0.013766     1.380755
	   14 R(5,19)         =      1.086545    -0.039195    -0.004903     1.081642
	   15 R(6,12)         =      1.339561     0.016193     0.001465     1.341027
	   16 R(6,20)         =      1.081489    -0.022248    -0.002785     1.078704
	   17 R(7,12)         =      1.339382     0.021685     0.001979     1.341361
	   18 R(7,21)         =      1.081360    -0.021811    -0.002735     1.078625
	   19 R(8,9)          =      1.447320     0.084405     0.010178     1.457497
	   20 R(8,11)         =      1.394821    -0.056703    -0.005760     1.389062
	   21 R(10,13)        =      1.361638    -0.112299    -0.010207     1.351431
	   22 R(11,14)        =      1.341125    -0.019776    -0.001674     1.339452
	   23 R(12,22)        =      1.019496    -0.049421    -0.005325     1.014172
	   24 R(13,23)        =      0.970316    -0.061468    -0.005583     0.964733
	   25 B(1,2,10)       =    120.009056    -0.000161    -0.308444   119.700612
	   26 B(1,2,16)       =    119.675016     0.000251     0.567597   120.242614
	   27 B(1,8,9)        =    119.838095     0.000411     0.747771   120.585866
	   28 B(1,8,11)       =    119.959722    -0.000652    -1.234662   118.725060
	   29 B(2,1,8)        =    120.031219     0.000342     0.712263   120.743482
	   30 B(2,1,15)       =    119.144799    -0.000029    -0.013003   119.131797
	   31 B(2,10,5)       =    119.994870     0.000086     0.167114   120.161984
	   32 B(2,10,13)      =    119.991510    -0.000945    -1.786621   118.204890
	   33 B(3,6,12)       =    120.101096    -0.000320    -0.664260   119.436836
	   34 B(3,6,20)       =    123.814942     0.000062     0.095682   123.910623
	   35 B(3,9,4)        =    119.928982    -0.000516    -0.988903   118.940079
	   36 B(3,9,8)        =    120.008404     0.000173     0.321333   120.329738
	   37 B(4,7,12)       =    120.081885    -0.000320    -0.654223   119.427663
	   38 B(4,7,21)       =    123.829863     0.000062     0.090103   123.919967
	   39 B(4,9,8)        =    120.062613     0.000343     0.667309   120.729922
	   40 B(5,10,13)      =    120.013619     0.000860     1.619502   121.633121
	   41 B(5,11,8)       =    120.045019     0.000622     1.153519   121.198538
	   42 B(5,11,14)      =    119.256220    -0.000041    -0.093533   119.162687
	   43 B(6,3,9)        =    118.737620     0.000428     0.850355   119.587974
	   44 B(6,3,17)       =    119.771194    -0.000189    -0.367241   119.403952
	   45 B(6,12,7)       =    122.368334     0.000322     0.645149   123.013482
	   46 B(6,12,22)      =    118.850498    -0.000169    -0.342107   118.508391
	   47 B(7,4,9)        =    118.782073     0.000405     0.811681   119.593755
	   48 B(7,4,18)       =    119.737652    -0.000182    -0.357788   119.379863
	   49 B(7,12,22)      =    118.781161    -0.000153    -0.303035   118.478126
	   50 B(8,1,15)       =    120.823969    -0.000313    -0.699644   120.124325
	   51 B(8,11,14)      =    120.698759    -0.000581    -1.060445   119.638314
	   52 B(9,3,17)       =    121.491171    -0.000239    -0.483103   121.008068
	   53 B(9,4,18)       =    121.480258    -0.000224    -0.453907   121.026351
	   54 B(9,8,11)       =    120.202184     0.000240     0.486361   120.688545
	   55 B(10,2,16)      =    120.315896    -0.000089    -0.259146   120.056751
	   56 B(10,5,11)      =    119.960108    -0.000236    -0.490290   119.469818
	   57 B(10,5,19)      =    120.341451     0.000253     0.570735   120.912186
	   58 B(10,13,23)     =    110.253909    -0.000143    -0.348960   109.904948
	   59 B(11,5,19)      =    119.698439    -0.000017    -0.080456   119.617983
	   60 B(12,6,20)      =    116.083959     0.000258     0.568339   116.652297
	   61 B(12,7,21)      =    116.088250     0.000258     0.564106   116.652356
	   62 D(1,2,10,5)     =     -0.018609    -0.000005    -0.109984    -0.128593
	   63 D(1,2,10,13)    =    179.988267    -0.000005    -0.090313   179.897954
	   64 D(1,8,9,3)      =     60.000294    -0.000032    -0.289040    59.711254
	   65 D(1,8,9,4)      =   -119.990639    -0.000036    -0.485863  -120.476502
	   66 D(1,8,11,5)     =      0.018608    -0.000008    -0.220335    -0.201727
	   67 D(1,8,11,14)    =   -179.996269     0.000004     0.043600  -179.952669
	   68 D(2,1,8,9)      =    179.981897    -0.000009    -0.236858   179.745038
	   69 D(2,1,8,11)     =     -0.019945    -0.000001     0.027864     0.007920
	   70 D(2,10,5,11)    =      0.017261    -0.000004    -0.078073    -0.060811
	   71 D(2,10,5,19)    =   -179.967685    -0.000003    -0.052063  -180.019748
	   72 D(2,10,13,23)   =    179.982383     0.000001     0.015933   179.998317
	   73 D(3,6,12,7)     =     -0.009589     0.000002     0.034059     0.024470
	   74 D(3,6,12,22)    =    179.959844     0.000004     0.075752   180.035596
	   75 D(3,9,4,7)      =     -0.012204    -0.000002    -0.085577    -0.097782
	   76 D(3,9,4,18)     =   -179.964007    -0.000001    -0.069389  -180.033396
	   77 D(3,9,8,11)     =   -119.997860    -0.000039    -0.558958  -120.556818
	   78 D(4,7,12,6)     =      0.028196     0.000001     0.024877     0.053073
	   79 D(4,7,12,22)    =   -179.941258    -0.000001    -0.016792  -179.958050
	   80 D(4,9,3,6)      =      0.030092     0.000005     0.143887     0.173979
	   81 D(4,9,3,17)     =    179.984799     0.000009     0.215194   180.199993
	   82 D(4,9,8,11)     =     60.011207    -0.000043    -0.755782    59.255425
	   83 D(5,10,2,16)    =    179.917291    -0.000004    -0.101729   179.815562
	   84 D(5,10,13,23)   =     -0.010740     0.000001     0.036015     0.025275
	   85 D(5,11,8,9)     =   -179.983240    -0.000001     0.044673  -179.938567
	   86 D(6,3,9,8)      =   -179.960854     0.000001    -0.049589  -180.010443
	   87 D(6,12,7,21)    =   -179.960420    -0.000002    -0.028706  -179.989126
	   88 D(7,4,9,8)      =    179.978736     0.000002     0.108666   180.087402
	   89 D(7,12,6,20)    =    179.969740    -0.000005    -0.117870   179.851870
	   90 D(8,1,2,10)     =      0.019955     0.000008     0.135163     0.155118
	   91 D(8,1,2,16)     =   -179.916358     0.000007     0.127426  -179.788932
	   92 D(8,9,3,17)     =     -0.006146     0.000005     0.021717     0.015571
	   93 D(8,9,4,18)     =      0.026933     0.000003     0.124854     0.151788
	   94 D(8,11,5,10)    =     -0.017270     0.000011     0.245749     0.228479
	   95 D(8,11,5,19)    =    179.967774     0.000010     0.220179   180.187953
	   96 D(9,3,6,12)     =     -0.019721    -0.000005    -0.119110    -0.138831
	   97 D(9,3,6,20)     =   -179.997375     0.000003     0.044421  -179.952954
	   98 D(9,4,7,12)     =     -0.016764    -0.000001     0.002359    -0.014405
	   99 D(9,4,7,21)     =    179.970928     0.000002     0.060117   180.031045
	  100 D(9,8,1,15)     =      0.023110     0.000001    -0.047169    -0.024059
	  101 D(9,8,11,14)    =      0.001883     0.000012     0.308608     0.310491
	  102 D(10,2,1,15)    =    179.979432    -0.000002    -0.052954   179.926479
	  103 D(10,5,11,14)   =    179.997392    -0.000001    -0.016809   179.980583
	  104 D(11,5,10,13)   =   -179.989616    -0.000005    -0.098673  -180.088289
	  105 D(11,8,1,15)    =   -179.978731     0.000009     0.217554  -179.761177
	  106 D(12,6,3,17)    =   -179.975226    -0.000009    -0.189198  -180.164424
	  107 D(12,7,4,18)    =    179.935898    -0.000002    -0.013621   179.922277
	  108 D(13,10,2,16)   =     -0.075833    -0.000004    -0.082057    -0.157890
	  109 D(13,10,5,19)   =      0.025437    -0.000004    -0.072663    -0.047226
	  110 D(14,11,5,19)   =     -0.017564    -0.000002    -0.042379    -0.059942
	  111 D(15,1,2,16)    =      0.043120    -0.000003    -0.060691    -0.017572
	  112 D(17,3,6,20)    =      0.047120    -0.000001    -0.025667     0.021453
	  113 D(18,4,7,21)    =     -0.076410     0.000002     0.044137    -0.032272
	  114 D(20,6,12,22)   =     -0.060827    -0.000004    -0.076177    -0.137004
	  115 D(21,7,12,22)   =      0.070126    -0.000004    -0.070126     0.000000
	  116 R(4,14)         =      3.008738    -0.008025    -0.003261     3.005477
	 ---------------------------------------------------------------------------
	Successfully symmetrized geometry.
	 Forces used to impose fixed constraints are not included.
	  Forces zeroed: 64 

  ==> Convergence Check <==

  Measures of convergence in internal coordinates in au.
  Criteria marked as inactive (o), active & met (*), and active & unmet ( ).
  --------------------------------------------------------------------------------------------- ~
   Step     Total Energy     Delta E     MAX Force     RMS Force      MAX Disp      RMS Disp    ~
  --------------------------------------------------------------------------------------------- ~
    Convergence Criteria    1.00e-06 *    3.00e-04 *             o    1.20e-03 *             o  ~
  --------------------------------------------------------------------------------------------- ~
      1    -653.24280634   -6.53e+02      1.61e-02      4.39e-03 o    3.12e-02      9.28e-03 o  ~
  ---------------------------------------------------------------------------------------------

	Writing optimization data to binary file.
	Structure for next step:
	Cartesian Geometry (in Angstrom)
	    C    -1.3474915945   0.7757528806  -0.7688715523
	    C    -2.4184737167   1.3434479916  -0.0998863077
	    C     1.6145615868   0.3451411873  -1.6147346999
	    C     1.1145745485  -1.7830218398  -0.6179088215
	    C    -1.4222551694   0.7167393429   2.0041965251
	    C     2.6729866075  -0.2393806560  -2.2766253831
	    C     2.1829987823  -2.3269931294  -1.2970890539
	    C    -0.3060999109   0.1725621635  -0.0648769962
	    C     0.8170022188  -0.4289039490  -0.7728165704
	    C    -2.4558520302   1.3154222686   1.2883885285
	    C    -0.3627505637   0.1512986477   1.3228660502
	    N     2.9217153962  -1.5450289344  -2.0983872765
	    O    -3.5143485065   1.8802969464   1.9103756727
	    F     0.6283143146  -0.4225791704   2.0175495130
	    H    -1.3283734818   0.8017020901  -1.8498523531
	    H    -3.2230052656   1.8058915810  -0.6538040085
	    H     1.4164026152   1.3970084888  -1.7565557753
	    H     0.5197124279  -2.4134356666   0.0258954392
	    H    -1.4388242175   0.6883214610   3.0853384625
	    H     3.3340925779   0.2926412251  -2.9425793555
	    H     2.4748252413  -3.3631746152  -1.2292848205
	    H     3.7043052740  -1.9604749237  -2.5918462652
	    H    -3.4182853938   1.7934532328   2.8663772856
			--------------------------
			 OPTKING Finished Execution 
			--------------------------

    Structure for next step:
    Molecular point group: c1
    Full point group: C1

    Geometry (in Angstrom), charge = 1, multiplicity = 1:

    C           -1.346257764712     0.776011105550    -0.767022435789
    C           -2.417239886891     1.343706216577    -0.098037191180
    C            1.615795416598     0.345399412240    -1.612885583408
    C            1.115808378291    -1.782763614828    -0.616059705033
    C           -1.421021339654     0.716997567917     2.006045641600
    C            2.674220437246    -0.239122430996    -2.274776266611
    C            2.184232612089    -2.326734904426    -1.295239937394
    C           -0.304866081170     0.172820388523    -0.063027879732
    C            0.818236048569    -0.428645723995    -0.770967453934
    C           -2.454618200462     1.315680493583     1.290237645056
    C           -0.361516733989     0.151556872648     1.324715166662
    N            2.922949225944    -1.544770709448    -2.096538159958
    O           -3.513114676745     1.880555171436     1.912224789202
    F            0.629548144386    -0.422320945410     2.019398629559
    H           -1.327139652005     0.801960315042    -1.848003236607
    H           -3.221771435794     1.806149805963    -0.651954891954
    H            1.417636444913     1.397266713809    -1.754706658795
    H            0.520946257619    -2.413177441596     0.027744555705
    H           -1.437590387771     0.688579685942     3.087187578967
    H            3.335326407640     0.292899450114    -2.940730238981
    H            2.476059071033    -3.362916390212    -1.227435703996
    H            3.705539103794    -1.960216698721    -2.589997148736
    H           -3.417051563993     1.793711457742     2.868226402143

gradient() will perform analytic gradient computation.

*** tstart() called on gpu-1-17.local
*** at Sat Nov 11 19:07:50 2017

    SCF Algorithm Type (re)set to DF.

*** tstart() called on gpu-1-17.local
*** at Sat Nov 11 19:07:50 2017

   => Loading Basis Set <=

    Name: AUG-CC-PVTZ
    Role: ORBITAL
    Keyword: BASIS
    atoms 1-11  entry C          line   221 file /cbio/jclab/home/chayas/anaconda/envs/py35/share/psi4/basis/aug-cc-pvtz.gbs 
    atoms 12    entry N          line   267 file /cbio/jclab/home/chayas/anaconda/envs/py35/share/psi4/basis/aug-cc-pvtz.gbs 
    atoms 13    entry O          line   313 file /cbio/jclab/home/chayas/anaconda/envs/py35/share/psi4/basis/aug-cc-pvtz.gbs 
    atoms 14    entry F          line   359 file /cbio/jclab/home/chayas/anaconda/envs/py35/share/psi4/basis/aug-cc-pvtz.gbs 
    atoms 15-23 entry H          line    34 file /cbio/jclab/home/chayas/anaconda/envs/py35/share/psi4/basis/aug-cc-pvtz.gbs 


         ---------------------------------------------------------
                                   SCF
            by Justin Turney, Rob Parrish, and Andy Simmonett
                              RHF Reference
                        8 Threads,   4768 MiB Core
         ---------------------------------------------------------

  ==> Geometry <==

    Molecular point group: c1
    Full point group: C1

    Geometry (in Angstrom), charge = 1, multiplicity = 1:

       Center              X                  Y                   Z               Mass       
    ------------   -----------------  -----------------  -----------------  -----------------
           C         -1.346257764712     0.776011105550    -0.767022435789    12.000000000000
           C         -2.417239886891     1.343706216577    -0.098037191180    12.000000000000
           C          1.615795416598     0.345399412240    -1.612885583408    12.000000000000
           C          1.115808378291    -1.782763614828    -0.616059705033    12.000000000000
           C         -1.421021339654     0.716997567917     2.006045641600    12.000000000000
           C          2.674220437246    -0.239122430996    -2.274776266611    12.000000000000
           C          2.184232612089    -2.326734904426    -1.295239937394    12.000000000000
           C         -0.304866081170     0.172820388523    -0.063027879732    12.000000000000
           C          0.818236048569    -0.428645723995    -0.770967453934    12.000000000000
           C         -2.454618200462     1.315680493583     1.290237645056    12.000000000000
           C         -0.361516733989     0.151556872648     1.324715166662    12.000000000000
           N          2.922949225944    -1.544770709448    -2.096538159958    14.003074004780
           O         -3.513114676745     1.880555171436     1.912224789202    15.994914619560
           F          0.629548144386    -0.422320945410     2.019398629559    18.998403224000
           H         -1.327139652005     0.801960315042    -1.848003236607     1.007825032070
           H         -3.221771435794     1.806149805963    -0.651954891954     1.007825032070
           H          1.417636444913     1.397266713809    -1.754706658795     1.007825032070
           H          0.520946257619    -2.413177441596     0.027744555705     1.007825032070
           H         -1.437590387771     0.688579685942     3.087187578967     1.007825032070
           H          3.335326407640     0.292899450114    -2.940730238981     1.007825032070
           H          2.476059071033    -3.362916390212    -1.227435703996     1.007825032070
           H          3.705539103794    -1.960216698721    -2.589997148736     1.007825032070
           H         -3.417051563993     1.793711457742     2.868226402143     1.007825032070

  Running in c1 symmetry.

  Rotational constants: A =      0.06346  B =      0.01286  C =      0.01149 [cm^-1]
  Rotational constants: A =   1902.44373  B =    385.66142  C =    344.36675 [MHz]
  Nuclear repulsion =  830.686161251266526

  Charge       = 1
  Multiplicity = 1
  Electrons    = 98
  Nalpha       = 49
  Nbeta        = 49

  ==> Algorithm <==

  SCF Algorithm Type is DF.
  DIIS enabled.
  MOM disabled.
  Fractional occupation disabled.
  Guess Type is READ.
  Energy threshold   = 1.00e-10
  Density threshold  = 1.00e-10
  Integral threshold = 0.00e+00

  ==> Primary Basis <==

  Basis Set: AUG-CC-PVTZ
    Blend: AUG-CC-PVTZ
    Number of shells: 277
    Number of basis function: 851
    Number of Cartesian functions: 995
    Spherical Harmonics?: true
    Max angular momentum: 3

   => Loading Basis Set <=

    Name: (AUG-CC-PVTZ AUX)
    Role: JKFIT
    Keyword: DF_BASIS_SCF
    atoms 1-11  entry C          line   161 file /cbio/jclab/home/chayas/anaconda/envs/py35/share/psi4/basis/aug-cc-pvtz-jkfit.gbs 
    atoms 12    entry N          line   223 file /cbio/jclab/home/chayas/anaconda/envs/py35/share/psi4/basis/aug-cc-pvtz-jkfit.gbs 
    atoms 13    entry O          line   285 file /cbio/jclab/home/chayas/anaconda/envs/py35/share/psi4/basis/aug-cc-pvtz-jkfit.gbs 
    atoms 14    entry F          line   347 file /cbio/jclab/home/chayas/anaconda/envs/py35/share/psi4/basis/aug-cc-pvtz-jkfit.gbs 
    atoms 15-23 entry H          line    69 file /cbio/jclab/home/chayas/anaconda/envs/py35/share/psi4/basis/aug-cc-pvtz-jkfit.gbs 

  Reading orbitals from file 180, no projection.

  ==> Pre-Iterations <==

   -------------------------------------------------------
    Irrep   Nso     Nmo     Nalpha   Nbeta   Ndocc  Nsocc
   -------------------------------------------------------
     A        851     851       0       0       0       0
   -------------------------------------------------------
    Total     851     851      49      49      49       0
   -------------------------------------------------------

  ==> Integral Setup <==

  ==> DFJK: Density-Fitted J/K Matrices <==

    J tasked:                  Yes
    K tasked:                  Yes
    wK tasked:                  No
    OpenMP threads:              8
    Integrals threads:           8
    Memory (MB):              3576
    Algorithm:                Disk
    Integral Cache:           NONE
    Schwarz Cutoff:          1E-12
    Fitting Condition:       1E-12

   => Auxiliary Basis Set <=

  Basis Set: (AUG-CC-PVTZ AUX)
    Blend: AUG-CC-PVTZ-JKFIT
    Number of shells: 546
    Number of basis function: 1870
    Number of Cartesian functions: 2329
    Spherical Harmonics?: true
    Max angular momentum: 4

  Minimum eigenvalue in the overlap matrix is 6.6258774296E-07.
  Using Symmetric Orthogonalization.

  SCF Guess: Orbitals guess was supplied from a previous computation.

  ==> Iterations <==

                           Total Energy        Delta E     RMS |[F,P]|

   @DF-RHF iter   0:  -650.61190671376141   -6.50612e+02   3.92841e-04 
   @DF-RHF iter   1:  -650.56483196026556    4.70748e-02   6.85641e-05 
   @DF-RHF iter   2:  -650.56501980041878   -1.87840e-04   3.96613e-05 DIIS
   @DF-RHF iter   3:  -650.56509525046886   -7.54501e-05   9.14175e-06 DIIS
   @DF-RHF iter   4:  -650.56510104564495   -5.79518e-06   3.66568e-06 DIIS
   @DF-RHF iter   5:  -650.56510254953321   -1.50389e-06   1.40705e-06 DIIS
   @DF-RHF iter   6:  -650.56510291797349   -3.68440e-07   7.36810e-07 DIIS
   @DF-RHF iter   7:  -650.56510304741369   -1.29440e-07   3.37612e-07 DIIS
   @DF-RHF iter   8:  -650.56510308089833   -3.34846e-08   1.14839e-07 DIIS
   @DF-RHF iter   9:  -650.56510308389852   -3.00020e-09   4.32210e-08 DIIS
   @DF-RHF iter  10:  -650.56510308413385   -2.35332e-10   1.33141e-08 DIIS
   @DF-RHF iter  11:  -650.56510308415318   -1.93268e-11   3.89428e-09 DIIS
   @DF-RHF iter  12:  -650.56510308415614   -2.95586e-12   1.75217e-09 DIIS
   @DF-RHF iter  13:  -650.56510308413283    2.33058e-11   7.64091e-10 DIIS
   @DF-RHF iter  14:  -650.56510308419115   -5.83213e-11   3.27991e-10 DIIS
   @DF-RHF iter  15:  -650.56510308414408    4.70664e-11   1.76773e-10 DIIS
   @DF-RHF iter  16:  -650.56510308415113   -7.04858e-12   5.42627e-11 DIIS

  ==> Post-Iterations <==

    Orbital Energies (a.u.)
    -----------------------

    Doubly Occupied:                                                      

       1A    -26.442660     2A    -20.706655     3A    -15.841492  
       4A    -11.488536     5A    -11.486968     6A    -11.466558  
       7A    -11.454310     8A    -11.436861     9A    -11.419434  
      10A    -11.418387    11A    -11.381748    12A    -11.376830  
      13A    -11.358485    14A    -11.349322    15A     -1.762492  
      16A     -1.527181    17A     -1.517592    18A     -1.323802  
      19A     -1.273977    20A     -1.245117    21A     -1.165281  
      22A     -1.154720    23A     -1.071165    24A     -1.063561  
      25A     -0.993441    26A     -0.970510    27A     -0.963575  
      28A     -0.892008    29A     -0.874263    30A     -0.861262  
      31A     -0.857245    32A     -0.828463    33A     -0.820638  
      34A     -0.807809    35A     -0.801211    36A     -0.780091  
      37A     -0.759296    38A     -0.749089    39A     -0.728766  
      40A     -0.715553    41A     -0.708977    42A     -0.689381  
      43A     -0.657615    44A     -0.645339    45A     -0.620247  
      46A     -0.577980    47A     -0.542533    48A     -0.472676  
      49A     -0.445733  

    Virtual:                                                              

      50A     -0.106383    51A     -0.086112    52A     -0.064811  
      53A     -0.062773    54A     -0.058007    55A     -0.050305  
      56A     -0.042085    57A     -0.039731    58A     -0.034340  
      59A     -0.029689    60A     -0.024577    61A     -0.017890  
      62A     -0.012727    63A     -0.010193    64A     -0.006209  
      65A     -0.001448    66A      0.001916    67A      0.008394  
      68A      0.009332    69A      0.013372    70A      0.016817  
      71A      0.019235    72A      0.024473    73A      0.025835  
      74A      0.031189    75A      0.033207    76A      0.034561  
      77A      0.038157    78A      0.040677    79A      0.042258  
      80A      0.047439    81A      0.052064    82A      0.055174  
      83A      0.061139    84A      0.065202    85A      0.067264  
      86A      0.070426    87A      0.078013    88A      0.080343  
      89A      0.083040    90A      0.086754    91A      0.091992  
      92A      0.095639    93A      0.101684    94A      0.107499  
      95A      0.112064    96A      0.116893    97A      0.118153  
      98A      0.124280    99A      0.129363   100A      0.133490  
     101A      0.136323   102A      0.137417   103A      0.140793  
     104A      0.143490   105A      0.151312   106A      0.156223  
     107A      0.158138   108A      0.161518   109A      0.164483  
     110A      0.167004   111A      0.169517   112A      0.172805  
     113A      0.176262   114A      0.180309   115A      0.184617  
     116A      0.189814   117A      0.196978   118A      0.198169  
     119A      0.199378   120A      0.207289   121A      0.209753  
     122A      0.211222   123A      0.216523   124A      0.221345  
     125A      0.223507   126A      0.223901   127A      0.229624  
     128A      0.234327   129A      0.237327   130A      0.241945  
     131A      0.244989   132A      0.249667   133A      0.253493  
     134A      0.254505   135A      0.260122   136A      0.268740  
     137A      0.269222   138A      0.274068   139A      0.280736  
     140A      0.282321   141A      0.284337   142A      0.293208  
     143A      0.294738   144A      0.298435   145A      0.305406  
     146A      0.312503   147A      0.315793   148A      0.320949  
     149A      0.322499   150A      0.325157   151A      0.328675  
     152A      0.329731   153A      0.332817   154A      0.337770  
     155A      0.340374   156A      0.343754   157A      0.346054  
     158A      0.349244   159A      0.351831   160A      0.353828  
     161A      0.360961   162A      0.364890   163A      0.370426  
     164A      0.371954   165A      0.373026   166A      0.379273  
     167A      0.381445   168A      0.382648   169A      0.389754  
     170A      0.391216   171A      0.391927   172A      0.403027  
     173A      0.404822   174A      0.406098   175A      0.407779  
     176A      0.413538   177A      0.419774   178A      0.424992  
     179A      0.426539   180A      0.429295   181A      0.430670  
     182A      0.435731   183A      0.440597   184A      0.445333  
     185A      0.452052   186A      0.454838   187A      0.459481  
     188A      0.465603   189A      0.471571   190A      0.475704  
[...]
     128A      0.236845   129A      0.240134   130A      0.242188  
     131A      0.244606   132A      0.247399   133A      0.250990  
     134A      0.256918   135A      0.261645   136A      0.267499  
     137A      0.271381   138A      0.275321   139A      0.279985  
     140A      0.282725   141A      0.283965   142A      0.293292  
     143A      0.294384   144A      0.300426   145A      0.306937  
     146A      0.311969   147A      0.313640   148A      0.319827  
     149A      0.322350   150A      0.323761   151A      0.327819  
     152A      0.331244   153A      0.332645   154A      0.337735  
     155A      0.340312   156A      0.344791   157A      0.345559  
     158A      0.348435   159A      0.351536   160A      0.359055  
     161A      0.361159   162A      0.367761   163A      0.368976  
     164A      0.371334   165A      0.375871   166A      0.379349  
     167A      0.380965   168A      0.384427   169A      0.386748  
     170A      0.390832   171A      0.392337   172A      0.401061  
     173A      0.403836   174A      0.407637   175A      0.408962  
     176A      0.414370   177A      0.419473   178A      0.426142  
     179A      0.428115   180A      0.431036   181A      0.432531  
     182A      0.434377   183A      0.438029   184A      0.444122  
     185A      0.449161   186A      0.455807   187A      0.459003  
     188A      0.464239   189A      0.470449   190A      0.473555  
     191A      0.477864   192A      0.482066   193A      0.488838  
     194A      0.495566   195A      0.503809   196A      0.509261  
     197A      0.517025   198A      0.523390   199A      0.525600  
     200A      0.539124   201A      0.540445   202A      0.545064  
     203A      0.558068   204A      0.562731   205A      0.566779  
     206A      0.568545   207A      0.570212   208A      0.578678  
     209A      0.582635   210A      0.587327   211A      0.591861  
     212A      0.597441   213A      0.604415   214A      0.604719  
     215A      0.611183   216A      0.615257   217A      0.620724  
     218A      0.624976   219A      0.632514   220A      0.634412  
     221A      0.639438   222A      0.644271   223A      0.653271  
     224A      0.660209   225A      0.668202   226A      0.672650  
     227A      0.684396   228A      0.688983   229A      0.694082  
     230A      0.699417   231A      0.700799   232A      0.709770  
     233A      0.712791   234A      0.716870   235A      0.722629  
     236A      0.731203   237A      0.734221   238A      0.738439  
     239A      0.744862   240A      0.750820   241A      0.754250  
     242A      0.761010   243A      0.764277   244A      0.765222  
     245A      0.767843   246A      0.778693   247A      0.780469  
     248A      0.784638   249A      0.786198   250A      0.792029  
     251A      0.795744   252A      0.802074   253A      0.804633  
     254A      0.810199   255A      0.812626   256A      0.814982  
     257A      0.822415   258A      0.826011   259A      0.833704  
     260A      0.837891   261A      0.841990   262A      0.847148  
     263A      0.855538   264A      0.858330   265A      0.861475  
     266A      0.869667   267A      0.872234   268A      0.880687  
     269A      0.883294   270A      0.889960   271A      0.893072  
     272A      0.900994   273A      0.901621   274A      0.904483  
     275A      0.914832   276A      0.917427   277A      0.920617  
     278A      0.926058   279A      0.926407   280A      0.931694  
     281A      0.935862   282A      0.939496   283A      0.943675  
     284A      0.949679   285A      0.956365   286A      0.961219  
     287A      0.963955   288A      0.969935   289A      0.974339  
     290A      0.975529   291A      0.982682   292A      0.985005  
     293A      0.988535   294A      0.989916   295A      0.992862  
     296A      0.996922   297A      0.999692   298A      1.006266  
     299A      1.011827   300A      1.018395   301A      1.022534  
     302A      1.024248   303A      1.029799   304A      1.038966  
     305A      1.047529   306A      1.050724   307A      1.054676  
     308A      1.061472   309A      1.063873   310A      1.070145  
     311A      1.077526   312A      1.079547   313A      1.085939  
     314A      1.089292   315A      1.094920   316A      1.106253  
     317A      1.107774   318A      1.114511   319A      1.120956  
     320A      1.126518   321A      1.130505   322A      1.133390  
     323A      1.137735   324A      1.140848   325A      1.148782  
     326A      1.150698   327A      1.154348   328A      1.161581  
     329A      1.164587   330A      1.171534   331A      1.186133  
     332A      1.194422   333A      1.196364   334A      1.208357  
     335A      1.213133   336A      1.223759   337A      1.227276  
     338A      1.232757   339A      1.243706   340A      1.247833  
     341A      1.253177   342A      1.255558   343A      1.260626  
     344A      1.266932   345A      1.275475   346A      1.277645  
     347A      1.279669   348A      1.290861   349A      1.294845  
     350A      1.303065   351A      1.311863   352A      1.316758  
     353A      1.322178   354A      1.334649   355A      1.337530  
     356A      1.345747   357A      1.351436   358A      1.359371  
     359A      1.366380   360A      1.371251   361A      1.375133  
     362A      1.389706   363A      1.392492   364A      1.396556  
     365A      1.401444   366A      1.408057   367A      1.424052  
     368A      1.428197   369A      1.431996   370A      1.437067  
     371A      1.448253   372A      1.456239   373A      1.462119  
     374A      1.473924   375A      1.481263   376A      1.489873  
     377A      1.495327   378A      1.501642   379A      1.503488  
     380A      1.514635   381A      1.519911   382A      1.524839  
     383A      1.530539   384A      1.543114   385A      1.547540  
     386A      1.549792   387A      1.557020   388A      1.561540  
     389A      1.575984   390A      1.577030   391A      1.589439  
     392A      1.592222   393A      1.603660   394A      1.614868  
     395A      1.622860   396A      1.635530   397A      1.642071  
     398A      1.647843   399A      1.656098   400A      1.660953  
     401A      1.674090   402A      1.675647   403A      1.679622  
     404A      1.690018   405A      1.695578   406A      1.709844  
     407A      1.721347   408A      1.724373   409A      1.729459  
     410A      1.733171   411A      1.740726   412A      1.752712  
     413A      1.759404   414A      1.770270   415A      1.774776  
     416A      1.783467   417A      1.795679   418A      1.798136  
     419A      1.800611   420A      1.811849   421A      1.819624  
     422A      1.823508   423A      1.835524   424A      1.841220  
     425A      1.849266   426A      1.857064   427A      1.859419  
     428A      1.868914   429A      1.877844   430A      1.887716  
     431A      1.891502   432A      1.899350   433A      1.901389  
     434A      1.906892   435A      1.915144   436A      1.921923  
     437A      1.931389   438A      1.939722   439A      1.947531  
     440A      1.951823   441A      1.961267   442A      1.972120  
     443A      1.989376   444A      1.992331   445A      2.001233  
     446A      2.009709   447A      2.020140   448A      2.031319  
     449A      2.036438   450A      2.037957   451A      2.053207  
     452A      2.058487   453A      2.067025   454A      2.067610  
     455A      2.073808   456A      2.082381   457A      2.089990  
     458A      2.100846   459A      2.115561   460A      2.122528  
     461A      2.132650   462A      2.150903   463A      2.163390  
     464A      2.172917   465A      2.181343   466A      2.194337  
     467A      2.196165   468A      2.203904   469A      2.213252  
     470A      2.231355   471A      2.236547   472A      2.242131  
     473A      2.257882   474A      2.260187   475A      2.264700  
     476A      2.286841   477A      2.295404   478A      2.305691  
     479A      2.313277   480A      2.325025   481A      2.331963  
     482A      2.348277   483A      2.365643   484A      2.369727  
     485A      2.373117   486A      2.388788   487A      2.398033  
     488A      2.414648   489A      2.422772   490A      2.426769  
     491A      2.439071   492A      2.445647   493A      2.476550  
     494A      2.491610   495A      2.494370   496A      2.497438  
     497A      2.507149   498A      2.516873   499A      2.536791  
     500A      2.543093   501A      2.561689   502A      2.568893  
     503A      2.574754   504A      2.593818   505A      2.609318  
     506A      2.620679   507A      2.633963   508A      2.647147  
     509A      2.675264   510A      2.689029   511A      2.701038  
     512A      2.721307   513A      2.746180   514A      2.766293  
     515A      2.787039   516A      2.791436   517A      2.800905  
     518A      2.819997   519A      2.848264   520A      2.856558  
     521A      2.898563   522A      2.916008   523A      2.930352  
     524A      2.938974   525A      2.944416   526A      2.968904  
     527A      2.975803   528A      2.987988   529A      2.993743  
     530A      3.013386   531A      3.021361   532A      3.040033  
     533A      3.047883   534A      3.061006   535A      3.067674  
     536A      3.078324   537A      3.102523   538A      3.124269  
     539A      3.136022   540A      3.147174   541A      3.152290  
     542A      3.161183   543A      3.161653   544A      3.179640  
     545A      3.194272   546A      3.199059   547A      3.215239  
     548A      3.220527   549A      3.233228   550A      3.253963  
     551A      3.263950   552A      3.268292   553A      3.277385  
     554A      3.287994   555A      3.298852   556A      3.313684  
     557A      3.320125   558A      3.326050   559A      3.335966  
     560A      3.342139   561A      3.356392   562A      3.357174  
     563A      3.363016   564A      3.374599   565A      3.380502  
     566A      3.388479   567A      3.402995   568A      3.412060  
     569A      3.418303   570A      3.420339   571A      3.426739  
     572A      3.429542   573A      3.445031   574A      3.452818  
     575A      3.464189   576A      3.470492   577A      3.479053  
     578A      3.490533   579A      3.496231   580A      3.506356  
     581A      3.513796   582A      3.523758   583A      3.537743  
     584A      3.550289   585A      3.553261   586A      3.561569  
     587A      3.580910   588A      3.588774   589A      3.598511  
     590A      3.600582   591A      3.617843   592A      3.629728  
     593A      3.637515   594A      3.648966   595A      3.654958  
     596A      3.657241   597A      3.664931   598A      3.674088  
     599A      3.688350   600A      3.695017   601A      3.705452  
     602A      3.713994   603A      3.717372   604A      3.728313  
     605A      3.736620   606A      3.746348   607A      3.758626  
     608A      3.759824   609A      3.770418   610A      3.780962  
     611A      3.784378   612A      3.789866   613A      3.791151  
     614A      3.807017   615A      3.817523   616A      3.829090  
     617A      3.836630   618A      3.845267   619A      3.849791  
     620A      3.860263   621A      3.865550   622A      3.882791  
     623A      3.884920   624A      3.896961   625A      3.902332  
     626A      3.906667   627A      3.921553   628A      3.929967  
     629A      3.940590   630A      3.942217   631A      3.959541  
     632A      3.964137   633A      3.979977   634A      3.989854  
     635A      3.994019   636A      4.002112   637A      4.016642  
     638A      4.021659   639A      4.024446   640A      4.037625  
     641A      4.045286   642A      4.057965   643A      4.061344  
     644A      4.067504   645A      4.074140   646A      4.096342  
     647A      4.097579   648A      4.104478   649A      4.119838  
     650A      4.123257   651A      4.130592   652A      4.146635  
     653A      4.152307   654A      4.164809   655A      4.171817  
     656A      4.182794   657A      4.194853   658A      4.203718  
     659A      4.210794   660A      4.214931   661A      4.226841  
     662A      4.235069   663A      4.243849   664A      4.252541  
     665A      4.253540   666A      4.255785   667A      4.272380  
     668A      4.275728   669A      4.284239   670A      4.297630  
     671A      4.299745   672A      4.321584   673A      4.327313  
     674A      4.338188   675A      4.344543   676A      4.347180  
     677A      4.373434   678A      4.376549   679A      4.385389  
     680A      4.395524   681A      4.403047   682A      4.417677  
     683A      4.422183   684A      4.439824   685A      4.445680  
     686A      4.450101   687A      4.454995   688A      4.471813  
     689A      4.475182   690A      4.491177   691A      4.499369  
     692A      4.505761   693A      4.516273   694A      4.575569  
     695A      4.581034   696A      4.590073   697A      4.599823  
     698A      4.607038   699A      4.622901   700A      4.635104  
     701A      4.642771   702A      4.653450   703A      4.657940  
     704A      4.676148   705A      4.697791   706A      4.706475  
     707A      4.722189   708A      4.733639   709A      4.744966  
     710A      4.757668   711A      4.763689   712A      4.776759  
     713A      4.788911   714A      4.817531   715A      4.824542  
     716A      4.832225   717A      4.839640   718A      4.857584  
     719A      4.860075   720A      4.879627   721A      4.892872  
     722A      4.910382   723A      4.920139   724A      4.930989  
     725A      4.944477   726A      4.947599   727A      4.956713  
     728A      4.968439   729A      4.993384   730A      5.009364  
     731A      5.014658   732A      5.019183   733A      5.039168  
     734A      5.045503   735A      5.055713   736A      5.065593  
     737A      5.068722   738A      5.075651   739A      5.098126  
     740A      5.118962   741A      5.128097   742A      5.161401  
     743A      5.173300   744A      5.187641   745A      5.194275  
     746A      5.214787   747A      5.221847   748A      5.238696  
     749A      5.264831   750A      5.280486   751A      5.287355  
     752A      5.292310   753A      5.334912   754A      5.337234  
     755A      5.349317   756A      5.368948   757A      5.373979  
     758A      5.387322   759A      5.415491   760A      5.420249  
     761A      5.469175   762A      5.474464   763A      5.491863  
     764A      5.510497   765A      5.533393   766A      5.559882  
     767A      5.597805   768A      5.606067   769A      5.627295  
     770A      5.648600   771A      5.677176   772A      5.684471  
     773A      5.697874   774A      5.702570   775A      5.742190  
     776A      5.773264   777A      5.786149   778A      5.834152  
     779A      5.858123   780A      5.906559   781A      5.934588  
     782A      5.971360   783A      5.987218   784A      5.997465  
     785A      6.012235   786A      6.020955   787A      6.081784  
     788A      6.159683   789A      6.177813   790A      6.201789  
     791A      6.225121   792A      6.261177   793A      6.314523  
     794A      6.361556   795A      6.377402   796A      6.410868  
     797A      6.419011   798A      6.465249   799A      6.516682  
     800A      6.555490   801A      6.607269   802A      6.636111  
     803A      6.671724   804A      6.757108   805A      6.759224  
     806A      6.784001   807A      6.833480   808A      6.845388  
     809A      6.902555   810A      6.917915   811A      6.940300  
     812A      6.980205   813A      7.119912   814A      7.167653  
     815A      7.300965   816A      7.315080   817A      7.367196  
     818A      7.439029   819A      7.546065   820A      7.581099  
     821A      7.590896   822A      7.663711   823A      7.889168  
     824A      8.300232   825A      8.569448   826A      8.917183  
     827A      8.954894   828A      9.157218   829A      9.175889  
     830A      9.298361   831A      9.410001   832A      9.447292  
     833A      9.489198   834A      9.538453   835A      9.598519  
     836A      9.929059   837A      9.982565   838A     15.914127  
     839A     16.366024   840A     16.559305   841A     16.629838  
     842A     16.835748   843A     16.938974   844A     18.778877  
     845A     19.261873   846A     19.583468   847A     19.775490  
     848A     20.177154   849A     20.357702   850A     20.453422  
     851A     21.679130  

    Final Occupation by Irrep:
              A 
    DOCC [    49 ]

  Energy converged.

  @DF-RHF Final Energy:  -650.56516806767445

   => Energetics <=

    Nuclear Repulsion Energy =            830.5747054742120099
    One-Electron Energy =               -2521.3130819288894600
    Two-Electron Energy =                1040.1732083870031147
    DFT Exchange-Correlation Energy =       0.0000000000000000
    Empirical Dispersion Energy =           0.0000000000000000
    PCM Polarization Energy =               0.0000000000000000
    EFP Energy =                            0.0000000000000000
    Total Energy =                       -650.5651680676744490



Properties will be evaluated at   0.000000,   0.000000,   0.000000 Bohr

Properties computed using the SCF density matrix

  Nuclear Dipole Moment: (a.u.)
     X:     1.3051      Y:    -0.4604      Z:    -6.3363

  Electronic Dipole Moment: (a.u.)
     X:     1.5093      Y:    -1.0821      Z:     4.1712

  Dipole Moment: (a.u.)
     X:     2.8144      Y:    -1.5424      Z:    -2.1651     Total:     3.8714

  Dipole Moment: (Debye)
     X:     7.1535      Y:    -3.9205      Z:    -5.5031     Total:     9.8400


*** tstop() called on gpu-1-17.local at Sun Nov 12 18:01:04 2017
Module time:
	user time   =    1060.80 seconds =      17.68 minutes
	system time =      43.21 seconds =       0.72 minutes
	total time  =        432 seconds =       7.20 minutes
Total time:
	user time   =  183654.60 seconds =    3060.91 minutes
	system time =    3175.25 seconds =      52.92 minutes
	total time  =      85483 seconds =    1424.72 minutes

  //>>>>>>>>>>>>>>>>>>>>>>>>>>>>>>>>>>>//
  //               DFMP2               //
  //<<<<<<<<<<<<<<<<<<<<<<<<<<<<<<<<<<<//

   => Loading Basis Set <=

    Name: (AUG-CC-PVTZ AUX)
    Role: RIFIT
    Keyword: DF_BASIS_MP2
    atoms 1-11  entry C          line   147 file /cbio/jclab/home/chayas/anaconda/envs/py35/share/psi4/basis/aug-cc-pvtz-ri.gbs 
    atoms 12    entry N          line   205 file /cbio/jclab/home/chayas/anaconda/envs/py35/share/psi4/basis/aug-cc-pvtz-ri.gbs 
    atoms 13    entry O          line   263 file /cbio/jclab/home/chayas/anaconda/envs/py35/share/psi4/basis/aug-cc-pvtz-ri.gbs 
    atoms 14    entry F          line   321 file /cbio/jclab/home/chayas/anaconda/envs/py35/share/psi4/basis/aug-cc-pvtz-ri.gbs 
    atoms 15-23 entry H          line    29 file /cbio/jclab/home/chayas/anaconda/envs/py35/share/psi4/basis/aug-cc-pvtz-ri.gbs 

	 --------------------------------------------------------
	                          DF-MP2                         
	      2nd-Order Density-Fitted Moller-Plesset Theory     
	              RMP2 Wavefunction,   8 Threads             
	                                                         
	        Rob Parrish, Justin Turney, Andy Simmonett,      
	           Ed Hohenstein, and C. David Sherrill          
	 --------------------------------------------------------

   => Auxiliary Basis Set <=

  Basis Set: (AUG-CC-PVTZ AUX)
    Blend: AUG-CC-PVTZ-RI
    Number of shells: 518
    Number of basis function: 1898
    Number of Cartesian functions: 2399
    Spherical Harmonics?: true
    Max angular momentum: 4

	 --------------------------------------------------------
	                 NBF =   851, NAUX =  1898
	 --------------------------------------------------------
	   CLASS    FOCC     OCC    AOCC    AVIR     VIR    FVIR
	   PAIRS       0      49      49     802     802       0
	 --------------------------------------------------------

