
    -----------------------------------------------------------------------
          Psi4: An Open-Source Ab Initio Electronic Structure Package
                               Psi4 1.1 release

                         Git: Rev {HEAD} add49b9 


    R. M. Parrish, L. A. Burns, D. G. A. Smith, A. C. Simmonett,
    A. E. DePrince III, E. G. Hohenstein, U. Bozkaya, A. Yu. Sokolov,
    R. Di Remigio, R. M. Richard, J. F. Gonthier, A. M. James,
    H. R. McAlexander, A. Kumar, M. Saitow, X. Wang, B. P. Pritchard,
    P. Verma, H. F. Schaefer III, K. Patkowski, R. A. King, E. F. Valeev,
    F. A. Evangelista, J. M. Turney, T. D. Crawford, and C. D. Sherrill,
    J. Chem. Theory Comput. in press (2017).
    (doi: 10.1021/acs.jctc.7b00174)

    -----------------------------------------------------------------------


    Psi4 started on: Saturday, 11 November 2017 09:40AM

    Process ID:  10641
    PSIDATADIR: /cbio/jclab/home/chayas/anaconda/envs/py35/share/psi4
    Memory:     500.0 MiB
    Threads:    8
    
  ==> Input File <==

--------------------------------------------------------------------------

molecule phepyr {
  symmetry C1
  0 1 
  C      1.885   -1.036   -0.112
  C      0.807   -0.463   0.561
  C      2.921   -1.631   0.608
  C      0.764   -0.484   1.955
  C      2.878   -1.652   2.002
  C      0.579   -1.444   4.779
  C      2.888   -0.779   4.860
  C      0.588   -1.452   6.164
  C      2.794   -0.816   6.242
  C      1.800   -1.079   2.676
  C      1.755   -1.100   4.122
  N      1.670   -1.145   6.915
  H      1.917   -1.021   -1.198
  H      -0.001   -0.002   0.000
  H      3.760   -2.079   0.084
  H      -0.084   -0.033   2.466
  H      3.693   -2.120   2.550
  H      -0.326   -1.702   4.237
  H      3.824   -0.506   4.382
  H      -0.303   -1.715   6.724
  H      3.650   -0.573   6.863
  units Angstrom
}

dih_string = "4 10 11 6 45"
set optking fixed_dihedral = $dih_string

optimize('MP2/aug-cc-PVTZ')
--------------------------------------------------------------------------
gradient() will perform analytic gradient computation.

*** tstart() called on gpu-2-14.local
*** at Sat Nov 11 09:40:32 2017

    SCF Algorithm Type (re)set to DF.

*** tstart() called on gpu-2-14.local
*** at Sat Nov 11 09:40:32 2017

   => Loading Basis Set <=

    Name: AUG-CC-PVTZ
    Role: ORBITAL
    Keyword: BASIS
    atoms 1-11  entry C          line   221 file /cbio/jclab/home/chayas/anaconda/envs/py35/share/psi4/basis/aug-cc-pvtz.gbs 
    atoms 12    entry N          line   267 file /cbio/jclab/home/chayas/anaconda/envs/py35/share/psi4/basis/aug-cc-pvtz.gbs 
    atoms 13-21 entry H          line    34 file /cbio/jclab/home/chayas/anaconda/envs/py35/share/psi4/basis/aug-cc-pvtz.gbs 


         ---------------------------------------------------------
                                   SCF
            by Justin Turney, Rob Parrish, and Andy Simmonett
                              RHF Reference
                        8 Threads,    500 MiB Core
         ---------------------------------------------------------

  ==> Geometry <==

    Molecular point group: c1
    Full point group: C1

    Geometry (in Angstrom), charge = 0, multiplicity = 1:

       Center              X                  Y                   Z               Mass       
    ------------   -----------------  -----------------  -----------------  -----------------
           C          0.108104833445     0.054404372079    -3.526042728723    12.000000000000
           C         -0.969895166555     0.627404372079    -2.853042728723    12.000000000000
           C          1.144104833445    -0.540595627921    -2.806042728723    12.000000000000
           C         -1.012895166555     0.606404372079    -1.459042728723    12.000000000000
           C          1.101104833445    -0.561595627921    -1.412042728723    12.000000000000
           C         -1.197895166555    -0.353595627921     1.364957271277    12.000000000000
           C          1.111104833445     0.311404372079     1.445957271277    12.000000000000
           C         -1.188895166555    -0.361595627921     2.749957271277    12.000000000000
           C          1.017104833445     0.274404372079     2.827957271277    12.000000000000
           C          0.023104833445     0.011404372079    -0.738042728723    12.000000000000
           C         -0.021895166555    -0.009595627921     0.707957271277    12.000000000000
           N         -0.106895166555    -0.054595627921     3.500957271277    14.003074004780
           H          0.140104833445     0.069404372079    -4.612042728723     1.007825032070
           H         -1.777895166555     1.088404372079    -3.414042728723     1.007825032070
           H          1.983104833445    -0.988595627921    -3.330042728723     1.007825032070
           H         -1.860895166555     1.057404372079    -0.948042728723     1.007825032070
           H          1.916104833445    -1.029595627921    -0.864042728723     1.007825032070
           H         -2.102895166555    -0.611595627921     0.822957271277     1.007825032070
           H          2.047104833445     0.584404372079     0.967957271277     1.007825032070
           H         -2.079895166555    -0.624595627921     3.309957271277     1.007825032070
           H          1.873104833445     0.517404372079     3.448957271277     1.007825032070

  Running in c1 symmetry.

  Rotational constants: A =      0.09744  B =      0.01861  C =      0.01639 [cm^-1]
  Rotational constants: A =   2921.05520  B =    557.77252  C =    491.38976 [MHz]
  Nuclear repulsion =  606.475507212875868

  Charge       = 0
  Multiplicity = 1
  Electrons    = 82
  Nalpha       = 41
  Nbeta        = 41

  ==> Algorithm <==

  SCF Algorithm Type is DF.
  DIIS enabled.
  MOM disabled.
  Fractional occupation disabled.
  Guess Type is SAD.
  Energy threshold   = 1.00e-10
  Density threshold  = 1.00e-10
  Integral threshold = 0.00e+00

  ==> Primary Basis <==

  Basis Set: AUG-CC-PVTZ
    Blend: AUG-CC-PVTZ
    Number of shells: 249
    Number of basis function: 759
    Number of Cartesian functions: 885
    Spherical Harmonics?: true
    Max angular momentum: 3

   => Loading Basis Set <=

    Name: (AUG-CC-PVTZ AUX)
    Role: JKFIT
    Keyword: DF_BASIS_SCF
    atoms 1-11  entry C          line   161 file /cbio/jclab/home/chayas/anaconda/envs/py35/share/psi4/basis/aug-cc-pvtz-jkfit.gbs 
    atoms 12    entry N          line   223 file /cbio/jclab/home/chayas/anaconda/envs/py35/share/psi4/basis/aug-cc-pvtz-jkfit.gbs 
    atoms 13-21 entry H          line    69 file /cbio/jclab/home/chayas/anaconda/envs/py35/share/psi4/basis/aug-cc-pvtz-jkfit.gbs 

  ==> Pre-Iterations <==

   -------------------------------------------------------
    Irrep   Nso     Nmo     Nalpha   Nbeta   Ndocc  Nsocc
   -------------------------------------------------------
     A        759     759       0       0       0       0
   -------------------------------------------------------
    Total     759     759      41      41      41       0
   -------------------------------------------------------

  ==> Integral Setup <==

  ==> DFJK: Density-Fitted J/K Matrices <==

    J tasked:                  Yes
    K tasked:                  Yes
    wK tasked:                  No
    OpenMP threads:              8
    Integrals threads:           8
    Memory (MB):               375
    Algorithm:                Disk
    Integral Cache:           NONE
    Schwarz Cutoff:          1E-12
    Fitting Condition:       1E-12

   => Auxiliary Basis Set <=

  Basis Set: (AUG-CC-PVTZ AUX)
    Blend: AUG-CC-PVTZ-JKFIT
    Number of shells: 486
    Number of basis function: 1662
    Number of Cartesian functions: 2067
    Spherical Harmonics?: true
    Max angular momentum: 4

  Minimum eigenvalue in the overlap matrix is 4.5706919591E-07.
  Using Symmetric Orthogonalization.

  SCF Guess: Superposition of Atomic Densities via on-the-fly atomic UHF.

  ==> Iterations <==

                           Total Energy        Delta E     RMS |[F,P]|

   @DF-RHF iter   0:  -480.64038818648663   -4.80640e+02   1.63160e-02 
   @DF-RHF iter   1:  -476.08297080630120    4.55742e+00   2.02599e-03 
   @DF-RHF iter   2:  -476.35738093176127   -2.74410e-01   7.07742e-04 DIIS
   @DF-RHF iter   3:  -476.38722981074892   -2.98489e-02   3.81965e-04 DIIS
   @DF-RHF iter   4:  -476.39626302558923   -9.03321e-03   1.21270e-04 DIIS
   @DF-RHF iter   5:  -476.39708533000947   -8.22304e-04   3.46656e-05 DIIS
   @DF-RHF iter   6:  -476.39720271036856   -1.17380e-04   1.36571e-05 DIIS
   @DF-RHF iter   7:  -476.39722945206552   -2.67417e-05   5.94570e-06 DIIS
   @DF-RHF iter   8:  -476.39723363826278   -4.18620e-06   2.62179e-06 DIIS
   @DF-RHF iter   9:  -476.39723485993323   -1.22167e-06   1.10942e-06 DIIS
   @DF-RHF iter  10:  -476.39723513801675   -2.78084e-07   5.53641e-07 DIIS
   @DF-RHF iter  11:  -476.39723520475673   -6.67400e-08   1.59797e-07 DIIS
   @DF-RHF iter  12:  -476.39723520920580   -4.44908e-09   5.31450e-08 DIIS
   @DF-RHF iter  13:  -476.39723520957443   -3.68630e-10   2.29553e-08 DIIS
   @DF-RHF iter  14:  -476.39723520966407   -8.96421e-11   9.93733e-09 DIIS
   @DF-RHF iter  15:  -476.39723520966356    5.11591e-13   5.08501e-09 DIIS
   @DF-RHF iter  16:  -476.39723520965731    6.25278e-12   2.40633e-09 DIIS
   @DF-RHF iter  17:  -476.39723520969369   -3.63798e-11   8.91095e-10 DIIS
   @DF-RHF iter  18:  -476.39723520967777    1.59162e-11   3.23454e-10 DIIS
   @DF-RHF iter  19:  -476.39723520964617    3.16049e-11   1.41416e-10 DIIS
   @DF-RHF iter  20:  -476.39723520967317   -2.70006e-11   6.12470e-11 DIIS

  ==> Post-Iterations <==

    Orbital Energies (a.u.)
    -----------------------

    Doubly Occupied:                                                      

       1A    -15.564566     2A    -11.275082     3A    -11.275050  
       4A    -11.263630     5A    -11.251316     6A    -11.246529  
       7A    -11.246394     8A    -11.245320     9A    -11.245147  
      10A    -11.243947    11A    -11.238484    12A    -11.238413  
      13A     -1.250604    14A     -1.174260    15A     -1.107317  
      16A     -1.037161    17A     -1.024159    18A     -1.016023  
      19A     -0.881507    20A     -0.864699    21A     -0.829250  
      22A     -0.805844    23A     -0.731644    24A     -0.682127  
      25A     -0.670796    26A     -0.660624    27A     -0.631049  
      28A     -0.628559    29A     -0.603548    30A     -0.593709  
      31A     -0.578507    32A     -0.543090    33A     -0.525796  
      34A     -0.510855    35A     -0.506708    36A     -0.500081  
      37A     -0.419327    38A     -0.397393    39A     -0.350557  
      40A     -0.347098    41A     -0.325922  

    Virtual:                                                              

      42A      0.025171    43A      0.029642    44A      0.032633  
      45A      0.038359    46A      0.043493    47A      0.045867  
      48A      0.052740    49A      0.055563    50A      0.060706  
      51A      0.074400    52A      0.083526    53A      0.087544  
      54A      0.092403    55A      0.095382    56A      0.098663  
      57A      0.102253    58A      0.105832    59A      0.109874  
      60A      0.111787    61A      0.114699    62A      0.114854  
      63A      0.120628    64A      0.120979    65A      0.127130  
      66A      0.129573    67A      0.132534    68A      0.132886  
      69A      0.136546    70A      0.144372    71A      0.144886  
      72A      0.147202    73A      0.151418    74A      0.152053  
      75A      0.155638    76A      0.159544    77A      0.167073  
      78A      0.172068    79A      0.177547    80A      0.180835  
      81A      0.183229    82A      0.190256    83A      0.202785  
      84A      0.206225    85A      0.218508    86A      0.224834  
      87A      0.226172    88A      0.233661    89A      0.235942  
      90A      0.236343    91A      0.242530    92A      0.247026  
      93A      0.250362    94A      0.255135    95A      0.259506  
      96A      0.267426    97A      0.269289    98A      0.270385  
      99A      0.272557   100A      0.279887   101A      0.283254  
     102A      0.289912   103A      0.294233   104A      0.296999  
     105A      0.297227   106A      0.301684   107A      0.306097  
     108A      0.310988   109A      0.318063   110A      0.321351  
     111A      0.322323   112A      0.325399   113A      0.333189  
     114A      0.333419   115A      0.337870   116A      0.347114  
     117A      0.349476   118A      0.360406   119A      0.363083  
     120A      0.368459   121A      0.369187   122A      0.374922  
     123A      0.378940   124A      0.385591   125A      0.394107  
     126A      0.400234   127A      0.410766   128A      0.410947  
     129A      0.414602   130A      0.421655   131A      0.429877  
     132A      0.434368   133A      0.436948   134A      0.440449  
     135A      0.440775   136A      0.445219   137A      0.446002  
     138A      0.448711   139A      0.464139   140A      0.466408  
     141A      0.471640   142A      0.472221   143A      0.477496  
     144A      0.477632   145A      0.480953   146A      0.481381  
     147A      0.483859   148A      0.484495   149A      0.496016  
     150A      0.496240   151A      0.500256   152A      0.506734  
     153A      0.510111   154A      0.513272   155A      0.515271  
     156A      0.516761   157A      0.522813   158A      0.524257  
     159A      0.526067   160A      0.529072   161A      0.531578  
     162A      0.536191   163A      0.540494   164A      0.544182  
     165A      0.548881   166A      0.552460   167A      0.553431  
     168A      0.560875   169A      0.564355   170A      0.574125  
     171A      0.581886   172A      0.582280   173A      0.585859  
     174A      0.595745   175A      0.601598   176A      0.604480  
     177A      0.611802   178A      0.619826   179A      0.629427  
     180A      0.635365   181A      0.638200   182A      0.647883  
     183A      0.664334   184A      0.672719   185A      0.674309  
     186A      0.674643   187A      0.686958   188A      0.693859  
     189A      0.696766   190A      0.702731   191A      0.710505  
     192A      0.710713   193A      0.713035   194A      0.715483  
     195A      0.723750   196A      0.725644   197A      0.730069  
     198A      0.746966   199A      0.748270   200A      0.749368  
     201A      0.753237   202A      0.755741   203A      0.763162  
     204A      0.772427   205A      0.777537   206A      0.789943  
     207A      0.799649   208A      0.802797   209A      0.812069  
     210A      0.816146   211A      0.826332   212A      0.835295  
     213A      0.835771   214A      0.842902   215A      0.848927  
     216A      0.859316   217A      0.861672   218A      0.865893  
     219A      0.867758   220A      0.878699   221A      0.880819  
     222A      0.882909   223A      0.885997   224A      0.890439  
     225A      0.892196   226A      0.894516   227A      0.901733  
     228A      0.912963   229A      0.916885   230A      0.917972  
     231A      0.926197   232A      0.926907   233A      0.935584  
     234A      0.942193   235A      0.945129   236A      0.946035  
     237A      0.949052   238A      0.951617   239A      0.957081  
     240A      0.961088   241A      0.969268   242A      0.982205  
     243A      0.984505   244A      0.987027   245A      0.996163  
     246A      0.999234   247A      1.001162   248A      1.008525  
     249A      1.010998   250A      1.018949   251A      1.022805  
     252A      1.027524   253A      1.029772   254A      1.041505  
     255A      1.043132   256A      1.047380   257A      1.057156  
     258A      1.064075   259A      1.068449   260A      1.071627  
     261A      1.074903   262A      1.075103   263A      1.077222  
     264A      1.079626   265A      1.084025   266A      1.089864  
     267A      1.095716   268A      1.101019   269A      1.105365  
     270A      1.109873   271A      1.123092   272A      1.124960  
     273A      1.131531   274A      1.131821   275A      1.140459  
     276A      1.148824   277A      1.149362   278A      1.151388  
     279A      1.159991   280A      1.161055   281A      1.170986  
     282A      1.173549   283A      1.175522   284A      1.179366  
     285A      1.183853   286A      1.188716   287A      1.197310  
     288A      1.205740   289A      1.211120   290A      1.212239  
     291A      1.216386   292A      1.224314   293A      1.225417  
     294A      1.238821   295A      1.241729   296A      1.246188  
     297A      1.251841   298A      1.259338   299A      1.260504  
     300A      1.263386   301A      1.283051   302A      1.284480  
     303A      1.286788   304A      1.293048   305A      1.293298  
     306A      1.314328   307A      1.315883   308A      1.321114  
     309A      1.323116   310A      1.340461   311A      1.342499  
     312A      1.347655   313A      1.356282   314A      1.370101  
     315A      1.374393   316A      1.383369   317A      1.384981  
     318A      1.393700   319A      1.407947   320A      1.411032  
     321A      1.415573   322A      1.424832   323A      1.435819  
     324A      1.443968   325A      1.451409   326A      1.456585  
     327A      1.465873   328A      1.475541   329A      1.491324  
     330A      1.494245   331A      1.503346   332A      1.503600  
     333A      1.517519   334A      1.517701   335A      1.532026  
     336A      1.534831   337A      1.555377   338A      1.570254  
     339A      1.571717   340A      1.581908   341A      1.582341  
     342A      1.590701   343A      1.601023   344A      1.604415  
     345A      1.620887   346A      1.627209   347A      1.641118  
     348A      1.649975   349A      1.657507   350A      1.659202  
     351A      1.671123   352A      1.675787   353A      1.692140  
     354A      1.694717   355A      1.710553   356A      1.713695  
     357A      1.714064   358A      1.726118   359A      1.726602  
     360A      1.733352   361A      1.742134   362A      1.745867  
     363A      1.748985   364A      1.759119   365A      1.765242  
     366A      1.773292   367A      1.783136   368A      1.805088  
     369A      1.811717   370A      1.818127   371A      1.819522  
     372A      1.825493   373A      1.833315   374A      1.846176  
     375A      1.848399   376A      1.856030   377A      1.882448  
     378A      1.882770   379A      1.899775   380A      1.904953  
     381A      1.912179   382A      1.915376   383A      1.930529  
     384A      1.931239   385A      1.938164   386A      1.951215  
     387A      1.953667   388A      1.969276   389A      1.969455  
     390A      1.992011   391A      1.994520   392A      1.999597  
     393A      2.004121   394A      2.011655   395A      2.017480  
     396A      2.019408   397A      2.022452   398A      2.029527  
     399A      2.036260   400A      2.049724   401A      2.055321  
     402A      2.066405   403A      2.071655   404A      2.072548  
     405A      2.088010   406A      2.092520   407A      2.096216  
     408A      2.110314   409A      2.118680   410A      2.127807  
     411A      2.129117   412A      2.138028   413A      2.149389  
     414A      2.157365   415A      2.169391   416A      2.173415  
     417A      2.175420   418A      2.197201   419A      2.203756  
     420A      2.206593   421A      2.207501   422A      2.219150  
     423A      2.242086   424A      2.258068   425A      2.260610  
     426A      2.267670   427A      2.287057   428A      2.290104  
     429A      2.310038   430A      2.313808   431A      2.338204  
     432A      2.339591   433A      2.341117   434A      2.351795  
     435A      2.358061   436A      2.364923   437A      2.369426  
     438A      2.373173   439A      2.390194   440A      2.396529  
     441A      2.413997   442A      2.416656   443A      2.424748  
     444A      2.434299   445A      2.462918   446A      2.474951  
     447A      2.475934   448A      2.502614   449A      2.520594  
     450A      2.521420   451A      2.536811   452A      2.544638  
     453A      2.569969   454A      2.572042   455A      2.574660  
     456A      2.579206   457A      2.607297   458A      2.612055  
     459A      2.636089   460A      2.639797   461A      2.645984  
     462A      2.662771   463A      2.717262   464A      2.731303  
     465A      2.764534   466A      2.769213   467A      2.773240  
     468A      2.776784   469A      2.804108   470A      2.807496  
     471A      2.829962   472A      2.856063   473A      2.864801  
     474A      2.871310   475A      2.887631   476A      2.967427  
     477A      2.975905   478A      3.006504   479A      3.066457  
     480A      3.066542   481A      3.086175   482A      3.130631  
     483A      3.180452   484A      3.188509   485A      3.192570  
     486A      3.203882   487A      3.208748   488A      3.227542  
     489A      3.230914   490A      3.248318   491A      3.272313  
     492A      3.282578   493A      3.300813   494A      3.336754  
     495A      3.345964   496A      3.347732   497A      3.364426  
     498A      3.369742   499A      3.375226   500A      3.382212  
     501A      3.397449   502A      3.401689   503A      3.422338  
     504A      3.435214   505A      3.437252   506A      3.441287  
     507A      3.445092   508A      3.450207   509A      3.468358  
     510A      3.477886   511A      3.491052   512A      3.493783  
     513A      3.500332   514A      3.511202   515A      3.534024  
     516A      3.536809   517A      3.537075   518A      3.544194  
     519A      3.553762   520A      3.566486   521A      3.569159  
     522A      3.581270   523A      3.582525   524A      3.590025  
     525A      3.592610   526A      3.609656   527A      3.618674  
     528A      3.623405   529A      3.644106   530A      3.660461  
     531A      3.669470   532A      3.672103   533A      3.690035  
     534A      3.693367   535A      3.697779   536A      3.721363  
     537A      3.725941   538A      3.729639   539A      3.751938  
     540A      3.754828   541A      3.780913   542A      3.782519  
     543A      3.787286   544A      3.801180   545A      3.818019  
     546A      3.823110   547A      3.824466   548A      3.837775  
     549A      3.841768   550A      3.851142   551A      3.856761  
     552A      3.862024   553A      3.866138   554A      3.885646  
     555A      3.891041   556A      3.897823   557A      3.917575  
     558A      3.927975   559A      3.929598   560A      3.938961  
     561A      3.943912   562A      3.947561   563A      3.947701  
     564A      3.976614   565A      3.992589   566A      3.996055  
     567A      4.010202   568A      4.011202   569A      4.023729  
     570A      4.025414   571A      4.028212   572A      4.029927  
     573A      4.038008   574A      4.057561   575A      4.058001  
     576A      4.070913   577A      4.081872   578A      4.089412  
     579A      4.105667   580A      4.111668   581A      4.129045  
     582A      4.135443   583A      4.139847   584A      4.146481  
     585A      4.155472   586A      4.155610   587A      4.169278  
     588A      4.174280   589A      4.191581   590A      4.203811  
     591A      4.215104   592A      4.221964   593A      4.233390  
     594A      4.234928   595A      4.254746   596A      4.272378  
     597A      4.274274   598A      4.305887   599A      4.310867  
     600A      4.315862   601A      4.317939   602A      4.334000  
     603A      4.339767   604A      4.346722   605A      4.359381  
     606A      4.361979   607A      4.371753   608A      4.380648  
     609A      4.387714   610A      4.392697   611A      4.416107  
     612A      4.419137   613A      4.432173   614A      4.439653  
     615A      4.446430   616A      4.448400   617A      4.455106  
     618A      4.471200   619A      4.489567   620A      4.498200  
     621A      4.501042   622A      4.505369   623A      4.518173  
     624A      4.520072   625A      4.527708   626A      4.533172  
     627A      4.549215   628A      4.592413   629A      4.595239  
     630A      4.618621   631A      4.636545   632A      4.660957  
     633A      4.674596   634A      4.693537   635A      4.711202  
     636A      4.715366   637A      4.734152   638A      4.741621  
     639A      4.749771   640A      4.759332   641A      4.768992  
     642A      4.773163   643A      4.806744   644A      4.813198  
     645A      4.830795   646A      4.866450   647A      4.875437  
     648A      4.885556   649A      4.907290   650A      4.920491  
     651A      4.955855   652A      4.957997   653A      4.972024  
     654A      4.975649   655A      4.989094   656A      4.992129  
     657A      5.001202   658A      5.030166   659A      5.032174  
     660A      5.042078   661A      5.047343   662A      5.061675  
     663A      5.065265   664A      5.083732   665A      5.096499  
     666A      5.102114   667A      5.117873   668A      5.124994  
     669A      5.155265   670A      5.161182   671A      5.162365  
     672A      5.166732   673A      5.176860   674A      5.180693  
     675A      5.198414   676A      5.199121   677A      5.222769  
     678A      5.228534   679A      5.232990   680A      5.243758  
     681A      5.278609   682A      5.287636   683A      5.323739  
     684A      5.332083   685A      5.339796   686A      5.347617  
     687A      5.358458   688A      5.380279   689A      5.382477  
     690A      5.401121   691A      5.426019   692A      5.450671  
     693A      5.460808   694A      5.462144   695A      5.482845  
     696A      5.489827   697A      5.519314   698A      5.519431  
     699A      5.556727   700A      5.577253   701A      5.589784  
     702A      5.652123   703A      5.661136   704A      5.701153  
     705A      5.750407   706A      5.755066   707A      5.773166  
     708A      5.791262   709A      5.796377   710A      5.820948  
     711A      5.830346   712A      5.860071   713A      5.863761  
     714A      5.881312   715A      5.911199   716A      5.979910  
     717A      5.998607   718A      6.082145   719A      6.141815  
     720A      6.173430   721A      6.191434   722A      6.226484  
     723A      6.254375   724A      6.256457   725A      6.291296  
     726A      6.303552   727A      6.364311   728A      6.369307  
     729A      6.411749   730A      6.484713   731A      6.511824  
     732A      6.560869   733A      6.591123   734A      6.622523  
     735A      6.703343   736A      6.717194   737A      6.734513  
     738A      6.782107   739A      6.874514   740A      6.902254  
     741A      6.932503   742A      7.008461   743A      7.032231  
     744A      7.093804   745A      7.177898   746A      7.350957  
     747A      7.432746   748A     15.620856   749A     16.234636  
     750A     16.588886   751A     16.693763   752A     18.425003  
     753A     18.732000   754A     18.997406   755A     19.238699  
     756A     19.949242   757A     20.117819   758A     20.227633  
     759A     21.981309  

    Final Occupation by Irrep:
              A 
    DOCC [    41 ]

  Energy converged.

  @DF-RHF Final Energy:  -476.39723520967317

   => Energetics <=

    Nuclear Repulsion Energy =            606.4755072128758684
    One-Electron Energy =               -1846.6813019183462075
    Two-Electron Energy =                 763.8085594957972262
    DFT Exchange-Correlation Energy =       0.0000000000000000
    Empirical Dispersion Energy =           0.0000000000000000
    PCM Polarization Energy =               0.0000000000000000
    EFP Energy =                            0.0000000000000000
    Total Energy =                       -476.3972352096732266



Properties will be evaluated at   0.000000,   0.000000,   0.000000 Bohr

Properties computed using the SCF density matrix

  Nuclear Dipole Moment: (a.u.)
     X:     0.1296      Y:     0.0589      Z:    -4.3398

  Electronic Dipole Moment: (a.u.)
     X:    -0.0967      Y:    -0.0440      Z:     3.2337

  Dipole Moment: (a.u.)
     X:     0.0329      Y:     0.0149      Z:    -1.1061     Total:     1.1067

  Dipole Moment: (Debye)
     X:     0.0836      Y:     0.0379      Z:    -2.8114     Total:     2.8129


*** tstop() called on gpu-2-14.local at Sat Nov 11 09:46:39 2017
Module time:
	user time   =    1268.72 seconds =      21.15 minutes
	system time =      38.66 seconds =       0.64 minutes
	total time  =        367 seconds =       6.12 minutes
Total time:
	user time   =    1268.72 seconds =      21.15 minutes
	system time =      38.66 seconds =       0.64 minutes
	total time  =        367 seconds =       6.12 minutes

  //>>>>>>>>>>>>>>>>>>>>>>>>>>>>>>>>>>>//
  //               DFMP2               //
  //<<<<<<<<<<<<<<<<<<<<<<<<<<<<<<<<<<<//

   => Loading Basis Set <=

    Name: (AUG-CC-PVTZ AUX)
    Role: RIFIT
    Keyword: DF_BASIS_MP2
    atoms 1-11  entry C          line   147 file /cbio/jclab/home/chayas/anaconda/envs/py35/share/psi4/basis/aug-cc-pvtz-ri.gbs 
    atoms 12    entry N          line   205 file /cbio/jclab/home/chayas/anaconda/envs/py35/share/psi4/basis/aug-cc-pvtz-ri.gbs 
    atoms 13-21 entry H          line    29 file /cbio/jclab/home/chayas/anaconda/envs/py35/share/psi4/basis/aug-cc-pvtz-ri.gbs 

	 --------------------------------------------------------
	                          DF-MP2                         
	      2nd-Order Density-Fitted Moller-Plesset Theory     
	              RMP2 Wavefunction,   8 Threads             
	                                                         
	        Rob Parrish, Justin Turney, Andy Simmonett,      
	           Ed Hohenstein, and C. David Sherrill          
	 --------------------------------------------------------

   => Auxiliary Basis Set <=

  Basis Set: (AUG-CC-PVTZ AUX)
    Blend: AUG-CC-PVTZ-RI
    Number of shells: 462
    Number of basis function: 1686
    Number of Cartesian functions: 2127
    Spherical Harmonics?: true
    Max angular momentum: 4

	 --------------------------------------------------------
	                 NBF =   759, NAUX =  1686
	 --------------------------------------------------------
	   CLASS    FOCC     OCC    AOCC    AVIR     VIR    FVIR
	   PAIRS       0      41      41     718     718       0
	 --------------------------------------------------------


         ------------------------------------------------------------
                                     CPHF                           
                                  Rob Parrish                       
         ------------------------------------------------------------

  ==> Geometry <==

    Molecular point group: c1
    Full point group: C1

    Geometry (in Angstrom), charge = 0, multiplicity = 1:

       Center              X                  Y                   Z               Mass       
    ------------   -----------------  -----------------  -----------------  -----------------
           C          0.108104833445     0.054404372079    -3.526042728723    12.000000000000
           C         -0.969895166555     0.627404372079    -2.853042728723    12.000000000000
           C          1.144104833445    -0.540595627921    -2.806042728723    12.000000000000
           C         -1.012895166555     0.606404372079    -1.459042728723    12.000000000000
           C          1.101104833445    -0.561595627921    -1.412042728723    12.000000000000
           C         -1.197895166555    -0.353595627921     1.364957271277    12.000000000000
           C          1.111104833445     0.311404372079     1.445957271277    12.000000000000
           C         -1.188895166555    -0.361595627921     2.749957271277    12.000000000000
           C          1.017104833445     0.274404372079     2.827957271277    12.000000000000
           C          0.023104833445     0.011404372079    -0.738042728723    12.000000000000
           C         -0.021895166555    -0.009595627921     0.707957271277    12.000000000000
           N         -0.106895166555    -0.054595627921     3.500957271277    14.003074004780
           H          0.140104833445     0.069404372079    -4.612042728723     1.007825032070
           H         -1.777895166555     1.088404372079    -3.414042728723     1.007825032070
           H          1.983104833445    -0.988595627921    -3.330042728723     1.007825032070
           H         -1.860895166555     1.057404372079    -0.948042728723     1.007825032070
           H          1.916104833445    -1.029595627921    -0.864042728723     1.007825032070
           H         -2.102895166555    -0.611595627921     0.822957271277     1.007825032070
           H          2.047104833445     0.584404372079     0.967957271277     1.007825032070
           H         -2.079895166555    -0.624595627921     3.309957271277     1.007825032070
           H          1.873104833445     0.517404372079     3.448957271277     1.007825032070

  Nuclear repulsion =  606.475507212875868
  Reference energy  = -476.397235209673170

  ==> Basis Set <==

  Basis Set: AUG-CC-PVTZ
    Blend: AUG-CC-PVTZ
    Number of shells: 249
    Number of basis function: 759
    Number of Cartesian functions: 885
    Spherical Harmonics?: true
    Max angular momentum: 3

  ==> CGRSolver (by Rob Parrish) <==

   Number of roots    =         1
   Preconditioning    =    JACOBI
   Convergence cutoff =     1E-06
   Maximum iterations =       100

  ==> CPHFRHamiltonian (by Rob Parrish) <== 

  ==> DFJK: Density-Fitted J/K Matrices <==

    J tasked:                  Yes
    K tasked:                  Yes
    wK tasked:                  No
    OpenMP threads:              8
    Integrals threads:           8
    Memory (MB):               375
    Algorithm:                Disk
    Integral Cache:           NONE
    Schwarz Cutoff:          1E-12
    Fitting Condition:       1E-12

   => Auxiliary Basis Set <=

  Basis Set: (AUG-CC-PVTZ AUX)
    Blend: AUG-CC-PVTZ-JKFIT
    Number of shells: 486
    Number of basis function: 1662
    Number of Cartesian functions: 2067
    Spherical Harmonics?: true
    Max angular momentum: 4

  ==> CPHF Iterations <==

  => Iterations <=

             Iter  Converged  Remaining    Residual
  CGR           1          0          1   8.230E-02
  CGR           2          0          1   3.095E-02
  CGR           3          0          1   2.135E-02
  CGR           4          0          1   9.034E-03
  CGR           5          0          1   2.566E-03
  CGR           6          0          1   9.287E-04
  CGR           7          0          1   3.940E-04
  CGR           8          0          1   1.512E-04
  CGR           9          0          1   7.793E-05
  CGR          10          0          1   3.369E-05
  CGR          11          0          1   7.949E-06
  CGR          12          0          1   3.001E-06
  CGR          13          1          0   8.257E-07

    CGRSolver converged.

  ==> DFCorrGrad: Density-Fitted Correlated Gradients <==

    OpenMP threads:              8
    Integrals threads:           8
    Memory (MB):               375
    Schwarz Cutoff:          0E+00
    Fitting Condition:       1E-12

   => Auxiliary Basis Set <=

  Basis Set: (AUG-CC-PVTZ AUX)
    Blend: AUG-CC-PVTZ-JKFIT
    Number of shells: 486
    Number of basis function: 1662
    Number of Cartesian functions: 2067
    Spherical Harmonics?: true
    Max angular momentum: 4

	-----------------------------------------------------------
	 ==================> DF-MP2 Energies <==================== 
	-----------------------------------------------------------
	 Reference Energy          =    -476.3972352096731697 [Eh]
	 Singles Energy            =      -0.0000000000000001 [Eh]
	 Same-Spin Energy          =      -0.5349217195093930 [Eh]
	 Opposite-Spin Energy      =      -1.6428620195682331 [Eh]
	 Correlation Energy        =      -2.1777837390776260 [Eh]
	 Total Energy              =    -478.5750189487508237 [Eh]
	-----------------------------------------------------------
	 ================> DF-SCS-MP2 Energies <================== 
	-----------------------------------------------------------
	 SCS Same-Spin Scale       =       0.3333333333333333 [-]
	 SCS Opposite-Spin Scale   =       1.2000000000000000 [-]
	 SCS Same-Spin Energy      =      -0.1783072398364643 [Eh]
	 SCS Opposite-Spin Energy  =      -1.9714344234818797 [Eh]
	 SCS Correlation Energy    =      -2.1497416633183439 [Eh]
	 SCS Total Energy          =    -478.5469768729915359 [Eh]
	-----------------------------------------------------------


  -Total Gradient:
     Atom            X                  Y                   Z
    ------   -----------------  -----------------  -----------------
       1       -0.000431633927     0.000407386246     0.000254516069
       2       -0.000484378466     0.000862657240    -0.001630727146
       3        0.001475539394    -0.001126543044    -0.001448076035
       4        0.002357642013     0.001424860875     0.009637502574
       5       -0.003515081043    -0.001314755567     0.009571197272
       6       -0.001700383102    -0.002856404309    -0.007901746544
       7        0.002204140990     0.003131065492    -0.008031696952
       8       -0.007477745010    -0.002693927188    -0.011490151094
       9        0.006990747672     0.002622038348    -0.010321849526
      10        0.000409304289    -0.000650239666     0.007511126619
      11       -0.000011773103     0.000228472278     0.003362630960
      12        0.000336709178     0.000040691838     0.016568974627
      13        0.000087367932     0.000029386002    -0.005065637905
      14       -0.003802401115     0.001713049510    -0.002545675122
      15        0.003676094609    -0.001712130086    -0.002228109043
      16       -0.006007275763     0.002110019961     0.000493277986
      17        0.005913347282    -0.002120728678     0.000779151744
      18       -0.005476039436    -0.000553769950    -0.000877857636
      19        0.005409613210     0.000522206514    -0.000623868536
      20       -0.001828338242    -0.000285273308     0.001891247652
      21        0.001874542644     0.000221937490     0.002095770032


*** tstop() called on gpu-2-14.local at Sat Nov 11 10:12:23 2017
Module time:
	user time   =    5952.29 seconds =      99.20 minutes
	system time =      95.89 seconds =       1.60 minutes
	total time  =       1911 seconds =      31.85 minutes
Total time:
	user time   =    5952.29 seconds =      99.20 minutes
	system time =      95.89 seconds =       1.60 minutes
	total time  =       1911 seconds =      31.85 minutes

			-----------------------------------------
			 OPTKING 2.0: for geometry optimizations 
			  - R.A. King,  Bethel University        
			-----------------------------------------

	Internal coordinates to be generated automatically.
	Detected frag 1 with atoms:  1 2 3 4 5 6 7 8 9 10 11 12 13 14 15 16 17 18 19 20
	 21
	---Fragment 1 Bond Connectivity---
	 1 : 2 3 13
	 2 : 1 4 14
	 3 : 1 5 15
	 4 : 2 10 16
	 5 : 3 10 17
	 6 : 8 11 18
	 7 : 9 11 19
	 8 : 6 12 20
	 9 : 7 12 21
	 10 : 4 5 11
	 11 : 6 7 10
	 12 : 8 9
	 13 : 1
	 14 : 2
	 15 : 3
	 16 : 4
	 17 : 5
	 18 : 6
	 19 : 7
	 20 : 8
	 21 : 9

	Assuming in current code that numbering for constraints corresponds to unified fragment.
	Fixed dihedral atom list: 
	     4    10    11     6
	---Fragment 1 Geometry and Gradient---
	 C           0.2042885289        0.1028093637       -6.6632550901
	 C          -1.8328362424        1.1856224378       -5.3914694027
	 C           2.1620448025       -1.0215776854       -5.3026522745
	 C          -1.9140944661        1.1459381890       -2.7571911735
	 C           2.0807865788       -1.0612619342       -2.6683740452
	 C          -2.2636938007       -0.6681988986        2.5793954258
	 C           2.0996838401        0.5884689798        2.7324632426
	 C          -2.2466862655       -0.6833167076        5.1966661199
	 C           1.9220495836        0.5185491129        5.3440647582
	 C           0.0436618076        0.0215511399       -1.3946986317
	 C          -0.0413758684       -0.0181331088        1.3378453565
	 N          -0.2020025897       -0.1031707848        6.6158504456
	 H           0.2647597651        0.1311552557       -8.7154976705
	 H          -3.3597349578        2.0567861851       -6.4516057633
	 H           3.7475250280       -1.8681749929       -6.2928687681
	 H          -3.5165822268        1.9982046749       -1.7915411196
	 H           3.6209133771       -1.9456537644       -1.6328041244
	 H          -3.9738959510       -1.1557482408        1.5551638618
	 H           3.8684675005        1.1043642141        1.8291741510
	 H          -3.9304322499       -1.1803146806        6.2549127543
	 H           3.5396551534        0.9777525632        6.5175846867
	            -0.0004316339        0.0004073862        0.0002545161
	            -0.0004843785        0.0008626572       -0.0016307271
	             0.0014755394       -0.0011265430       -0.0014480760
	             0.0023576420        0.0014248609        0.0096375026
	            -0.0035150810       -0.0013147556        0.0095711973
	            -0.0017003831       -0.0028564043       -0.0079017465
	             0.0022041410        0.0031310655       -0.0080316970
	            -0.0074777450       -0.0026939272       -0.0114901511
	             0.0069907477        0.0026220383       -0.0103218495
	             0.0004093043       -0.0006502397        0.0075111266
	            -0.0000117731        0.0002284723        0.0033626310
	             0.0003367092        0.0000406918        0.0165689746
	             0.0000873679        0.0000293860       -0.0050656379
	            -0.0038024011        0.0017130495       -0.0025456751
	             0.0036760946       -0.0017121301       -0.0022281090
	            -0.0060072758        0.0021100200        0.0004932780
	             0.0059133473       -0.0021207287        0.0007791517
	            -0.0054760394       -0.0005537699       -0.0008778576
	             0.0054096132        0.0005222065       -0.0006238685
	            -0.0018283382       -0.0002852733        0.0018912477
	             0.0018745426        0.0002219375        0.0020957700

	Previous optimization step data not found.  Starting new optimization.

	---Fragment 1 Intrafragment Coordinates---
	 - Coordinate -           - BOHR/RAD -       - ANG/DEG -
	 R(1,2)           =         2.634350	       1.394038
	 R(1,3)           =         2.635962	       1.394891
	 R(1,13)          =         2.053329	       1.086575
	 R(2,4)           =         2.635830	       1.394821
	 R(2,14)          =         2.052860	       1.086327
	 R(3,5)           =         2.635830	       1.394821
	 R(3,15)          =         2.052073	       1.085910
	 R(4,10)          =         2.636938	       1.395407
	 R(4,16)          =         2.055920	       1.087946
	 R(5,10)          =         2.635263	       1.394521
	 R(5,17)          =         2.055856	       1.087912
	 R(6,8)           =         2.617370	       1.385052
	 R(6,11)          =         2.627305	       1.390310
	 R(6,18)          =         2.052205	       1.085980
	 R(7,9)           =         2.618569	       1.385687
	 R(7,11)          =         2.626226	       1.389739
	 R(7,19)          =         2.051993	       1.085868
	 R(8,12)          =         2.555657	       1.352396
	 R(8,20)          =         2.049852	       1.084735
	 R(9,12)          =         2.552562	       1.350758
	 R(9,21)          =         2.050528	       1.085093
	 R(10,11)         =         2.734155	       1.446852
	 B(1,2,4)         =         2.094553	     120.009056
	 B(1,2,14)        =         2.094726	     120.018942
	 B(1,3,5)         =         2.093692	     119.959722
	 B(1,3,15)        =         2.095250	     120.048965
	 B(2,1,3)         =         2.094940	     120.031219
	 B(2,1,13)        =         2.093950	     119.974480
	 B(2,4,10)        =         2.094306	     119.994870
	 B(2,4,16)        =         2.079681	     119.156970
	 B(3,1,13)        =         2.094293	     119.994160
	 B(3,5,10)        =         2.095181	     120.045019
	 B(3,5,17)        =         2.079222	     119.130634
	 B(4,2,14)        =         2.093904	     119.971849
	 B(4,10,5)        =         2.093699	     119.960108
	 B(4,10,11)       =         2.093804	     119.966144
	 B(5,3,15)        =         2.094242	     119.991253
	 B(5,10,11)       =         2.095682	     120.073736
	 B(6,8,12)        =         2.164190	     123.998933
	 B(6,8,20)        =         2.108656	     120.817061
	 B(6,11,7)        =         2.089551	     119.722429
	 B(6,11,10)       =         2.096911	     120.144145
	 B(7,9,12)        =         2.165019	     124.046473
	 B(7,9,21)        =         2.107475	     120.749435
	 B(7,11,10)       =         2.096722	     120.133297
	 B(8,6,11)        =         2.058356	     117.935126
	 B(8,6,18)        =         2.097993	     120.206121
	 B(8,12,9)        =         2.031262	     116.382732
	 B(9,7,11)        =         2.057993	     117.914285
	 B(9,7,19)        =         2.099271	     120.279354
	 B(10,4,16)       =         2.109198	     120.848149
	 B(10,5,17)       =         2.108782	     120.824331
	 B(11,6,18)       =         2.126836	     121.858709
	 B(11,7,19)       =         2.125922	     121.806361
	 B(12,8,20)       =         2.010340	     115.183972
	 B(12,9,21)       =         2.010691	     115.204084
	 D(1,2,4,10)      =        -0.000325	      -0.018609
	 D(1,2,4,16)      =        -3.141283	    -179.982244
	 D(1,3,5,10)      =         0.000325	       0.018608
	 D(1,3,5,17)      =         3.141117	     179.972749
	 D(2,1,3,5)       =        -0.000348	      -0.019945
	 D(2,1,3,15)      =         3.139689	     179.890913
	 D(2,4,10,5)      =         0.000301	       0.017261
	 D(2,4,10,11)     =         3.141198	     179.977407
	 D(3,1,2,4)       =         0.000348	       0.019955
	 D(3,1,2,14)      =        -3.138767	    -179.838124
	 D(3,5,10,4)      =        -0.000301	      -0.017270
	 D(3,5,10,11)     =        -3.141198	    -179.977373
	 D(4,2,1,13)      =         3.139559	     179.883471
	 D(4,10,5,17)     =        -3.141080	    -179.970623
	 D(4,10,11,6)     =         0.786501	      45.063206
	 D(4,10,11,7)     =        -2.357377	    -135.067761
	 D(5,3,1,13)      =        -3.139558	    -179.883434
	 D(5,10,4,16)     =         3.141248	     179.980271
	 D(5,10,11,6)     =        -2.355788	    -134.976694
	 D(5,10,11,7)     =         0.783519	      44.892339
	 D(6,8,12,9)      =        -0.000826	      -0.047301
	 D(6,11,7,9)      =        -0.000473	      -0.027109
	 D(6,11,7,19)     =         3.141119	     179.972888
	 D(7,9,12,8)      =         0.000240	       0.013752
	 D(7,11,6,8)      =        -0.000052	      -0.002972
	 D(7,11,6,18)     =        -3.140305	    -179.926250
	 D(8,6,11,10)     =         3.139264	     179.866601
	 D(8,12,9,21)     =         3.141289	     179.982605
	 D(9,7,11,10)     =        -3.139790	    -179.896697
	 D(9,12,8,20)     =         3.139619	     179.886932
	 D(10,4,2,14)     =         3.138792	     179.839537
	 D(10,5,3,15)     =        -3.139713	    -179.892302
	 D(10,11,6,18)    =        -0.000989	      -0.056676
	 D(10,11,7,19)    =         0.001803	       0.103300
	 D(11,6,8,12)     =         0.000741	       0.042474
	 D(11,6,8,20)     =        -3.139642	    -179.888225
	 D(11,7,9,12)     =         0.000391	       0.022405
	 D(11,7,9,21)     =        -3.140629	    -179.944802
	 D(11,10,4,16)    =        -0.001040	      -0.059583
	 D(11,10,5,17)    =         0.001209	       0.069274
	 D(12,8,6,18)     =         3.141018	     179.967071
	 D(12,9,7,19)     =        -3.141202	    -179.977592
	 D(13,1,2,14)     =         0.000443	       0.025392
	 D(13,1,3,15)     =         0.000479	       0.027424
	 D(14,2,4,16)     =        -0.002166	      -0.124098
	 D(15,3,5,17)     =         0.001079	       0.061840
	 D(18,6,8,20)     =         0.000635	       0.036372
	 D(19,7,9,21)     =         0.000963	       0.055200

	Current energy   :      -478.5750189488

	Generating empirical Hessian (Schlegel '84) for each fragment.
	Adding user-defined constraint: Fragment 1; Coordinate 71:
		Value =     0.786501; Fixed value    =     0.785398
		Force =    -0.000552; Force constant =     0.500000
	Removing off-diagonal coupling between coordinate 71 and others.
	Taking RFO optimization step.
	Going to follow RFO solution 1.
	Using RFO vector 1.

	Determining step-restricting scale parameter for RS-RFO.
	Maximum step size allowed    0.10000

	 Iter      |step|        alpha        rfo_root  
	------------------------------------------------
	    0     0.15216       1.00000           1
	    1     0.12419       4.85487           1
	    2     0.10872      10.84857           1
	    3     0.10154      15.85120           1
	    4     0.10006      17.13594           1
	    5     0.10000      17.18665           1
	------------------------------------------------
	Norm of target step-size    0.10000
	Projected energy change by RFO approximation:        -0.0033434848

	Back-transformation to cartesian coordinates...
	Could not converge backtransformation.
	Using first guess instead.

	--- Internal Coordinate Step in ANG or DEG, aJ/ANG or AJ/DEG ---
	 ---------------------------------------------------------------------------
	   Coordinate                Previous        Force       Change         New 
	   ----------                --------       ------       ------       ------
	    1 R(1,2)          =      1.394038    -0.046872    -0.005828     1.388210
	    2 R(1,3)          =      1.394891    -0.052391    -0.006516     1.388375
	    3 R(1,13)         =      1.086575    -0.041737    -0.006488     1.080087
	    4 R(2,4)          =      1.394821    -0.052230    -0.006377     1.388444
	    5 R(2,14)         =      1.086327    -0.040121    -0.006229     1.080097
	    6 R(3,5)          =      1.394821    -0.052195    -0.006374     1.388447
	    7 R(3,15)         =      1.085910    -0.038077    -0.005907     1.080003
	    8 R(4,10)         =      1.395407    -0.016398    -0.001826     1.393581
	    9 R(4,16)         =      1.087946    -0.047692    -0.007406     1.080540
	   10 R(5,10)         =      1.394521    -0.011364    -0.001215     1.393306
	   11 R(5,17)         =      1.087912    -0.047247    -0.007333     1.080579
	   12 R(6,8)          =      1.385052     0.005693     0.000642     1.385694
	   13 R(6,11)         =      1.390310    -0.005218     0.000092     1.390401
	   14 R(6,18)         =      1.085980    -0.042290    -0.006556     1.079424
	   15 R(7,9)          =      1.385687     0.003263     0.000383     1.386070
	   16 R(7,11)         =      1.389739    -0.002651     0.000390     1.390129
	   17 R(7,19)         =      1.085868    -0.041762    -0.006473     1.079395
	   18 R(8,12)         =      1.352396    -0.121622    -0.013288     1.339107
	   19 R(8,20)         =      1.084735    -0.020987    -0.003237     1.081498
	   20 R(9,12)         =      1.350758    -0.113469    -0.012342     1.338415
	   21 R(9,21)         =      1.085093    -0.022475    -0.003468     1.081625
	   22 R(10,11)        =      1.446852     0.126341     0.018128     1.464981
	   23 B(1,2,4)        =    120.009056     0.000038     0.061238   120.070295
	   24 B(1,2,14)       =    120.018942    -0.000017    -0.024308   119.994634
	   25 B(1,3,5)        =    119.959722     0.000048     0.086232   120.045954
	   26 B(1,3,15)       =    120.048965    -0.000024    -0.042001   120.006964
	   27 B(2,1,3)        =    120.031219    -0.000051    -0.205943   119.825276
	   28 B(2,1,13)       =    119.974480     0.000028     0.112280   120.086761
	   29 B(2,4,10)       =    119.994870     0.000194     0.529216   120.524087
	   30 B(2,4,16)       =    119.156970     0.000097     0.401155   119.558126
	   31 B(3,1,13)       =    119.994160     0.000023     0.093767   120.087928
	   32 B(3,5,10)       =    120.045019     0.000186     0.505929   120.550948
	   33 B(3,5,17)       =    119.130634     0.000101     0.409696   119.540330
	   34 B(4,2,14)       =    119.971849    -0.000021    -0.036790   119.935059
	   35 B(4,10,5)       =    119.960108    -0.000415    -0.976818   118.983290
	   36 B(4,10,11)      =    119.966144     0.000220     0.517807   120.483951
	   37 B(5,3,15)       =    119.991253    -0.000024    -0.044415   119.946838
	   38 B(5,10,11)      =    120.073736     0.000196     0.458756   120.532492
	   39 B(6,8,12)       =    123.998933     0.000009    -0.095052   123.903881
	   40 B(6,8,20)       =    120.817061    -0.000057    -0.131501   120.685560
	   41 B(6,11,7)       =    119.722429    -0.000963    -2.176970   117.545460
	   42 B(6,11,10)      =    120.144145     0.000477     1.078448   121.222593
	   43 B(7,9,12)       =    124.046473    -0.000004    -0.122128   123.924345
	   44 B(7,9,21)       =    120.749435    -0.000049    -0.113653   120.635781
	   45 B(7,11,10)      =    120.133297     0.000486     1.098175   121.231472
	   46 B(8,6,11)       =    117.935126     0.000417     1.187070   119.122196
	   47 B(8,6,18)       =    120.206121    -0.000057    -0.079217   120.126904
	   48 B(8,12,9)       =    116.382732     0.000125     0.012409   116.395141
	   49 B(9,7,11)       =    117.914285     0.000417     1.194603   119.108888
	   50 B(9,7,19)       =    120.279354    -0.000068    -0.119461   120.159893
	   51 B(10,4,16)      =    120.848149    -0.000292    -0.931601   119.916548
	   52 B(10,5,17)      =    120.824331    -0.000287    -0.917285   119.907046
	   53 B(11,6,18)      =    121.858709    -0.000359    -1.109228   120.749481
	   54 B(11,7,19)      =    121.806361    -0.000349    -1.076397   120.729964
	   55 B(12,8,20)      =    115.183972     0.000048     0.225918   115.409890
	   56 B(12,9,21)      =    115.204084     0.000053     0.235325   115.439409
	   57 D(1,2,4,10)     =     -0.018609     0.000002     0.073801     0.055192
	   58 D(1,2,4,16)     =   -179.982244    -0.000008    -0.367955  -180.350199
	   59 D(1,3,5,10)     =      0.018608     0.000002     0.115476     0.134084
	   60 D(1,3,5,17)     =    179.972749    -0.000008    -0.309958   179.662791
	   61 D(2,1,3,5)      =     -0.019945    -0.000001    -0.023503    -0.043448
	   62 D(2,1,3,15)     =    179.890913    -0.000003    -0.114140   179.776773
	   63 D(2,4,10,5)     =      0.017261    -0.000001     0.016676     0.033937
	   64 D(2,4,10,11)    =    179.977407    -0.000001    -0.130287   179.847120
	   65 D(3,1,2,4)      =      0.019955    -0.000001    -0.070535    -0.050580
	   66 D(3,1,2,14)     =   -179.838124    -0.000006    -0.252679  -180.090803
	   67 D(3,5,10,4)     =     -0.017270    -0.000001    -0.111234    -0.128504
	   68 D(3,5,10,11)    =   -179.977373    -0.000001     0.035779  -179.941593
	   69 D(4,2,1,13)     =    179.883471    -0.000000    -0.003185   179.880285
	   70 D(4,10,5,17)    =   -179.970623     0.000009     0.315137  -179.655486
	   71 D(4,10,11,6)    =     45.063206    -0.000011    -0.143811    44.919395
	   72 D(4,10,11,7)    =   -135.067761    -0.000011    -0.269871  -135.337632
	   73 D(5,3,1,13)     =   -179.883434    -0.000002    -0.090879  -179.974313
	   74 D(5,10,4,16)    =    179.980271     0.000010     0.460509   180.440780
	   75 D(5,10,11,6)    =   -134.976694    -0.000012    -0.293639  -135.270333
	   76 D(5,10,11,7)    =     44.892339    -0.000012    -0.419699    44.472640
	   77 D(6,8,12,9)     =     -0.047301     0.000000    -0.008622    -0.055923
	   78 D(6,11,7,9)     =     -0.027109    -0.000000    -0.078619    -0.105728
	   79 D(6,11,7,19)    =    179.972888     0.000010     0.328263   180.301151
	   80 D(7,9,12,8)     =      0.013752    -0.000001    -0.009691     0.004061
	   81 D(7,11,6,8)     =     -0.002972    -0.000000     0.061558     0.058586
	   82 D(7,11,6,18)    =   -179.926250     0.000009     0.417701  -179.508549
	   83 D(8,6,11,10)    =    179.866601     0.000000    -0.055891   179.810710
	   84 D(8,12,9,21)    =    179.982605    -0.000006    -0.225695   179.756910
	   85 D(9,7,11,10)    =   -179.896697    -0.000001     0.038868  -179.857828
	   86 D(9,12,8,20)    =    179.886932    -0.000005    -0.239285   179.647647
	   87 D(10,4,2,14)    =    179.839537     0.000007     0.255853   180.095391
	   88 D(10,5,3,15)    =   -179.892302     0.000005     0.206056  -179.686246
	   89 D(10,11,6,18)   =     -0.056676     0.000009     0.300251     0.243574
	   90 D(10,11,7,19)   =      0.103300     0.000009     0.445751     0.549051
	   91 D(11,6,8,12)    =      0.042474     0.000000    -0.018272     0.024202
	   92 D(11,6,8,20)    =   -179.888225     0.000006     0.223777  -179.664448
	   93 D(11,7,9,12)    =      0.022405     0.000001     0.055412     0.077817
	   94 D(11,7,9,21)    =   -179.944802     0.000006     0.282012  -179.662790
	   95 D(11,10,4,16)   =     -0.059583     0.000010     0.313546     0.253962
	   96 D(11,10,5,17)   =      0.069274     0.000009     0.462150     0.531425
	   97 D(12,8,6,18)    =    179.967071    -0.000009    -0.372979   179.594092
	   98 D(12,9,7,19)    =   -179.977592    -0.000009    -0.349098  -180.326690
	   99 D(13,1,2,14)    =      0.025392    -0.000004    -0.185329    -0.159938
	  100 D(13,1,3,15)    =      0.027424    -0.000004    -0.181516    -0.154091
	  101 D(14,2,4,16)    =     -0.124098    -0.000004    -0.185903    -0.310001
	  102 D(15,3,5,17)    =      0.061840    -0.000006    -0.219379    -0.157539
	  103 D(18,6,8,20)    =      0.036372    -0.000003    -0.130930    -0.094558
	  104 D(19,7,9,21)    =      0.055200    -0.000003    -0.122497    -0.067297
	 ---------------------------------------------------------------------------
	Successfully symmetrized geometry.
	 Forces used to impose fixed constraints are not included.
	  Forces zeroed: 71 

  ==> Convergence Check <==

  Measures of convergence in internal coordinates in au.
  Criteria marked as inactive (o), active & met (*), and active & unmet ( ).
  --------------------------------------------------------------------------------------------- ~
   Step     Total Energy     Delta E     MAX Force     RMS Force      MAX Disp      RMS Disp    ~
  --------------------------------------------------------------------------------------------- ~
    Convergence Criteria    1.00e-06 *    3.00e-04 *             o    1.20e-03 *             o  ~
  --------------------------------------------------------------------------------------------- ~
      1    -478.57501895   -4.79e+02      1.53e-02      3.74e-03 o    3.80e-02      9.81e-03 o  ~
  ---------------------------------------------------------------------------------------------

	Writing optimization data to binary file.
	Structure for next step:
	Cartesian Geometry (in Angstrom)
	    C     0.1091296377   0.0543515250  -3.5446595588
	    C    -0.9646004052   0.6227185422  -2.8729531883
	    C     1.1398087215  -0.5353243720  -2.8252378621
	    C    -1.0078159604   0.6004035722  -1.4853614608
	    C     1.0963016419  -0.5552288925  -1.4376154227
	    C    -1.1869564015  -0.3477707129   1.3904368252
	    C     1.0981542358   0.3044463284   1.4694696090
	    C    -1.1794922408  -0.3565733845   2.7760831653
	    C     1.0071769433   0.2685799829   2.8520855373
	    C     0.0219848394   0.0109382389  -0.7545333641
	    C    -0.0228898414  -0.0091618672   0.7096219445
	    N    -0.1071066104  -0.0549631323   3.5192043618
	    H     0.1420794101   0.0698501760  -4.6241328805
	    H    -1.7671954559   1.0834874067  -3.4298585970
	    H     1.9748023894  -0.9815650535  -3.3449127122
	    H    -1.8447361948   1.0502773507  -0.9708273411
	    H     1.9002130175  -1.0211816204  -0.8860125589
	    H    -2.0854669085  -0.6080225625   0.8518235658
	    H     2.0274527561   0.5792359373   0.9940878409
	    H    -2.0691447816  -0.6212994586   3.3311297728
	    H     1.8625027104   0.5132938098   3.4672650208
			--------------------------
			 OPTKING Finished Execution 
			--------------------------

    Structure for next step:
    Molecular point group: c1
    Full point group: C1

    Geometry (in Angstrom), charge = 0, multiplicity = 1:

    C            0.109314074970     0.054458106031    -3.544402850040
    C           -0.964415967892     0.622825123272    -2.872696479525
    C            1.139993158787    -0.535217790898    -2.824981153349
    C           -1.007631523119     0.600510153305    -1.485104752037
    C            1.096486079235    -0.555122311414    -1.437358713911
    C           -1.186771964222    -0.347664131817     1.390693533963
    C            1.098338673047     0.304552909498     1.469726317785
    C           -1.179307803548    -0.356466803438     2.776339874103
    C            1.007361380606     0.268686564023     2.852342246124
    C            0.022169276689     0.011044819952    -0.754276655340
    C           -0.022705404146    -0.009055286144     0.709878653271
    N           -0.106922173155    -0.054856551204     3.519461070582
    H            0.142263847380     0.069956757061    -4.623876171742
    H           -1.767011018560     1.083593987764    -3.429601888189
    H            1.974986826674    -0.981458472395    -3.344656003375
    H           -1.844551757521     1.050383931823    -0.970570632310
    H            1.900397454790    -1.021075039342    -0.885755850094
    H           -2.085282471255    -0.607915981465     0.852080274582
    H            2.027637193353     0.579342518354     0.994344549685
    H           -2.068960344332    -0.621192877556     3.331386481636
    H            1.862687147659     0.513400390833     3.467521729564

gradient() will perform analytic gradient computation.

*** tstart() called on gpu-2-14.local
*** at Sat Nov 11 10:12:24 2017

    SCF Algorithm Type (re)set to DF.

*** tstart() called on gpu-2-14.local
*** at Sat Nov 11 10:12:24 2017

   => Loading Basis Set <=

    Name: AUG-CC-PVTZ
    Role: ORBITAL
    Keyword: BASIS
    atoms 1-11  entry C          line   221 file /cbio/jclab/home/chayas/anaconda/envs/py35/share/psi4/basis/aug-cc-pvtz.gbs 
    atoms 12    entry N          line   267 file /cbio/jclab/home/chayas/anaconda/envs/py35/share/psi4/basis/aug-cc-pvtz.gbs 
    atoms 13-21 entry H          line    34 file /cbio/jclab/home/chayas/anaconda/envs/py35/share/psi4/basis/aug-cc-pvtz.gbs 


         ---------------------------------------------------------
                                   SCF
            by Justin Turney, Rob Parrish, and Andy Simmonett
                              RHF Reference
                        8 Threads,    500 MiB Core
         ---------------------------------------------------------

  ==> Geometry <==

    Molecular point group: c1
    Full point group: C1

    Geometry (in Angstrom), charge = 0, multiplicity = 1:

       Center              X                  Y                   Z               Mass       
    ------------   -----------------  -----------------  -----------------  -----------------
           C          0.109314074970     0.054458106031    -3.544402850040    12.000000000000
           C         -0.964415967892     0.622825123272    -2.872696479525    12.000000000000
           C          1.139993158787    -0.535217790898    -2.824981153349    12.000000000000
           C         -1.007631523119     0.600510153305    -1.485104752037    12.000000000000
           C          1.096486079235    -0.555122311414    -1.437358713911    12.000000000000
           C         -1.186771964222    -0.347664131817     1.390693533963    12.000000000000
           C          1.098338673047     0.304552909498     1.469726317785    12.000000000000
           C         -1.179307803548    -0.356466803438     2.776339874103    12.000000000000
           C          1.007361380606     0.268686564023     2.852342246124    12.000000000000
           C          0.022169276689     0.011044819952    -0.754276655340    12.000000000000
           C         -0.022705404146    -0.009055286144     0.709878653271    12.000000000000
           N         -0.106922173155    -0.054856551204     3.519461070582    14.003074004780
           H          0.142263847380     0.069956757061    -4.623876171742     1.007825032070
           H         -1.767011018560     1.083593987764    -3.429601888189     1.007825032070
           H          1.974986826674    -0.981458472395    -3.344656003375     1.007825032070
           H         -1.844551757521     1.050383931823    -0.970570632310     1.007825032070
           H          1.900397454790    -1.021075039342    -0.885755850094     1.007825032070
           H         -2.085282471255    -0.607915981465     0.852080274582     1.007825032070
           H          2.027637193353     0.579342518354     0.994344549685     1.007825032070
           H         -2.068960344332    -0.621192877556     3.331386481636     1.007825032070
           H          1.862687147659     0.513400390833     3.467521729564     1.007825032070

  Running in c1 symmetry.

  Rotational constants: A =      0.09896  B =      0.01833  C =      0.01620 [cm^-1]
  Rotational constants: A =   2966.80454  B =    549.64632  C =    485.75266 [MHz]
  Nuclear repulsion =  606.131394509365691

  Charge       = 0
  Multiplicity = 1
  Electrons    = 82
  Nalpha       = 41
  Nbeta        = 41

  ==> Algorithm <==

  SCF Algorithm Type is DF.
  DIIS enabled.
  MOM disabled.
  Fractional occupation disabled.
  Guess Type is READ.
  Energy threshold   = 1.00e-10
  Density threshold  = 1.00e-10
  Integral threshold = 0.00e+00

  ==> Primary Basis <==

  Basis Set: AUG-CC-PVTZ
    Blend: AUG-CC-PVTZ
    Number of shells: 249
    Number of basis function: 759
    Number of Cartesian functions: 885
    Spherical Harmonics?: true
    Max angular momentum: 3

   => Loading Basis Set <=

    Name: (AUG-CC-PVTZ AUX)
    Role: JKFIT
    Keyword: DF_BASIS_SCF
    atoms 1-11  entry C          line   161 file /cbio/jclab/home/chayas/anaconda/envs/py35/share/psi4/basis/aug-cc-pvtz-jkfit.gbs 
    atoms 12    entry N          line   223 file /cbio/jclab/home/chayas/anaconda/envs/py35/share/psi4/basis/aug-cc-pvtz-jkfit.gbs 
    atoms 13-21 entry H          line    69 file /cbio/jclab/home/chayas/anaconda/envs/py35/share/psi4/basis/aug-cc-pvtz-jkfit.gbs 

  Reading orbitals from file 180, no projection.

  ==> Pre-Iterations <==

   -------------------------------------------------------
    Irrep   Nso     Nmo     Nalpha   Nbeta   Ndocc  Nsocc
   -------------------------------------------------------
     A        759     759       0       0       0       0
   -------------------------------------------------------
    Total     759     759      41      41      41       0
   -------------------------------------------------------

  ==> Integral Setup <==

  ==> DFJK: Density-Fitted J/K Matrices <==

    J tasked:                  Yes
    K tasked:                  Yes
    wK tasked:                  No
    OpenMP threads:              8
    Integrals threads:           8
    Memory (MB):               375
    Algorithm:                Disk
    Integral Cache:           NONE
    Schwarz Cutoff:          1E-12
    Fitting Condition:       1E-12

   => Auxiliary Basis Set <=

  Basis Set: (AUG-CC-PVTZ AUX)
    Blend: AUG-CC-PVTZ-JKFIT
    Number of shells: 486
    Number of basis function: 1662
    Number of Cartesian functions: 2067
    Spherical Harmonics?: true
    Max angular momentum: 4

  Minimum eigenvalue in the overlap matrix is 4.4587344997E-07.
  Using Symmetric Orthogonalization.

  SCF Guess: Orbitals guess was supplied from a previous computation.

  ==> Iterations <==

                           Total Energy        Delta E     RMS |[F,P]|

   @DF-RHF iter   0:  -476.56204056577241   -4.76562e+02   5.74496e-04 
   @DF-RHF iter   1:  -476.39997145153882    1.62069e-01   2.06019e-04 
   @DF-RHF iter   2:  -476.40101238234240   -1.04093e-03   1.50590e-04 DIIS
   @DF-RHF iter   3:  -476.40191888574691   -9.06503e-04   1.94026e-05 DIIS
   @DF-RHF iter   4:  -476.40193282802494   -1.39423e-05   4.90649e-06 DIIS
   @DF-RHF iter   5:  -476.40193464448231   -1.81646e-06   1.79505e-06 DIIS
   @DF-RHF iter   6:  -476.40193501029546   -3.65813e-07   1.06008e-06 DIIS
   @DF-RHF iter   7:  -476.40193517957243   -1.69277e-07   4.30356e-07 DIIS
   @DF-RHF iter   8:  -476.40193522849626   -4.89238e-08   1.38930e-07 DIIS
   @DF-RHF iter   9:  -476.40193523188282   -3.38656e-09   4.23584e-08 DIIS
   @DF-RHF iter  10:  -476.40193523211286   -2.30045e-10   1.41147e-08 DIIS
   @DF-RHF iter  11:  -476.40193523211138    1.47793e-12   4.07964e-09 DIIS
   @DF-RHF iter  12:  -476.40193523213134   -1.99520e-11   1.72358e-09 DIIS
   @DF-RHF iter  13:  -476.40193523215089   -1.95541e-11   9.95409e-10 DIIS
   @DF-RHF iter  14:  -476.40193523213725    1.36424e-11   3.86819e-10 DIIS
   @DF-RHF iter  15:  -476.40193523211980    1.74509e-11   1.68258e-10 DIIS
   @DF-RHF iter  16:  -476.40193523214469   -2.48974e-11   7.02142e-11 DIIS

  ==> Post-Iterations <==

    Orbital Energies (a.u.)
    -----------------------

    Doubly Occupied:                                                      

       1A    -15.562768     2A    -11.272881     3A    -11.272864  
       4A    -11.265243     5A    -11.252916     6A    -11.244364  
       7A    -11.244319     8A    -11.243329     9A    -11.242873  
      10A    -11.241749    11A    -11.237475    12A    -11.237434  
      13A     -1.257435    14A     -1.175377    15A     -1.108213  
      16A     -1.036637    17A     -1.026016    18A     -1.018897  
      19A     -0.880795    20A     -0.866105    21A     -0.831898  
      22A     -0.808217    23A     -0.733470    24A     -0.685889  
      25A     -0.672266    26A     -0.660145    27A     -0.633097  
      28A     -0.630526    29A     -0.602165    30A     -0.594057  
      31A     -0.582386    32A     -0.545494    33A     -0.525376  
      34A     -0.512744    35A     -0.509405    36A     -0.499610  
      37A     -0.419154    38A     -0.399285    39A     -0.349512  
      40A     -0.347863    41A     -0.328210  

    Virtual:                                                              

      42A      0.025161    43A      0.029797    44A      0.032614  
      45A      0.038441    46A      0.043429    47A      0.046002  
      48A      0.053001    49A      0.055606    50A      0.060772  
      51A      0.075182    52A      0.083640    53A      0.087456  
      54A      0.092529    55A      0.095182    56A      0.098893  
      57A      0.102262    58A      0.106106    59A      0.110067  
      60A      0.112031    61A      0.114878    62A      0.114920  
      63A      0.120341    64A      0.120941    65A      0.127208  
      66A      0.129755    67A      0.132281    68A      0.133004  
      69A      0.136755    70A      0.144392    71A      0.144718  
      72A      0.147143    73A      0.151534    74A      0.151855  
      75A      0.156067    76A      0.159345    77A      0.166985  
      78A      0.171828    79A      0.177358    80A      0.181082  
      81A      0.183044    82A      0.190209    83A      0.202702  
      84A      0.206330    85A      0.218694    86A      0.225182  
      87A      0.225926    88A      0.233186    89A      0.235184  
      90A      0.237470    91A      0.242175    92A      0.246527  
      93A      0.250092    94A      0.254968    95A      0.259280  
      96A      0.267381    97A      0.269155    98A      0.270399  
      99A      0.272589   100A      0.279841   101A      0.283679  
     102A      0.291643   103A      0.294835   104A      0.297772  
     105A      0.298543   106A      0.301980   107A      0.306828  
     108A      0.311450   109A      0.317709   110A      0.321683  
     111A      0.322828   112A      0.325541   113A      0.333406  
     114A      0.333555   115A      0.338540   116A      0.347305  
     117A      0.349004   118A      0.360216   119A      0.364137  
     120A      0.368684   121A      0.369648   122A      0.376453  
     123A      0.378393   124A      0.385875   125A      0.395022  
     126A      0.401058   127A      0.410199   128A      0.410943  
     129A      0.414501   130A      0.422616   131A      0.428970  
     132A      0.435390   133A      0.436172   134A      0.440699  
     135A      0.440747   136A      0.445040   137A      0.446768  
     138A      0.450468   139A      0.463696   140A      0.468566  
     141A      0.471893   142A      0.472773   143A      0.477353  
     144A      0.479500   145A      0.481258   146A      0.481838  
     147A      0.483752   148A      0.484179   149A      0.495693  
     150A      0.496401   151A      0.500661   152A      0.507009  
     153A      0.511006   154A      0.513954   155A      0.515827  
     156A      0.516807   157A      0.523025   158A      0.524508  
     159A      0.525901   160A      0.530893   161A      0.531395  
     162A      0.537886   163A      0.539676   164A      0.543490  
     165A      0.549041   166A      0.552324   167A      0.552637  
     168A      0.560625   169A      0.563043   170A      0.574437  
     171A      0.581602   172A      0.582184   173A      0.585626  
     174A      0.595840   175A      0.600305   176A      0.606091  
     177A      0.611899   178A      0.617757   179A      0.628541  
     180A      0.635208   181A      0.636747   182A      0.648376  
     183A      0.666745   184A      0.673719   185A      0.674499  
     186A      0.674974   187A      0.687457   188A      0.693144  
     189A      0.697105   190A      0.702407   191A      0.710713  
     192A      0.711037   193A      0.712036   194A      0.717340  
     195A      0.725364   196A      0.727292   197A      0.730849  
     198A      0.745770   199A      0.749799   200A      0.750306  
     201A      0.753441   202A      0.758777   203A      0.763100  
     204A      0.774585   205A      0.778143   206A      0.789995  
     207A      0.801256   208A      0.804222   209A      0.813213  
     210A      0.817512   211A      0.826677   212A      0.835820  
     213A      0.836157   214A      0.844614   215A      0.850083  
     216A      0.860615   217A      0.862760   218A      0.865975  
     219A      0.869251   220A      0.877024   221A      0.880278  
     222A      0.882314   223A      0.885838   224A      0.890588  
     225A      0.892759   226A      0.897743   227A      0.901189  
     228A      0.913288   229A      0.915420   230A      0.919847  
     231A      0.925083   232A      0.926493   233A      0.938577  
     234A      0.942440   235A      0.943922   236A      0.947647  
     237A      0.951190   238A      0.951790   239A      0.957872  
     240A      0.958801   241A      0.967402   242A      0.982336  
     243A      0.983236   244A      0.987405   245A      0.994840  
     246A      0.999566   247A      1.001745   248A      1.004679  
     249A      1.012987   250A      1.018338   251A      1.021381  
     252A      1.026857   253A      1.029661   254A      1.042850  
     255A      1.043495   256A      1.046824   257A      1.056333  
     258A      1.063536   259A      1.066779   260A      1.069861  
     261A      1.073964   262A      1.075186   263A      1.077073  
     264A      1.082289   265A      1.083015   266A      1.088502  
     267A      1.094847   268A      1.103288   269A      1.104161  
     270A      1.110963   271A      1.123952   272A      1.124175  
     273A      1.130805   274A      1.132387   275A      1.139354  
     276A      1.148355   277A      1.148413   278A      1.151059  
     279A      1.159614   280A      1.161704   281A      1.173015  
     282A      1.174546   283A      1.178514   284A      1.178720  
     285A      1.187841   286A      1.189466   287A      1.197233  
     288A      1.206406   289A      1.213217   290A      1.213304  
     291A      1.215516   292A      1.223944   293A      1.225359  
     294A      1.241431   295A      1.242913   296A      1.244087  
     297A      1.250706   298A      1.257954   299A      1.259816  
     300A      1.266847   301A      1.283163   302A      1.284687  
     303A      1.286190   304A      1.295055   305A      1.295413  
     306A      1.315832   307A      1.317298   308A      1.324535  
     309A      1.325547   310A      1.340581   311A      1.342845  
     312A      1.346372   313A      1.355150   314A      1.369011  
     315A      1.374062   316A      1.383371   317A      1.383863  
     318A      1.394532   319A      1.411692   320A      1.412469  
     321A      1.416561   322A      1.425582   323A      1.437057  
     324A      1.441590   325A      1.452641   326A      1.455148  
     327A      1.465893   328A      1.475989   329A      1.493666  
     330A      1.496438   331A      1.501234   332A      1.503152  
     333A      1.517435   334A      1.519127   335A      1.533807  
     336A      1.534167   337A      1.557299   338A      1.569654  
     339A      1.570497   340A      1.580869   341A      1.582207  
     342A      1.591358   343A      1.601067   344A      1.603243  
     345A      1.616681   346A      1.626665   347A      1.639500  
     348A      1.650155   349A      1.657549   350A      1.659345  
     351A      1.673054   352A      1.674582   353A      1.692709  
     354A      1.700220   355A      1.710760   356A      1.717136  
     357A      1.719772   358A      1.726854   359A      1.727085  
     360A      1.733375   361A      1.745049   362A      1.748558  
     363A      1.748824   364A      1.759787   365A      1.768432  
     366A      1.777346   367A      1.784720   368A      1.807416  
     369A      1.816336   370A      1.821200   371A      1.822103  
     372A      1.828620   373A      1.838707   374A      1.849400  
     375A      1.850736   376A      1.862877   377A      1.883646  
     378A      1.888705   379A      1.900766   380A      1.902434  
     381A      1.913352   382A      1.918857   383A      1.929696  
     384A      1.931187   385A      1.939298   386A      1.952680  
     387A      1.954984   388A      1.968121   389A      1.968994  
     390A      1.994811   391A      1.998480   392A      2.001709  
     393A      2.006213   394A      2.010500   395A      2.019996  
     396A      2.020686   397A      2.022971   398A      2.034450  
     399A      2.038005   400A      2.053936   401A      2.058139  
     402A      2.070213   403A      2.071570   404A      2.074333  
     405A      2.087915   406A      2.096733   407A      2.098718  
     408A      2.107725   409A      2.118115   410A      2.121009  
     411A      2.131378   412A      2.138056   413A      2.150086  
     414A      2.158941   415A      2.167151   416A      2.173410  
     417A      2.176706   418A      2.196722   419A      2.202488  
     420A      2.205380   421A      2.209056   422A      2.222567  
     423A      2.241467   424A      2.260028   425A      2.260456  
     426A      2.268318   427A      2.288514   428A      2.289911  
     429A      2.302714   430A      2.313790   431A      2.335885  
     432A      2.337219   433A      2.347872   434A      2.351358  
     435A      2.365318   436A      2.369097   437A      2.371280  
     438A      2.377805   439A      2.389598   440A      2.402505  
     441A      2.412148   442A      2.422030   443A      2.431546  
     444A      2.433344   445A      2.465553   446A      2.475206  
     447A      2.477977   448A      2.496249   449A      2.521519  
     450A      2.527699   451A      2.535937   452A      2.543240  
     453A      2.573779   454A      2.574240   455A      2.580264  
     456A      2.584341   457A      2.612881   458A      2.618696  
     459A      2.634019   460A      2.640275   461A      2.645421  
     462A      2.663875   463A      2.719056   464A      2.735820  
     465A      2.769354   466A      2.769797   467A      2.772982  
     468A      2.787755   469A      2.805748   470A      2.815014  
     471A      2.831820   472A      2.859737   473A      2.864699  
     474A      2.869041   475A      2.895788   476A      2.972686  
     477A      2.974419   478A      3.013507   479A      3.060743  
[...]
	 R(2,14)          =         2.039488	       1.079250
	 R(3,5)           =         2.620432	       1.386673
	 R(3,15)          =         2.039499	       1.079256
	 R(4,10)          =         2.634441	       1.394086
	 R(4,16)          =         2.040982	       1.080041
	 R(5,10)          =         2.634388	       1.394058
	 R(5,17)          =         2.040820	       1.079955
	 R(6,8)           =         2.618955	       1.385891
	 R(6,11)          =         2.629358	       1.391397
	 R(6,18)          =         2.040414	       1.079741
	 R(7,9)           =         2.618980	       1.385904
	 R(7,11)          =         2.629259	       1.391344
	 R(7,19)          =         2.040306	       1.079684
	 R(8,12)          =         2.522779	       1.334997
	 R(8,20)          =         2.043028	       1.081124
	 R(9,12)          =         2.522804	       1.335011
	 R(9,21)          =         2.043026	       1.081123
	 R(10,11)         =         2.764133	       1.462716
	 B(1,2,4)         =         2.095653	     120.072079
	 B(1,2,14)        =         2.095549	     120.066142
	 B(1,3,5)         =         2.095979	     120.090769
	 B(1,3,15)        =         2.095495	     120.063030
	 B(2,1,3)         =         2.090643	     119.785021
	 B(2,1,13)        =         2.096284	     120.108215
	 B(2,4,10)        =         2.104490	     120.578420
	 B(2,4,16)        =         2.095585	     120.068200
	 B(3,1,13)        =         2.096257	     120.106707
	 B(3,5,10)        =         2.104155	     120.559227
	 B(3,5,17)        =         2.095490	     120.062734
	 B(4,2,14)        =         2.091945	     119.859643
	 B(4,10,5)        =         2.075405	     118.911959
	 B(4,10,11)       =         2.102904	     120.487531
	 B(5,3,15)        =         2.091696	     119.845340
	 B(5,10,11)       =         2.104631	     120.586484
	 B(6,8,12)        =         2.158376	     123.665861
	 B(6,8,20)        =         2.096314	     120.109967
	 B(6,11,7)        =         2.040728	     116.925085
	 B(6,11,10)       =         2.120351	     121.487175
	 B(7,9,12)        =         2.158717	     123.685360
	 B(7,9,21)        =         2.096113	     120.098425
	 B(7,11,10)       =         2.121867	     121.574046
	 B(8,6,11)        =         2.085807	     119.507923
	 B(8,6,18)        =         2.096669	     120.130299
	 B(8,12,9)        =         2.037209	     116.723505
	 B(9,7,11)        =         2.085493	     119.489929
	 B(9,7,19)        =         2.096483	     120.119655
	 B(10,4,16)       =         2.082934	     119.343307
	 B(10,5,17)       =         2.083266	     119.362356
	 B(11,6,18)       =         2.100572	     120.353888
	 B(11,7,19)       =         2.100985	     120.377581
	 B(12,8,20)       =         2.028447	     116.221460
	 B(12,9,21)       =         2.028336	     116.215086
	 D(1,2,4,10)      =        -0.003014	      -0.172663
	 D(1,2,4,16)      =         3.118297	     178.665267
	 D(1,3,5,10)      =         0.005556	       0.318341
	 D(1,3,5,17)      =         3.121847	     178.868652
	 D(2,1,3,5)       =         0.000772	       0.044218
	 D(2,1,3,15)      =         3.136465	     179.706211
	 D(2,4,10,5)      =         0.009182	       0.526113
	 D(2,4,10,11)     =         3.127138	     179.171821
	 D(3,1,2,4)       =        -0.002036	      -0.116635
	 D(3,1,2,14)      =         3.130265	     179.350972
	 D(3,5,10,4)      =        -0.010452	      -0.598834
	 D(3,5,10,11)     =        -3.128383	    -179.243162
	 D(4,2,1,13)      =         3.141066	     179.969843
	 D(4,10,5,17)     =        -3.126918	    -179.159225
	 D(4,10,11,6)     =         0.782357	      44.825776
	 D(4,10,11,7)     =        -2.383455	    -136.561939
	 D(5,3,1,13)      =         3.140855	     179.957741
	 D(5,10,4,16)     =        -3.112274	    -178.320176
	 D(5,10,11,6)     =        -2.383270	    -136.551333
	 D(5,10,11,7)     =         0.734102	      42.060951
	 D(6,8,12,9)      =         0.000229	       0.013105
	 D(6,11,7,9)      =        -0.008496	      -0.486782
	 D(6,11,7,19)     =        -3.127371	    -179.185185
	 D(7,9,12,8)      =         0.001421	       0.081393
	 D(7,11,6,8)      =         0.010009	       0.573476
	 D(7,11,6,18)     =        -3.113775	    -178.406142
	 D(8,6,11,10)     =         3.128458	     179.247461
	 D(8,12,9,21)     =         3.136253	     179.694053
	 D(9,7,11,10)     =        -3.126924	    -179.159533
	 D(9,12,8,20)     =         3.131348	     179.413036
	 D(10,4,2,14)     =        -3.135333	    -179.641375
	 D(10,5,3,15)     =        -3.130150	    -179.344392
	 D(10,11,6,18)    =         0.004675	       0.267842
	 D(10,11,7,19)    =         0.037386	       2.142065
	 D(11,6,8,12)     =        -0.006161	      -0.352995
	 D(11,6,8,20)     =        -3.136893	    -179.730708
	 D(11,7,9,12)     =         0.002899	       0.166078
	 D(11,7,9,21)     =        -3.131684	    -179.432265
	 D(11,10,4,16)    =         0.005682	       0.325533
	 D(11,10,5,17)    =         0.038335	       2.196447
	 D(12,8,6,18)     =         3.117663	     178.628942
	 D(12,9,7,19)     =         3.121834	     178.867894
	 D(13,1,2,14)     =        -0.009818	      -0.562550
	 D(13,1,3,15)     =        -0.006637	      -0.380265
	 D(14,2,4,16)     =        -0.014023	      -0.803445
	 D(15,3,5,17)     =        -0.013859	      -0.794081
	 D(18,6,8,20)     =        -0.013069	      -0.748771
	 D(19,7,9,21)     =        -0.012749	      -0.730449

	Current energy   :      -478.5772443062

	Energy change for the previous step:
		Projected    :        -0.0000049189
		Actual       :         0.0000001294

	Performing BFGS update.
	Previous computed or guess Hessian on step 1.
	Steps to be used in Hessian update: 4 3
	Adding user-defined constraint: Fragment 1; Coordinate 71:
		Value =     0.782357; Fixed value    =     0.785400
		Force =     0.001826; Force constant =     0.600000
	Removing off-diagonal coupling between coordinate 71 and others.
	Taking RFO optimization step.
	Going to follow RFO solution 1.
	Using RFO vector 1.
	Norm of target step-size    0.00516
	Projected energy change by RFO approximation:        -0.0000004706

	Back-transformation to cartesian coordinates...
	Successfully converged to displaced geometry.

	--- Internal Coordinate Step in ANG or DEG, aJ/ANG or AJ/DEG ---
	 ---------------------------------------------------------------------------
	   Coordinate                Previous        Force       Change         New 
	   ----------                --------       ------       ------       ------
	    1 R(1,2)          =      1.388573    -0.000032    -0.000007     1.388566
	    2 R(1,3)          =      1.388629    -0.000196    -0.000027     1.388601
	    3 R(1,13)         =      1.079140    -0.000106    -0.000030     1.079110
	    4 R(2,4)          =      1.386682    -0.000261    -0.000023     1.386659
	    5 R(2,14)         =      1.079250    -0.000161    -0.000039     1.079211
	    6 R(3,5)          =      1.386673    -0.000181    -0.000015     1.386658
	    7 R(3,15)         =      1.079256    -0.000131    -0.000034     1.079223
	    8 R(4,10)         =      1.394086    -0.000026    -0.000046     1.394040
	    9 R(4,16)         =      1.080041    -0.000130    -0.000034     1.080007
	   10 R(5,10)         =      1.394058    -0.000230    -0.000058     1.394000
	   11 R(5,17)         =      1.079955    -0.000029    -0.000015     1.079940
	   12 R(6,8)          =      1.385891    -0.000393    -0.000070     1.385821
	   13 R(6,11)         =      1.391397     0.000099    -0.000020     1.391376
	   14 R(6,18)         =      1.079741    -0.000305    -0.000068     1.079673
	   15 R(7,9)          =      1.385904    -0.000346    -0.000058     1.385847
	   16 R(7,11)         =      1.391344    -0.000027    -0.000029     1.391315
	   17 R(7,19)         =      1.079684    -0.000247    -0.000058     1.079625
	   18 R(8,12)         =      1.334997     0.000644     0.000098     1.335095
	   19 R(8,20)         =      1.081124     0.000052     0.000002     1.081126
	   20 R(9,12)         =      1.335011     0.000524     0.000074     1.335085
	   21 R(9,21)         =      1.081123     0.000103     0.000014     1.081137
	   22 R(10,11)        =      1.462716     0.000159     0.000132     1.462847
	   23 B(1,2,4)        =    120.072079    -0.000000     0.000170   120.072249
	   24 B(1,2,14)       =    120.066142    -0.000000    -0.000079   120.066063
	   25 B(1,3,5)        =    120.090769    -0.000000    -0.002039   120.088730
	   26 B(1,3,15)       =    120.063030    -0.000000     0.000346   120.063376
	   27 B(2,1,3)        =    119.785021     0.000000    -0.000237   119.784784
	   28 B(2,1,13)       =    120.108215     0.000000     0.001037   120.109253
	   29 B(2,4,10)       =    120.578420    -0.000000    -0.000575   120.577845
	   30 B(2,4,16)       =    120.068200    -0.000000    -0.007446   120.060754
	   31 B(3,1,13)       =    120.106707    -0.000000    -0.000839   120.105868
	   32 B(3,5,10)       =    120.559227     0.000001     0.001988   120.561215
	   33 B(3,5,17)       =    120.062734    -0.000001    -0.007544   120.055190
	   34 B(4,2,14)       =    119.859643     0.000001    -0.000281   119.859362
	   35 B(4,10,5)       =    118.911959    -0.000000     0.000534   118.912494
	   36 B(4,10,11)      =    120.487531     0.000001     0.005003   120.492534
	   37 B(5,3,15)       =    119.845340     0.000001     0.001593   119.846934
	   38 B(5,10,11)      =    120.586484    -0.000001    -0.005746   120.580738
	   39 B(6,8,12)       =    123.665861    -0.000001    -0.004895   123.660966
	   40 B(6,8,20)       =    120.109967     0.000001     0.009805   120.119773
	   41 B(6,11,7)       =    116.925085     0.000002     0.009103   116.934188
	   42 B(6,11,10)      =    121.487175    -0.000000    -0.000650   121.486525
	   43 B(7,9,12)       =    123.685360    -0.000002    -0.007660   123.677699
	   44 B(7,9,21)       =    120.098425     0.000001     0.010162   120.108587
	   45 B(7,11,10)      =    121.574046    -0.000002    -0.008566   121.565480
	   46 B(8,6,11)       =    119.507923    -0.000000    -0.002811   119.505112
	   47 B(8,6,18)       =    120.130299    -0.000002    -0.005361   120.124938
	   48 B(8,12,9)       =    116.723505     0.000001     0.006478   116.729983
	   49 B(9,7,11)       =    119.489929     0.000001    -0.000292   119.489637
	   50 B(9,7,19)       =    120.119655    -0.000002    -0.004635   120.115019
	   51 B(10,4,16)      =    119.343307     0.000000     0.007359   119.350666
	   52 B(10,5,17)      =    119.362356     0.000000     0.005362   119.367717
	   53 B(11,6,18)      =    120.353888     0.000002     0.007627   120.361515
	   54 B(11,7,19)      =    120.377581     0.000001     0.004378   120.381959
	   55 B(12,8,20)      =    116.221460     0.000001    -0.003834   116.217625
	   56 B(12,9,21)      =    116.215086     0.000001    -0.001895   116.213191
	   57 D(1,2,4,10)     =     -0.172663     0.000000     0.010059    -0.162604
	   58 D(1,2,4,16)     =    178.665267    -0.000000    -0.027475   178.637792
	   59 D(1,3,5,10)     =      0.318341    -0.000000     0.010626     0.328967
	   60 D(1,3,5,17)     =    178.868652    -0.000000     0.001744   178.870396
	   61 D(2,1,3,5)      =      0.044218     0.000000     0.008602     0.052819
	   62 D(2,1,3,15)     =    179.706211    -0.000000    -0.010488   179.695724
	   63 D(2,4,10,5)     =      0.526113    -0.000000     0.008951     0.535064
	   64 D(2,4,10,11)    =    179.171821     0.000000    -0.001165   179.170656
	   65 D(3,1,2,4)      =     -0.116635    -0.000000    -0.018876    -0.135510
	   66 D(3,1,2,14)     =    179.350972    -0.000000    -0.042070   179.308901
	   67 D(3,5,10,4)     =     -0.598834     0.000000    -0.019298    -0.618132
	   68 D(3,5,10,11)    =   -179.243162    -0.000000    -0.009323  -179.252485
	   69 D(4,2,1,13)     =    179.969843     0.000000     0.006842   179.976685
	   70 D(4,10,5,17)    =   -179.159225     0.000000    -0.010291  -179.169516
	   71 D(4,10,11,6)    =     44.825776    -0.000001     0.018852    44.844628
	   72 D(4,10,11,7)    =   -136.561939    -0.000001     0.013235  -136.548704
	   73 D(5,3,1,13)     =    179.957741    -0.000000    -0.017114   179.940627
	   74 D(5,10,4,16)    =   -178.320176     0.000000     0.046390  -178.273786
	   75 D(5,10,11,6)    =   -136.551333    -0.000001     0.008654  -136.542679
	   76 D(5,10,11,7)    =     42.060951    -0.000000     0.003038    42.063989
	   77 D(6,8,12,9)     =      0.013105    -0.000000    -0.066504    -0.053399
	   78 D(6,11,7,9)     =     -0.486782    -0.000000    -0.067752    -0.554534
	   79 D(6,11,7,19)    =   -179.185185    -0.000000    -0.040115  -179.225300
	   80 D(7,9,12,8)     =      0.081393    -0.000000    -0.039975     0.041418
	   81 D(7,11,6,8)     =      0.573476    -0.000000    -0.029842     0.543635
	   82 D(7,11,6,18)    =   -178.406142    -0.000000     0.004860  -178.401283
	   83 D(8,6,11,10)    =    179.247461    -0.000000    -0.035438   179.212023
	   84 D(8,12,9,21)    =    179.694053     0.000001     0.083815   179.777868
	   85 D(9,7,11,10)    =   -179.159533    -0.000001    -0.062264  -179.221796
	   86 D(9,12,8,20)    =    179.413036     0.000001     0.067496   179.480532
	   87 D(10,4,2,14)    =   -179.641375     0.000000     0.033204  -179.608171
	   88 D(10,5,3,15)    =   -179.344392     0.000000     0.029678  -179.314714
	   89 D(10,11,6,18)   =      0.267842     0.000000    -0.000737     0.267106
	   90 D(10,11,7,19)   =      2.142065    -0.000000    -0.034627     2.107438
	   91 D(11,6,8,12)    =     -0.352995     0.000001     0.102372    -0.250623
	   92 D(11,6,8,20)    =   -179.730708    -0.000000    -0.036526  -179.767234
	   93 D(11,7,9,12)    =      0.166078     0.000001     0.108220     0.274298
	   94 D(11,7,9,21)    =   -179.432265    -0.000000    -0.020114  -179.452378
	   95 D(11,10,4,16)   =      0.325533     0.000000     0.036274     0.361806
	   96 D(11,10,5,17)   =      2.196447    -0.000000    -0.000316     2.196131
	   97 D(12,8,6,18)    =    178.628942     0.000001     0.067889   178.696831
	   98 D(12,9,7,19)    =    178.867894     0.000000     0.080777   178.948672
	   99 D(13,1,2,14)    =     -0.562550    -0.000000    -0.016352    -0.578903
	  100 D(13,1,3,15)    =     -0.380265    -0.000000    -0.036203    -0.416468
	  101 D(14,2,4,16)    =     -0.803445     0.000000    -0.004329    -0.807774
	  102 D(15,3,5,17)    =     -0.794081     0.000000     0.020796    -0.773285
	  103 D(18,6,8,20)    =     -0.748771    -0.000001    -0.071009    -0.819780
	  104 D(19,7,9,21)    =     -0.730449    -0.000000    -0.047556    -0.778005
	 ---------------------------------------------------------------------------
	Successfully symmetrized geometry.
	 Forces used to impose fixed constraints are not included.
	  Forces zeroed: 71 

  ==> Convergence Check <==

  Measures of convergence in internal coordinates in au.
  Criteria marked as inactive (o), active & met (*), and active & unmet ( ).
  ---------------------------------------------------------------------------------------------
   Step     Total Energy     Delta E     MAX Force     RMS Force      MAX Disp      RMS Disp   
  ---------------------------------------------------------------------------------------------
    Convergence Criteria    1.00e-06 *    3.00e-04 *             o    1.20e-03 *             o
  ---------------------------------------------------------------------------------------------
      5    -478.57724431    1.29e-07 *    7.82e-05 *    2.10e-05 o    1.89e-03      5.06e-04 o  ~
  ---------------------------------------------------------------------------------------------


  **** Optimization is complete! (in 5 steps) ****

  ==> Optimization Summary <==

  Measures of convergence in internal coordinates in au.
  --------------------------------------------------------------------------------------------------------------- ~
   Step         Total Energy             Delta E       MAX Force       RMS Force        MAX Disp        RMS Disp  ~
  --------------------------------------------------------------------------------------------------------------- ~
      1    -478.575018948751   -478.575018948751      0.01533499      0.00373784      0.03799529      0.00980808  ~
      2    -478.577051360312     -0.002032411561      0.00274851      0.00069682      0.04115442      0.00941076  ~
      3    -478.577235477864     -0.000184117552      0.00094973      0.00017064      0.00870646      0.00212651  ~
      4    -478.577244435674     -0.000008957810      0.00016983      0.00004315      0.00389152      0.00101709  ~
      5    -478.577244306246      0.000000129428      0.00007815      0.00002194      0.00188879      0.00050599  ~
  --------------------------------------------------------------------------------------------------------------- ~

	Writing optimization data to binary file.
	Final energy is   -478.5772443062464
	Final (previous) structure:
	Cartesian Geometry (in Angstrom)
	    C     0.1128940587   0.0540062929  -3.5454119927
	    C    -0.9694164258   0.6101389172  -2.8764906348
	    C     1.1484244981  -0.5229502865  -2.8221641435
	    C    -1.0164188506   0.5868762712  -1.4908006926
	    C     1.1010257988  -0.5442810378  -1.4364655246
	    C    -1.1887846598  -0.3341656880   1.3974834408
	    C     1.0973155709   0.2932356818   1.4695465109
	    C    -1.1791124161  -0.3432278676   2.7833111506
	    C     1.0124856983   0.2563478568   2.8523603051
	    C     0.0152800742   0.0046742518  -0.7558762121
	    C    -0.0276335642  -0.0027634636   0.7061911733
	    N    -0.1022957913  -0.0546913328   3.5177700588
	    H     0.1498400374   0.0713550851  -4.6237799377
	    H    -1.7717149313   1.0690453035  -3.4337191894
	    H     1.9895328502  -0.9607209923  -3.3376132944
	    H    -1.8477812995   1.0385233401  -0.9698972697
	    H     1.8977754407  -1.0092940598  -0.8749885326
	    H    -2.0871099991  -0.5986777639   0.8600032521
	    H     2.0245433873   0.5703316615   0.9908156249
	    H    -2.0746316124  -0.6034988975   3.3302422071
	    H     1.8780440218   0.4935394912   3.4551667595
	Saving final (previous) structure.
			--------------------------
			 OPTKING Finished Execution 
			--------------------------

    Final optimized geometry and variables:
    Molecular point group: c1
    Full point group: C1

    Geometry (in Angstrom), charge = 0, multiplicity = 1:

    C            0.112894058689     0.054006292896    -3.545411992707
    C           -0.969416425814     0.610138917167    -2.876490634807
    C            1.148424498087    -0.522950286454    -2.822164143517
    C           -1.016418850577     0.586876271226    -1.490800692553
    C            1.101025798824    -0.544281037757    -1.436465524618
    C           -1.188784659789    -0.334165687968     1.397483440805
    C            1.097315570865     0.293235681841     1.469546510928
    C           -1.179112416054    -0.343227867626     2.783311150567
    C            1.012485698278     0.256347856802     2.852360305128
    C            0.015280074229     0.004674251781    -0.755876212123
    C           -0.027633564239    -0.002763463555     0.706191173347
    N           -0.102295791318    -0.054691332775     3.517770058833
    H            0.149840037442     0.071355085120    -4.623779937670
    H           -1.771714931290     1.069045303543    -3.433719189402
    H            1.989532850202    -0.960720992349    -3.337613294411
    H           -1.847781299516     1.038523340150    -0.969897269668
    H            1.897775440669    -1.009294059802    -0.874988532567
    H           -2.087109999096    -0.598677763884     0.860003252120
    H            2.024543387276     0.570331661497     0.990815624886
    H           -2.074631612368    -0.603498897533     3.330242207085
    H            1.878044021791     0.493539491214     3.455166759461

	Cleaning optimization helper files.

*** Psi4 exiting successfully. Buy a developer a beer!
