
    -----------------------------------------------------------------------
          Psi4: An Open-Source Ab Initio Electronic Structure Package
                               Psi4 1.1 release

                         Git: Rev {HEAD} add49b9 


    R. M. Parrish, L. A. Burns, D. G. A. Smith, A. C. Simmonett,
    A. E. DePrince III, E. G. Hohenstein, U. Bozkaya, A. Yu. Sokolov,
    R. Di Remigio, R. M. Richard, J. F. Gonthier, A. M. James,
    H. R. McAlexander, A. Kumar, M. Saitow, X. Wang, B. P. Pritchard,
    P. Verma, H. F. Schaefer III, K. Patkowski, R. A. King, E. F. Valeev,
    F. A. Evangelista, J. M. Turney, T. D. Crawford, and C. D. Sherrill,
    J. Chem. Theory Comput. in press (2017).
    (doi: 10.1021/acs.jctc.7b00174)

    -----------------------------------------------------------------------


    Psi4 started on: Sunday, 12 November 2017 08:23AM

    Process ID:  21033
    PSIDATADIR: /cbio/jclab/home/chayas/anaconda/envs/py35/share/psi4
    Memory:     500.0 MiB
    Threads:    8
    
  ==> Input File <==

--------------------------------------------------------------------------

memory 5 Gb

molecule phepyrOH_cation {
  symmetry C1
  1 1 
  C      1.885   -1.036   -0.112
  C      2.878   -1.652   2.002
  C      0.807   -0.463   0.561
  C      1.800   -1.079   2.676
  C      4.834   -1.445   -0.924
  C      4.322   -3.578   0.071
  C      5.901   -2.042   -1.582
  C      5.402   -4.121   -0.612
  C      2.921   -1.631   0.608
  C      4.040   -2.225   -0.090
  C      0.764   -0.484   1.955
  N      6.151   -3.347   -1.409
  O      -0.288   0.076   2.612
  H      1.904   -1.012   -1.199
  H      3.678   -2.112   2.578
  H      0.003   -0.001   -0.006
  H      1.772   -1.098   3.762
  H      4.637   -0.387   -1.068
  H      3.719   -4.211   0.715
  H      6.570   -1.514   -2.247
  H      5.695   -5.160   -0.547
  H      6.938   -3.766   -1.902
  H      -0.175   -0.018   3.571
  units Angstrom
}

dih_string = "1 9 10 5 60"
set optking fixed_dihedral = $dih_string

optimize('MP2/aug-cc-PVTZ')
--------------------------------------------------------------------------

  Memory set to   4.657 GiB by Python driver.
gradient() will perform analytic gradient computation.

*** tstart() called on gpu-2-6.local
*** at Sun Nov 12 08:23:46 2017

    SCF Algorithm Type (re)set to DF.

*** tstart() called on gpu-2-6.local
*** at Sun Nov 12 08:23:46 2017

   => Loading Basis Set <=

    Name: AUG-CC-PVTZ
    Role: ORBITAL
    Keyword: BASIS
    atoms 1-11  entry C          line   221 file /cbio/jclab/home/chayas/anaconda/envs/py35/share/psi4/basis/aug-cc-pvtz.gbs 
    atoms 12    entry N          line   267 file /cbio/jclab/home/chayas/anaconda/envs/py35/share/psi4/basis/aug-cc-pvtz.gbs 
    atoms 13    entry O          line   313 file /cbio/jclab/home/chayas/anaconda/envs/py35/share/psi4/basis/aug-cc-pvtz.gbs 
    atoms 14-23 entry H          line    34 file /cbio/jclab/home/chayas/anaconda/envs/py35/share/psi4/basis/aug-cc-pvtz.gbs 


         ---------------------------------------------------------
                                   SCF
            by Justin Turney, Rob Parrish, and Andy Simmonett
                              RHF Reference
                        8 Threads,   4768 MiB Core
         ---------------------------------------------------------

  ==> Geometry <==

    Molecular point group: c1
    Full point group: C1

    Geometry (in Angstrom), charge = 1, multiplicity = 1:

       Center              X                  Y                   Z               Mass       
    ------------   -----------------  -----------------  -----------------  -----------------
           C         -1.271666054316     0.719934089614    -0.579060428265    12.000000000000
           C         -0.278666054316     0.103934089614     1.534939571735    12.000000000000
           C         -2.349666054316     1.292934089614     0.093939571735    12.000000000000
           C         -1.356666054316     0.676934089614     2.208939571735    12.000000000000
           C          1.677333945684     0.310934089614    -1.391060428265    12.000000000000
           C          1.165333945684    -1.822065910386    -0.396060428265    12.000000000000
           C          2.744333945684    -0.286065910386    -2.049060428265    12.000000000000
           C          2.245333945684    -2.365065910386    -1.079060428265    12.000000000000
           C         -0.235666054316     0.124934089614     0.140939571735    12.000000000000
           C          0.883333945684    -0.469065910386    -0.557060428265    12.000000000000
           C         -2.392666054316     1.271934089614     1.487939571735    12.000000000000
           N          2.994333945684    -1.591065910386    -1.876060428265    14.003074004780
           O         -3.444666054316     1.831934089614     2.144939571735    15.994914619560
           H         -1.252666054316     0.743934089614    -1.666060428265     1.007825032070
           H          0.521333945684    -0.356065910386     2.110939571735     1.007825032070
           H         -3.153666054316     1.754934089614    -0.473060428265     1.007825032070
           H         -1.384666054316     0.657934089614     3.294939571735     1.007825032070
           H          1.480333945684     1.368934089614    -1.535060428265     1.007825032070
           H          0.562333945684    -2.455065910386     0.247939571735     1.007825032070
           H          3.413333945684     0.241934089614    -2.714060428265     1.007825032070
           H          2.538333945684    -3.404065910386    -1.014060428265     1.007825032070
           H          3.781333945684    -2.010065910386    -2.369060428265     1.007825032070
           H         -3.331666054316     1.737934089614     3.103939571735     1.007825032070

  Running in c1 symmetry.

  Rotational constants: A =      0.09611  B =      0.01303  C =      0.01220 [cm^-1]
  Rotational constants: A =   2881.40310  B =    390.48364  C =    365.69016 [MHz]
  Nuclear repulsion =  712.199147353615672

  Charge       = 1
  Multiplicity = 1
  Electrons    = 90
  Nalpha       = 45
  Nbeta        = 45

  ==> Algorithm <==

  SCF Algorithm Type is DF.
  DIIS enabled.
  MOM disabled.
  Fractional occupation disabled.
  Guess Type is SAD.
  Energy threshold   = 1.00e-10
  Density threshold  = 1.00e-10
  Integral threshold = 0.00e+00

  ==> Primary Basis <==

  Basis Set: AUG-CC-PVTZ
    Blend: AUG-CC-PVTZ
    Number of shells: 272
    Number of basis function: 828
    Number of Cartesian functions: 965
    Spherical Harmonics?: true
    Max angular momentum: 3

   => Loading Basis Set <=

    Name: (AUG-CC-PVTZ AUX)
    Role: JKFIT
    Keyword: DF_BASIS_SCF
    atoms 1-11  entry C          line   161 file /cbio/jclab/home/chayas/anaconda/envs/py35/share/psi4/basis/aug-cc-pvtz-jkfit.gbs 
    atoms 12    entry N          line   223 file /cbio/jclab/home/chayas/anaconda/envs/py35/share/psi4/basis/aug-cc-pvtz-jkfit.gbs 
    atoms 13    entry O          line   285 file /cbio/jclab/home/chayas/anaconda/envs/py35/share/psi4/basis/aug-cc-pvtz-jkfit.gbs 
    atoms 14-23 entry H          line    69 file /cbio/jclab/home/chayas/anaconda/envs/py35/share/psi4/basis/aug-cc-pvtz-jkfit.gbs 

  ==> Pre-Iterations <==

   -------------------------------------------------------
    Irrep   Nso     Nmo     Nalpha   Nbeta   Ndocc  Nsocc
   -------------------------------------------------------
     A        828     828       0       0       0       0
   -------------------------------------------------------
    Total     828     828      45      45      45       0
   -------------------------------------------------------

  ==> Integral Setup <==

  ==> DFJK: Density-Fitted J/K Matrices <==

    J tasked:                  Yes
    K tasked:                  Yes
    wK tasked:                  No
    OpenMP threads:              8
    Integrals threads:           8
    Memory (MB):              3576
    Algorithm:                Disk
    Integral Cache:           NONE
    Schwarz Cutoff:          1E-12
    Fitting Condition:       1E-12

   => Auxiliary Basis Set <=

  Basis Set: (AUG-CC-PVTZ AUX)
    Blend: AUG-CC-PVTZ-JKFIT
    Number of shells: 530
    Number of basis function: 1812
    Number of Cartesian functions: 2253
    Spherical Harmonics?: true
    Max angular momentum: 4

  Minimum eigenvalue in the overlap matrix is 5.6322514353E-07.
  Using Symmetric Orthogonalization.

  SCF Guess: Superposition of Atomic Densities via on-the-fly atomic UHF.

  ==> Iterations <==

                           Total Energy        Delta E     RMS |[F,P]|

   @DF-RHF iter   0:  -554.94621193878925   -5.54946e+02   2.36203e-02 
   @DF-RHF iter   1:  -551.32414490777387    3.62207e+00   1.78153e-03 
   @DF-RHF iter   2:  -551.60419278781592   -2.80048e-01   8.70895e-04 DIIS
   @DF-RHF iter   3:  -551.65612723326558   -5.19344e-02   3.76456e-04 DIIS
   @DF-RHF iter   4:  -551.67054185657457   -1.44146e-02   1.52114e-04 DIIS
   @DF-RHF iter   5:  -551.67252615495443   -1.98430e-03   4.58819e-05 DIIS
   @DF-RHF iter   6:  -551.67294648199152   -4.20327e-04   1.71952e-05 DIIS
   @DF-RHF iter   7:  -551.67300134111645   -5.48591e-05   5.85137e-06 DIIS
   @DF-RHF iter   8:  -551.67300696099858   -5.61988e-06   2.01106e-06 DIIS
   @DF-RHF iter   9:  -551.67300765080165   -6.89803e-07   7.68077e-07 DIIS
   @DF-RHF iter  10:  -551.67300779111019   -1.40309e-07   2.53717e-07 DIIS
   @DF-RHF iter  11:  -551.67300782207826   -3.09681e-08   9.46663e-08 DIIS
   @DF-RHF iter  12:  -551.67300782697930   -4.90104e-09   5.15782e-08 DIIS
   @DF-RHF iter  13:  -551.67300782778966   -8.10360e-10   1.98875e-08 DIIS
   @DF-RHF iter  14:  -551.67300782797224   -1.82581e-10   9.25768e-09 DIIS
   @DF-RHF iter  15:  -551.67300782798702   -1.47793e-11   3.87049e-09 DIIS
   @DF-RHF iter  16:  -551.67300782799396   -6.93490e-12   1.34151e-09 DIIS
   @DF-RHF iter  17:  -551.67300782798100    1.29603e-11   5.63442e-10 DIIS
   @DF-RHF iter  18:  -551.67300782798134   -3.41061e-13   2.89286e-10 DIIS
   @DF-RHF iter  19:  -551.67300782800316   -2.18279e-11   1.19967e-10 DIIS
   @DF-RHF iter  20:  -551.67300782798884    1.43245e-11   5.77186e-11 DIIS

  ==> Post-Iterations <==

    Orbital Energies (a.u.)
    -----------------------

    Doubly Occupied:                                                      

       1A    -20.695546     2A    -15.841742     3A    -11.488547  
       4A    -11.488511     5A    -11.447367     6A    -11.424443  
       7A    -11.419167     8A    -11.418987     9A    -11.373169  
      10A    -11.371647    11A    -11.367829    12A    -11.352456  
      13A    -11.349011    14A     -1.517305    15A     -1.510891  
      16A     -1.320220    17A     -1.261819    18A     -1.241355  
      19A     -1.152381    20A     -1.144458    21A     -1.070694  
      22A     -1.055313    23A     -0.971113    24A     -0.966856  
      25A     -0.946317    26A     -0.873077    27A     -0.858631  
      28A     -0.849292    29A     -0.821969    30A     -0.800150  
      31A     -0.787607    32A     -0.775335    33A     -0.750470  
      34A     -0.729893    35A     -0.716450    36A     -0.711508  
      37A     -0.697470    38A     -0.682442    39A     -0.648307  
      40A     -0.620487    41A     -0.611271    42A     -0.574177  
      43A     -0.540078    44A     -0.464643    45A     -0.435853  

    Virtual:                                                              

      46A     -0.102773    47A     -0.086910    48A     -0.067479  
      49A     -0.063342    50A     -0.059624    51A     -0.052646  
      52A     -0.042180    53A     -0.039904    54A     -0.038209  
      55A     -0.031221    56A     -0.023742    57A     -0.021472  
      58A     -0.014106    59A     -0.010140    60A     -0.003951  
      61A     -0.002575    62A     -0.001149    63A      0.008284  
      64A      0.009281    65A      0.012348    66A      0.013280  
      67A      0.018435    68A      0.019056    69A      0.026668  
      70A      0.029911    71A      0.032815    72A      0.034229  
      73A      0.037187    74A      0.039786    75A      0.043947  
      76A      0.045880    77A      0.048685    78A      0.053310  
      79A      0.056577    80A      0.062634    81A      0.063257  
      82A      0.071054    83A      0.076056    84A      0.079083  
      85A      0.083932    86A      0.086321    87A      0.092699  
      88A      0.094934    89A      0.097068    90A      0.104881  
      91A      0.107363    92A      0.112230    93A      0.118226  
      94A      0.121841    95A      0.130345    96A      0.131832  
      97A      0.133707    98A      0.134530    99A      0.141123  
     100A      0.143392   101A      0.149984   102A      0.157995  
     103A      0.161683   104A      0.162170   105A      0.166322  
     106A      0.167793   107A      0.170082   108A      0.174936  
     109A      0.175525   110A      0.177295   111A      0.184577  
     112A      0.186613   113A      0.188560   114A      0.195792  
     115A      0.197981   116A      0.203183   117A      0.211034  
     118A      0.212724   119A      0.213376   120A      0.219215  
     121A      0.221821   122A      0.226802   123A      0.227978  
     124A      0.232402   125A      0.234077   126A      0.238887  
     127A      0.243810   128A      0.248204   129A      0.251913  
     130A      0.257525   131A      0.260502   132A      0.264494  
     133A      0.272168   134A      0.279445   135A      0.280871  
     136A      0.282348   137A      0.288657   138A      0.293680  
     139A      0.296325   140A      0.304247   141A      0.311170  
     142A      0.314650   143A      0.316136   144A      0.320390  
     145A      0.323332   146A      0.326070   147A      0.328839  
     148A      0.330552   149A      0.334447   150A      0.341023  
     151A      0.342656   152A      0.345393   153A      0.348162  
     154A      0.350076   155A      0.353758   156A      0.356416  
     157A      0.359425   158A      0.362651   159A      0.370573  
     160A      0.372550   161A      0.373066   162A      0.375457  
     163A      0.379360   164A      0.385485   165A      0.388953  
     166A      0.389988   167A      0.394279   168A      0.399304  
     169A      0.403808   170A      0.405760   171A      0.408438  
     172A      0.413310   173A      0.415770   174A      0.418805  
     175A      0.427638   176A      0.429108   177A      0.430878  
     178A      0.436144   179A      0.439608   180A      0.448273  
     181A      0.452299   182A      0.455050   183A      0.457085  
     184A      0.466859   185A      0.471605   186A      0.480431  
     187A      0.481619   188A      0.484329   189A      0.488516  
     190A      0.492558   191A      0.499248   192A      0.502633  
     193A      0.518280   194A      0.520476   195A      0.523007  
     196A      0.538826   197A      0.541263   198A      0.544962  
     199A      0.557509   200A      0.560049   201A      0.564423  
     202A      0.568470   203A      0.572712   204A      0.577443  
     205A      0.583270   206A      0.590556   207A      0.594670  
     208A      0.598616   209A      0.603015   210A      0.607078  
     211A      0.608862   212A      0.616255   213A      0.620612  
     214A      0.622926   215A      0.626721   216A      0.632613  
     217A      0.635190   218A      0.640969   219A      0.645504  
     220A      0.655896   221A      0.668472   222A      0.676443  
     223A      0.681814   224A      0.688364   225A      0.692558  
     226A      0.698454   227A      0.705803   228A      0.709600  
     229A      0.714436   230A      0.723119   231A      0.726264  
     232A      0.729429   233A      0.740997   234A      0.744980  
     235A      0.749489   236A      0.752918   237A      0.760097  
     238A      0.760185   239A      0.765850   240A      0.771324  
     241A      0.774272   242A      0.777908   243A      0.779910  
     244A      0.787622   245A      0.790476   246A      0.792194  
     247A      0.795700   248A      0.799018   249A      0.804176  
     250A      0.807644   251A      0.808340   252A      0.810326  
     253A      0.820214   254A      0.825420   255A      0.828632  
     256A      0.831984   257A      0.842256   258A      0.846876  
     259A      0.853924   260A      0.854246   261A      0.859658  
     262A      0.864789   263A      0.868807   264A      0.875077  
     265A      0.879456   266A      0.885115   267A      0.892014  
     268A      0.895735   269A      0.898806   270A      0.902430  
     271A      0.915615   272A      0.918016   273A      0.919369  
     274A      0.921825   275A      0.927506   276A      0.937674  
     277A      0.939414   278A      0.942932   279A      0.947542  
     280A      0.951927   281A      0.952141   282A      0.961633  
     283A      0.967148   284A      0.969428   285A      0.975317  
     286A      0.978510   287A      0.982526   288A      0.989581  
     289A      0.990203   290A      0.992699   291A      0.995422  
     292A      0.997858   293A      1.005229   294A      1.007344  
     295A      1.011230   296A      1.016886   297A      1.024520  
     298A      1.027455   299A      1.033152   300A      1.033812  
     301A      1.041888   302A      1.045330   303A      1.053269  
     304A      1.057684   305A      1.062173   306A      1.067111  
     307A      1.072649   308A      1.079466   309A      1.082608  
     310A      1.087077   311A      1.091449   312A      1.094383  
     313A      1.103756   314A      1.106970   315A      1.111849  
     316A      1.115747   317A      1.127347   318A      1.130718  
     319A      1.139205   320A      1.140415   321A      1.142646  
     322A      1.150480   323A      1.154585   324A      1.165279  
     325A      1.169168   326A      1.172285   327A      1.175309  
     328A      1.182135   329A      1.194633   330A      1.197302  
     331A      1.204402   332A      1.206158   333A      1.219954  
     334A      1.227526   335A      1.234118   336A      1.239711  
     337A      1.243000   338A      1.250811   339A      1.261376  
     340A      1.265019   341A      1.270277   342A      1.277310  
     343A      1.281982   344A      1.286743   345A      1.297226  
     346A      1.301518   347A      1.304635   348A      1.320040  
     349A      1.326701   350A      1.329318   351A      1.331392  
     352A      1.344618   353A      1.350522   354A      1.358599  
     355A      1.362238   356A      1.375606   357A      1.383104  
     358A      1.389486   359A      1.391557   360A      1.399523  
     361A      1.402364   362A      1.407922   363A      1.414093  
     364A      1.418599   365A      1.429286   366A      1.437913  
     367A      1.444470   368A      1.453992   369A      1.456048  
     370A      1.461438   371A      1.470608   372A      1.485513  
     373A      1.496412   374A      1.504182   375A      1.506109  
     376A      1.509030   377A      1.515781   378A      1.524505  
     379A      1.531278   380A      1.538922   381A      1.544739  
     382A      1.545242   383A      1.557669   384A      1.560031  
     385A      1.571391   386A      1.587581   387A      1.596881  
     388A      1.602667   389A      1.604367   390A      1.609161  
     391A      1.627352   392A      1.630077   393A      1.635243  
     394A      1.641825   395A      1.660307   396A      1.672154  
     397A      1.682306   398A      1.686581   399A      1.692979  
     400A      1.695055   401A      1.704170   402A      1.707225  
     403A      1.719438   404A      1.730666   405A      1.732605  
     406A      1.743878   407A      1.744834   408A      1.750659  
     409A      1.762925   410A      1.768822   411A      1.776186  
     412A      1.784803   413A      1.798688   414A      1.800027  
     415A      1.810126   416A      1.815339   417A      1.821125  
     418A      1.825357   419A      1.829673   420A      1.837915  
     421A      1.848672   422A      1.856142   423A      1.870117  
     424A      1.874574   425A      1.883281   426A      1.890942  
     427A      1.895685   428A      1.904654   429A      1.908540  
     430A      1.913746   431A      1.921096   432A      1.925491  
     433A      1.940753   434A      1.945146   435A      1.951578  
     436A      1.958309   437A      1.969048   438A      1.980928  
     439A      1.991151   440A      2.002350   441A      2.004020  
     442A      2.016122   443A      2.024203   444A      2.043057  
     445A      2.045897   446A      2.048972   447A      2.051826  
     448A      2.063874   449A      2.068041   450A      2.074205  
     451A      2.080592   452A      2.089033   453A      2.095617  
     454A      2.110047   455A      2.111372   456A      2.124998  
     457A      2.146903   458A      2.154226   459A      2.162859  
     460A      2.167964   461A      2.188788   462A      2.194930  
     463A      2.202545   464A      2.213203   465A      2.219179  
     466A      2.236656   467A      2.246815   468A      2.255420  
     469A      2.256490   470A      2.265938   471A      2.282331  
     472A      2.295734   473A      2.299444   474A      2.304437  
     475A      2.305570   476A      2.321958   477A      2.331504  
     478A      2.345791   479A      2.361936   480A      2.376383  
     481A      2.389159   482A      2.393525   483A      2.401514  
     484A      2.405503   485A      2.411734   486A      2.422814  
     487A      2.438353   488A      2.449306   489A      2.465610  
     490A      2.478996   491A      2.490273   492A      2.499186  
     493A      2.511471   494A      2.525613   495A      2.541257  
     496A      2.547525   497A      2.555249   498A      2.570578  
     499A      2.582275   500A      2.586619   501A      2.599186  
     502A      2.630408   503A      2.635289   504A      2.647852  
     505A      2.684987   506A      2.693229   507A      2.715311  
     508A      2.719225   509A      2.734407   510A      2.761230  
     511A      2.771303   512A      2.787370   513A      2.804604  
     514A      2.832948   515A      2.846404   516A      2.874608  
     517A      2.888412   518A      2.935079   519A      2.946796  
     520A      2.951402   521A      2.975381   522A      2.985515  
     523A      2.997272   524A      3.019164   525A      3.045441  
     526A      3.060650   527A      3.078037   528A      3.095442  
     529A      3.102294   530A      3.118050   531A      3.133813  
     532A      3.144204   533A      3.157620   534A      3.161258  
     535A      3.175054   536A      3.181314   537A      3.195065  
     538A      3.221297   539A      3.234104   540A      3.242892  
     541A      3.243164   542A      3.263827   543A      3.271047  
     544A      3.275711   545A      3.288685   546A      3.296161  
     547A      3.311886   548A      3.316789   549A      3.320452  
     550A      3.335765   551A      3.337976   552A      3.346210  
     553A      3.366634   554A      3.368056   555A      3.378461  
     556A      3.386878   557A      3.393871   558A      3.402336  
     559A      3.413206   560A      3.416725   561A      3.430198  
     562A      3.432576   563A      3.435068   564A      3.444866  
     565A      3.447595   566A      3.472729   567A      3.482014  
     568A      3.484343   569A      3.490869   570A      3.505157  
     571A      3.516997   572A      3.532893   573A      3.537338  
     574A      3.550696   575A      3.557854   576A      3.561368  
     577A      3.572874   578A      3.582156   579A      3.600210  
     580A      3.607123   581A      3.619065   582A      3.626990  
     583A      3.632984   584A      3.643669   585A      3.652535  
     586A      3.661461   587A      3.674174   588A      3.681149  
     589A      3.688909   590A      3.696021   591A      3.703820  
     592A      3.717211   593A      3.723845   594A      3.726174  
     595A      3.737992   596A      3.748682   597A      3.761835  
     598A      3.767874   599A      3.784179   600A      3.797606  
     601A      3.799533   602A      3.802724   603A      3.810797  
     604A      3.813504   605A      3.823415   606A      3.840213  
     607A      3.843362   608A      3.853308   609A      3.862447  
     610A      3.872399   611A      3.882057   612A      3.887487  
     613A      3.893613   614A      3.899016   615A      3.902071  
     616A      3.908352   617A      3.928157   618A      3.937354  
     619A      3.947889   620A      3.956398   621A      3.962501  
     622A      3.970583   623A      3.986522   624A      4.006569  
     625A      4.010609   626A      4.016156   627A      4.023645  
     628A      4.025916   629A      4.034435   630A      4.040223  
     631A      4.046268   632A      4.057953   633A      4.068088  
     634A      4.077191   635A      4.081242   636A      4.093632  
     637A      4.110695   638A      4.115757   639A      4.124867  
     640A      4.131392   641A      4.149178   642A      4.159724  
     643A      4.162775   644A      4.173591   645A      4.180048  
     646A      4.196232   647A      4.206003   648A      4.213584  
     649A      4.224652   650A      4.230376   651A      4.231331  
     652A      4.233390   653A      4.244259   654A      4.254940  
     655A      4.268064   656A      4.270579   657A      4.276001  
     658A      4.294064   659A      4.301001   660A      4.305997  
     661A      4.318089   662A      4.328794   663A      4.335044  
     664A      4.339093   665A      4.343094   666A      4.364484  
     667A      4.367425   668A      4.367579   669A      4.381874  
     670A      4.383256   671A      4.394726   672A      4.409856  
     673A      4.427833   674A      4.432328   675A      4.441113  
     676A      4.456293   677A      4.465026   678A      4.470806  
     679A      4.485123   680A      4.504295   681A      4.526716  
     682A      4.539417   683A      4.571887   684A      4.587790  
     685A      4.588306   686A      4.605535   687A      4.613175  
     688A      4.621447   689A      4.629708   690A      4.642806  
     691A      4.646289   692A      4.675753   693A      4.692278  
     694A      4.708805   695A      4.719487   696A      4.731656  
     697A      4.745805   698A      4.752020   699A      4.762162  
     700A      4.768841   701A      4.804476   702A      4.812415  
     703A      4.816245   704A      4.829840   705A      4.834554  
     706A      4.845695   707A      4.858908   708A      4.860177  
     709A      4.877666   710A      4.895861   711A      4.908888  
     712A      4.912088   713A      4.925563   714A      4.930884  
     715A      4.938304   716A      4.962791   717A      4.971179  
     718A      4.978850   719A      4.991438   720A      5.009620  
     721A      5.011210   722A      5.019543   723A      5.036678  
     724A      5.043825   725A      5.048055   726A      5.060074  
     727A      5.080880   728A      5.082731   729A      5.092843  
     730A      5.112983   731A      5.125930   732A      5.163355  
     733A      5.175508   734A      5.178020   735A      5.193695  
     736A      5.211691   737A      5.215955   738A      5.220772  
     739A      5.228124   740A      5.262738   741A      5.270126  
     742A      5.274904   743A      5.309483   744A      5.320092  
     745A      5.341806   746A      5.348629   747A      5.365453  
     748A      5.372918   749A      5.392633   750A      5.405103  
     751A      5.415744   752A      5.451973   753A      5.485365  
     754A      5.498779   755A      5.536513   756A      5.554671  
     757A      5.576299   758A      5.589431   759A      5.605625  
     760A      5.610579   761A      5.637022   762A      5.653867  
     763A      5.673445   764A      5.694648   765A      5.723487  
     766A      5.731272   767A      5.774833   768A      5.810783  
     769A      5.834375   770A      5.890864   771A      5.926392  
     772A      5.940351   773A      5.978596   774A      5.980500  
     775A      6.020390   776A      6.025048   777A      6.092500  
     778A      6.134687   779A      6.152533   780A      6.199569  
     781A      6.230197   782A      6.237683   783A      6.296959  
     784A      6.340562   785A      6.358140   786A      6.397407  
     787A      6.412395   788A      6.461840   789A      6.470027  
     790A      6.515002   791A      6.561670   792A      6.652439  
     793A      6.659233   794A      6.739991   795A      6.773436  
     796A      6.801304   797A      6.802250   798A      6.836359  
     799A      6.877265   800A      6.908898   801A      6.952852  
     802A      6.975403   803A      6.983402   804A      7.109534  
     805A      7.168244   806A      7.327646   807A      7.339423  
     808A      7.447607   809A      7.541031   810A      7.596982  
     811A      7.609646   812A      7.661952   813A      7.919121  
     814A      8.295731   815A      8.547529   816A     15.988464  
     817A     16.163678   818A     16.446274   819A     16.611123  
     820A     16.904329   821A     18.715447   822A     19.104953  
     823A     19.332785   824A     19.641093   825A     19.930629  
     826A     20.037841   827A     20.211372   828A     21.739211  

    Final Occupation by Irrep:
              A 
    DOCC [    45 ]

  Energy converged.

  @DF-RHF Final Energy:  -551.67300782798884

   => Energetics <=

    Nuclear Repulsion Energy =            712.1991473536156718
    One-Electron Energy =               -2147.4517958177993933
    Two-Electron Energy =                 883.5796406361948812
    DFT Exchange-Correlation Energy =       0.0000000000000000
    Empirical Dispersion Energy =           0.0000000000000000
    PCM Polarization Energy =               0.0000000000000000
    EFP Energy =                            0.0000000000000000
    Total Energy =                       -551.6730078279888403



Properties will be evaluated at   0.000000,   0.000000,   0.000000 Bohr

Properties computed using the SCF density matrix

  Nuclear Dipole Moment: (a.u.)
     X:     2.9506      Y:    -1.5987      Z:    -0.9345

  Electronic Dipole Moment: (a.u.)
     X:     0.5897      Y:    -0.3006      Z:    -0.6785

  Dipole Moment: (a.u.)
     X:     3.5403      Y:    -1.8993      Z:    -1.6129     Total:     4.3293

  Dipole Moment: (Debye)
     X:     8.9985      Y:    -4.8275      Z:    -4.0997     Total:    11.0039


*** tstop() called on gpu-2-6.local at Sun Nov 12 08:32:38 2017
Module time:
	user time   =    1232.34 seconds =      20.54 minutes
	system time =      53.58 seconds =       0.89 minutes
	total time  =        532 seconds =       8.87 minutes
Total time:
	user time   =    1232.35 seconds =      20.54 minutes
	system time =      53.58 seconds =       0.89 minutes
	total time  =        532 seconds =       8.87 minutes

  //>>>>>>>>>>>>>>>>>>>>>>>>>>>>>>>>>>>//
  //               DFMP2               //
  //<<<<<<<<<<<<<<<<<<<<<<<<<<<<<<<<<<<//

   => Loading Basis Set <=

    Name: (AUG-CC-PVTZ AUX)
    Role: RIFIT
    Keyword: DF_BASIS_MP2
    atoms 1-11  entry C          line   147 file /cbio/jclab/home/chayas/anaconda/envs/py35/share/psi4/basis/aug-cc-pvtz-ri.gbs 
    atoms 12    entry N          line   205 file /cbio/jclab/home/chayas/anaconda/envs/py35/share/psi4/basis/aug-cc-pvtz-ri.gbs 
    atoms 13    entry O          line   263 file /cbio/jclab/home/chayas/anaconda/envs/py35/share/psi4/basis/aug-cc-pvtz-ri.gbs 
    atoms 14-23 entry H          line    29 file /cbio/jclab/home/chayas/anaconda/envs/py35/share/psi4/basis/aug-cc-pvtz-ri.gbs 

	 --------------------------------------------------------
	                          DF-MP2                         
	      2nd-Order Density-Fitted Moller-Plesset Theory     
	              RMP2 Wavefunction,   8 Threads             
	                                                         
	        Rob Parrish, Justin Turney, Andy Simmonett,      
	           Ed Hohenstein, and C. David Sherrill          
	 --------------------------------------------------------

   => Auxiliary Basis Set <=

  Basis Set: (AUG-CC-PVTZ AUX)
    Blend: AUG-CC-PVTZ-RI
    Number of shells: 504
    Number of basis function: 1838
    Number of Cartesian functions: 2318
    Spherical Harmonics?: true
    Max angular momentum: 4

	 --------------------------------------------------------
	                 NBF =   828, NAUX =  1838
	 --------------------------------------------------------
	   CLASS    FOCC     OCC    AOCC    AVIR     VIR    FVIR
	   PAIRS       0      45      45     783     783       0
	 --------------------------------------------------------


         ------------------------------------------------------------
                                     CPHF                           
                                  Rob Parrish                       
         ------------------------------------------------------------

  ==> Geometry <==

    Molecular point group: c1
    Full point group: C1

    Geometry (in Angstrom), charge = 1, multiplicity = 1:

       Center              X                  Y                   Z               Mass       
    ------------   -----------------  -----------------  -----------------  -----------------
           C         -1.271666054316     0.719934089614    -0.579060428265    12.000000000000
           C         -0.278666054316     0.103934089614     1.534939571735    12.000000000000
           C         -2.349666054316     1.292934089614     0.093939571735    12.000000000000
           C         -1.356666054316     0.676934089614     2.208939571735    12.000000000000
           C          1.677333945684     0.310934089614    -1.391060428265    12.000000000000
           C          1.165333945684    -1.822065910386    -0.396060428265    12.000000000000
           C          2.744333945684    -0.286065910386    -2.049060428265    12.000000000000
           C          2.245333945684    -2.365065910386    -1.079060428265    12.000000000000
           C         -0.235666054316     0.124934089614     0.140939571735    12.000000000000
           C          0.883333945684    -0.469065910386    -0.557060428265    12.000000000000
           C         -2.392666054316     1.271934089614     1.487939571735    12.000000000000
           N          2.994333945684    -1.591065910386    -1.876060428265    14.003074004780
           O         -3.444666054316     1.831934089614     2.144939571735    15.994914619560
           H         -1.252666054316     0.743934089614    -1.666060428265     1.007825032070
           H          0.521333945684    -0.356065910386     2.110939571735     1.007825032070
           H         -3.153666054316     1.754934089614    -0.473060428265     1.007825032070
           H         -1.384666054316     0.657934089614     3.294939571735     1.007825032070
           H          1.480333945684     1.368934089614    -1.535060428265     1.007825032070
           H          0.562333945684    -2.455065910386     0.247939571735     1.007825032070
           H          3.413333945684     0.241934089614    -2.714060428265     1.007825032070
           H          2.538333945684    -3.404065910386    -1.014060428265     1.007825032070
           H          3.781333945684    -2.010065910386    -2.369060428265     1.007825032070
           H         -3.331666054316     1.737934089614     3.103939571735     1.007825032070

  Nuclear repulsion =  712.199147353615672
  Reference energy  = -551.673007827988840

  ==> Basis Set <==

  Basis Set: AUG-CC-PVTZ
    Blend: AUG-CC-PVTZ
    Number of shells: 272
    Number of basis function: 828
    Number of Cartesian functions: 965
    Spherical Harmonics?: true
    Max angular momentum: 3

  ==> CGRSolver (by Rob Parrish) <==

   Number of roots    =         1
   Preconditioning    =    JACOBI
   Convergence cutoff =     1E-06
   Maximum iterations =       100

  ==> CPHFRHamiltonian (by Rob Parrish) <== 

  ==> DFJK: Density-Fitted J/K Matrices <==

    J tasked:                  Yes
    K tasked:                  Yes
    wK tasked:                  No
    OpenMP threads:              8
    Integrals threads:           8
    Memory (MB):              3576
    Algorithm:                Disk
    Integral Cache:           NONE
    Schwarz Cutoff:          1E-12
    Fitting Condition:       1E-12

   => Auxiliary Basis Set <=

  Basis Set: (AUG-CC-PVTZ AUX)
    Blend: AUG-CC-PVTZ-JKFIT
    Number of shells: 530
    Number of basis function: 1812
    Number of Cartesian functions: 2253
    Spherical Harmonics?: true
    Max angular momentum: 4

  ==> CPHF Iterations <==

  => Iterations <=

             Iter  Converged  Remaining    Residual
  CGR           1          0          1   1.059E-01
  CGR           2          0          1   4.750E-02
  CGR           3          0          1   2.787E-02
  CGR           4          0          1   8.807E-03
  CGR           5          0          1   3.610E-03
  CGR           6          0          1   1.719E-03
  CGR           7          0          1   5.439E-04
  CGR           8          0          1   2.225E-04
  CGR           9          0          1   1.101E-04
  CGR          10          0          1   4.132E-05
  CGR          11          0          1   1.481E-05
  CGR          12          0          1   5.421E-06
  CGR          13          0          1   1.763E-06
  CGR          14          1          0   6.117E-07

    CGRSolver converged.

  ==> DFCorrGrad: Density-Fitted Correlated Gradients <==

    OpenMP threads:              8
    Integrals threads:           8
    Memory (MB):              3576
    Schwarz Cutoff:          0E+00
    Fitting Condition:       1E-12

   => Auxiliary Basis Set <=

  Basis Set: (AUG-CC-PVTZ AUX)
    Blend: AUG-CC-PVTZ-JKFIT
    Number of shells: 530
    Number of basis function: 1812
    Number of Cartesian functions: 2253
    Spherical Harmonics?: true
    Max angular momentum: 4

	-----------------------------------------------------------
	 ==================> DF-MP2 Energies <==================== 
	-----------------------------------------------------------
	 Reference Energy          =    -551.6730078279888403 [Eh]
	 Singles Energy            =      -0.0000000000000003 [Eh]
	 Same-Spin Energy          =      -0.5961528696813486 [Eh]
	 Opposite-Spin Energy      =      -1.8247774018295233 [Eh]
	 Correlation Energy        =      -2.4209302715108723 [Eh]
	 Total Energy              =    -554.0939380994997236 [Eh]
	-----------------------------------------------------------
	 ================> DF-SCS-MP2 Energies <================== 
	-----------------------------------------------------------
	 SCS Same-Spin Scale       =       0.3333333333333333 [-]
	 SCS Opposite-Spin Scale   =       1.2000000000000000 [-]
	 SCS Same-Spin Energy      =      -0.1987176232271162 [Eh]
	 SCS Opposite-Spin Energy  =      -2.1897328821954281 [Eh]
	 SCS Correlation Energy    =      -2.3884505054225449 [Eh]
	 SCS Total Energy          =    -554.0614583334113377 [Eh]
	-----------------------------------------------------------


  -Total Gradient:
     Atom            X                  Y                   Z
    ------   -----------------  -----------------  -----------------
       1        0.005423737469    -0.008668390122    -0.004891867585
       2        0.008069644273     0.001760440726    -0.006969905073
       3        0.000760777898    -0.000288803501     0.004669782536
       4       -0.009219086819     0.004471207598     0.006690362489
       5       -0.012092027478     0.007695762188     0.011953151109
       6       -0.016307563387     0.006799226818     0.005781770946
       7        0.002976533593    -0.011706191398     0.002405794952
       8        0.006120442888     0.007348481696    -0.008227578665
       9        0.004875309240    -0.002714687183    -0.003591526780
      10        0.006594104888    -0.002951630365    -0.004272130149
      11        0.001289277655    -0.000268416931    -0.013662422485
      12        0.001386064195    -0.000771647076    -0.000775670656
      13       -0.003614450859     0.001865959036     0.007654701371
      14       -0.000174532796     0.000831945365    -0.005080975861
      15        0.002979875442    -0.002337261129     0.003631526172
      16       -0.002912983392     0.002388055042    -0.004926842798
      17       -0.000085976149    -0.000689880345     0.004391130964
      18       -0.001040410591     0.005546725538    -0.001528641325
      19       -0.002589315165    -0.003692338256     0.003864640009
      20        0.001859452074     0.000020759584    -0.001926682271
      21        0.001925249119    -0.002253961236    -0.000276096866
      22        0.004270829275    -0.002306677155    -0.002730246092
      23       -0.000494951387    -0.000078678888     0.007817726070


*** tstop() called on gpu-2-6.local at Sun Nov 12 09:06:06 2017
Module time:
	user time   =    5561.11 seconds =      92.69 minutes
	system time =     113.21 seconds =       1.89 minutes
	total time  =       2540 seconds =      42.33 minutes
Total time:
	user time   =    5561.12 seconds =      92.69 minutes
	system time =     113.21 seconds =       1.89 minutes
	total time  =       2540 seconds =      42.33 minutes

			-----------------------------------------
			 OPTKING 2.0: for geometry optimizations 
			  - R.A. King,  Bethel University        
			-----------------------------------------

	Internal coordinates to be generated automatically.
	Detected frag 1 with atoms:  1 2 3 4 5 6 7 8 9 10 11 12 13 14 15 16 17 18 19 20
	 21 22 23
	---Fragment 1 Bond Connectivity---
	 1 : 3 9 14
	 2 : 4 9 15
	 3 : 1 11 16
	 4 : 2 11 17
	 5 : 7 10 18
	 6 : 8 10 19
	 7 : 5 12 20
	 8 : 6 12 21
	 9 : 1 2 10
	 10 : 5 6 9
	 11 : 3 4 13
	 12 : 7 8 22
	 13 : 11 23
	 14 : 1
	 15 : 2
	 16 : 3
	 17 : 4
	 18 : 5
	 19 : 6
	 20 : 7
	 21 : 8
	 22 : 12
	 23 : 13

	Assuming in current code that numbering for constraints corresponds to unified fragment.
	Fixed dihedral atom list: 
	     1     9    10     5
	---Fragment 1 Geometry and Gradient---
	 C          -2.4031005751        1.3604782631       -1.0942656238
	 C          -0.5266025252        0.1964069652        2.9006154211
	 C          -4.4402253464        2.4432913372        0.1775200636
	 C          -2.5637272964        1.2792200394        4.1742908347
	 C           3.1697017907        0.5875802747       -2.6287232437
	 C           2.2021620107       -3.4432055667       -0.7484457415
	 C           5.1860395745       -0.5405862266       -3.8721630392
	 C           4.2430662342       -4.4693268569       -2.0391286903
	 C          -0.4453443015        0.2360912140        0.2663371919
	 C           1.6692592412       -0.8864061089       -1.0526916489
	 C          -4.5214835701        2.4036070885        2.8117982929
	 N           5.6584711077       -3.0066788300       -3.5452404182
	 O          -6.5094754619        3.4618537229        4.0533483622
	 H          -2.3671957786        1.4058316903       -3.1483979303
	 H           0.9851783811       -0.6728670559        3.9890976737
	 H          -5.9595651572        3.3163448106       -0.8939546537
	 H          -2.6166396282        1.2433152429        6.2265334150
	 H           2.7974257426        2.5869105233       -2.9008438069
	 H           1.0626571526       -4.6394022088        0.4685378881
	 H           6.4502663574        0.4571891716       -5.1288309175
	 H           4.7967559912       -6.4327523089       -1.9162964916
	 H           7.1456855743       -3.7984740797       -4.4768754017
	 H          -6.2959364089        3.2842194664        5.8655957236
	             0.0054237375       -0.0086683901       -0.0048918676
	             0.0080696443        0.0017604407       -0.0069699051
	             0.0007607779       -0.0002888035        0.0046697825
	            -0.0092190868        0.0044712076        0.0066903625
	            -0.0120920275        0.0076957622        0.0119531511
	            -0.0163075634        0.0067992268        0.0057817709
	             0.0029765336       -0.0117061914        0.0024057950
	             0.0061204429        0.0073484817       -0.0082275787
	             0.0048753092       -0.0027146872       -0.0035915268
	             0.0065941049       -0.0029516304       -0.0042721301
	             0.0012892777       -0.0002684169       -0.0136624225
	             0.0013860642       -0.0007716471       -0.0007756707
	            -0.0036144509        0.0018659590        0.0076547014
	            -0.0001745328        0.0008319454       -0.0050809759
	             0.0029798754       -0.0023372611        0.0036315262
	            -0.0029129834        0.0023880550       -0.0049268428
	            -0.0000859761       -0.0006898803        0.0043911310
	            -0.0010404106        0.0055467255       -0.0015286413
	            -0.0025893152       -0.0036923383        0.0038646400
	             0.0018594521        0.0000207596       -0.0019266823
	             0.0019252491       -0.0022539612       -0.0002760969
	             0.0042708293       -0.0023066772       -0.0027302461
	            -0.0004949514       -0.0000786789        0.0078177261

	Previous optimization step data not found.  Starting new optimization.

	---Fragment 1 Intrafragment Coordinates---
	 - Coordinate -           - BOHR/RAD -       - ANG/DEG -
	 R(1,3)           =         2.634350	       1.394038
	 R(1,9)           =         2.635962	       1.394891
	 R(1,14)          =         2.054947	       1.087431
	 R(2,4)           =         2.635263	       1.394521
	 R(2,9)           =         2.635830	       1.394821
	 R(2,15)          =         2.055702	       1.087831
	 R(3,11)          =         2.635830	       1.394821
	 R(3,16)          =         2.053941	       1.086899
	 R(4,11)          =         2.636938	       1.395407
	 R(4,17)          =         2.053239	       1.086527
	 R(5,7)           =         2.623837	       1.388475
	 R(5,10)          =         2.628277	       1.390824
	 R(5,18)          =         2.051819	       1.085776
	 R(6,8)           =         2.623753	       1.388430
	 R(6,10)          =         2.629406	       1.391422
	 R(6,19)          =         2.051928	       1.085833
	 R(7,12)          =         2.532130	       1.339946
	 R(7,20)          =         2.042802	       1.081004
	 R(8,12)          =         2.532012	       1.339883
	 R(8,21)          =         2.043698	       1.081478
	 R(9,10)          =         2.733384	       1.446444
	 R(11,13)         =         2.571662	       1.360865
	 R(12,22)         =         1.925277	       1.018813
	 R(13,23)         =         1.833410	       0.970199
	 B(1,3,11)        =         2.094553	     120.009056
	 B(1,3,16)        =         2.088505	     119.662516
	 B(1,9,2)         =         2.093692	     119.959722
	 B(1,9,10)        =         2.095161	     120.043881
	 B(2,4,11)        =         2.093699	     119.960108
	 B(2,4,17)        =         2.089577	     119.723926
	 B(2,9,10)        =         2.094332	     119.996376
	 B(3,1,9)         =         2.094940	     120.031219
	 B(3,1,14)        =         2.079469	     119.144799
	 B(3,11,4)        =         2.094306	     119.994870
	 B(3,11,13)       =         2.094549	     120.008801
	 B(4,2,9)         =         2.095181	     120.045019
	 B(4,2,15)        =         2.078675	     119.099297
	 B(4,11,13)       =         2.094331	     119.996326
	 B(5,7,12)        =         2.095488	     120.062634
	 B(5,7,20)        =         2.161685	     123.855455
	 B(5,10,6)        =         2.093259	     119.934881
	 B(5,10,9)        =         2.095212	     120.046813
	 B(6,8,12)        =         2.096148	     120.100418
	 B(6,8,21)        =         2.161449	     123.841913
	 B(6,10,9)        =         2.094714	     120.018250
	 B(7,5,10)        =         2.073442	     118.799452
	 B(7,5,18)        =         2.089261	     119.705832
	 B(7,12,8)        =         2.135421	     122.350637
	 B(7,12,22)       =         2.073943	     118.828184
	 B(8,6,10)        =         2.072613	     118.751958
	 B(8,6,19)        =         2.089478	     119.718278
	 B(8,12,22)       =         2.073820	     118.821132
	 B(9,1,14)        =         2.108776	     120.823969
	 B(9,2,15)        =         2.109330	     120.855683
	 B(10,5,18)       =         2.120482	     121.494695
	 B(10,6,19)       =         2.121094	     121.529762
	 B(11,3,16)       =         2.100127	     120.328425
	 B(11,4,17)       =         2.099910	     120.315955
	 B(11,13,23)      =         1.925489	     110.322421
	 B(12,7,20)       =         2.026011	     116.081897
	 B(12,8,21)       =         2.025588	     116.057668
	 D(1,3,11,4)      =        -0.000325	      -0.018609
	 D(1,3,11,13)     =         3.140978	     179.964785
	 D(1,9,2,4)       =         0.000325	       0.018608
	 D(1,9,2,15)      =        -3.141497	    -179.994534
	 D(1,9,10,5)      =         1.046017	      59.932370
	 D(1,9,10,6)      =        -2.094078	    -119.981829
	 D(2,4,11,3)      =         0.000301	       0.017261
	 D(2,4,11,13)     =        -3.141002	    -179.966135
	 D(2,9,1,3)       =        -0.000348	      -0.019945
	 D(2,9,1,14)      =        -3.141221	    -179.978731
	 D(2,9,10,5)      =        -2.094659	    -120.015127
	 D(2,9,10,6)      =         1.048431	      60.070675
	 D(3,1,9,10)      =        -3.141025	    -179.967461
	 D(3,11,4,17)     =         3.141223	     179.978848
	 D(3,11,13,23)    =         3.140828	     179.956172
	 D(4,2,9,10)      =         3.141002	     179.966149
	 D(4,11,3,16)     =         3.141593	     180.000000
	 D(4,11,13,23)    =        -0.001055	      -0.060434
	 D(5,7,12,8)      =        -0.000058	      -0.003324
	 D(5,7,12,22)     =         3.140140	     179.916752
	 D(5,10,6,8)      =         0.000960	       0.054998
	 D(5,10,6,19)     =        -3.140947	    -179.962985
	 D(6,8,12,7)      =         0.000203	       0.011609
	 D(6,8,12,22)     =        -3.139995	    -179.908472
	 D(6,10,5,7)      =        -0.000821	      -0.047052
	 D(6,10,5,18)     =        -3.141496	    -179.994447
	 D(7,5,10,9)      =        -3.140918	    -179.961322
	 D(7,12,8,21)     =         3.141574	     179.998903
	 D(8,6,10,9)      =         3.141057	     179.969293
	 D(8,12,7,20)     =         3.140792	     179.954141
	 D(9,1,3,11)      =         0.000348	       0.019955
	 D(9,1,3,16)      =        -3.141571	    -179.998735
	 D(9,2,4,11)      =        -0.000301	      -0.017270
	 D(9,2,4,17)      =        -3.141228	    -179.979086
	 D(9,10,5,18)     =         0.001593	       0.091283
	 D(9,10,6,19)     =        -0.000850	      -0.048690
	 D(10,5,7,12)     =         0.000367	       0.021030
	 D(10,5,7,20)     =        -3.140423	    -179.932966
	 D(10,6,8,12)     =        -0.000650	      -0.037258
	 D(10,6,8,21)     =         3.141182	     179.976485
	 D(10,9,1,14)     =         0.001287	       0.073752
	 D(10,9,2,15)     =        -0.000820	      -0.046992
	 D(11,3,1,14)     =         3.141234	     179.979432
	 D(11,4,2,15)     =         3.141517	     179.995641
	 D(12,7,5,18)     =         3.141058	     179.969387
	 D(12,8,6,19)     =         3.141250	     179.980392
	 D(13,11,3,16)    =        -0.000286	      -0.016400
	 D(13,11,4,17)    =        -0.000079	      -0.004548
	 D(14,1,3,16)     =        -0.000685	      -0.039257
	 D(15,2,4,17)     =         0.000590	       0.033826
	 D(18,5,7,20)     =         0.000269	       0.015391
	 D(19,6,8,21)     =        -0.000102	      -0.005865
	 D(20,7,12,22)    =        -0.002195	      -0.125783
	 D(21,8,12,22)    =         0.001376	       0.078822

	Current energy   :      -554.0939380995

	Generating empirical Hessian (Schlegel '84) for each fragment.
	Adding user-defined constraint: Fragment 1; Coordinate 66:
		Value =     1.046017; Fixed value    =     1.047198
		Force =     0.000590; Force constant =     0.500000
	Removing off-diagonal coupling between coordinate 66 and others.
	Taking RFO optimization step.
	Going to follow RFO solution 1.
	Using RFO vector 1.

	Determining step-restricting scale parameter for RS-RFO.
	Maximum step size allowed    0.10000

	 Iter      |step|        alpha        rfo_root  
	------------------------------------------------
	    0     0.25189       1.00000           1
	    1     0.17540       3.99638           1
	    2     0.13517       9.76850           1
	    3     0.11297      18.86250           1
	    4     0.10258      26.88294           1
	    5     0.10013      29.33162           1
	    6     0.10000      29.46741           1
	------------------------------------------------
	Norm of target step-size    0.10000
	Projected energy change by RFO approximation:        -0.0040313342

	Back-transformation to cartesian coordinates...
	Could not converge backtransformation.
	Using first guess instead.

	--- Internal Coordinate Step in ANG or DEG, aJ/ANG or AJ/DEG ---
	 ---------------------------------------------------------------------------
	   Coordinate                Previous        Force       Change         New 
	   ----------                --------       ------       ------       ------
	    1 R(1,3)          =      1.394038    -0.083276    -0.009236     1.384802
	    2 R(1,9)          =      1.394891    -0.007814    -0.000765     1.394127
	    3 R(1,14)         =      1.087431    -0.041971    -0.005761     1.081670
	    4 R(2,4)          =      1.394521    -0.083000    -0.009106     1.385415
	    5 R(2,9)          =      1.394821    -0.018241    -0.001863     1.392958
	    6 R(2,15)         =      1.087831    -0.042039    -0.005756     1.082075
	    7 R(3,11)         =      1.394821    -0.060101    -0.006726     1.388095
	    8 R(3,16)         =      1.086899    -0.047291    -0.006426     1.080473
	    9 R(4,11)         =      1.395407    -0.011506    -0.001300     1.394108
	   10 R(4,17)         =      1.086527    -0.036277    -0.004967     1.081560
	   11 R(5,7)          =      1.388475    -0.099442    -0.010753     1.377722
	   12 R(5,10)         =      1.390824     0.038397     0.004275     1.395100
	   13 R(5,18)         =      1.085776    -0.047754    -0.006535     1.079240
	   14 R(6,8)          =      1.388430    -0.099057    -0.010720     1.377710
	   15 R(6,10)         =      1.391422     0.034804     0.003901     1.395323
	   16 R(6,19)         =      1.085833    -0.048465    -0.006619     1.079215
	   17 R(7,12)         =      1.339946     0.018095     0.001729     1.341675
	   18 R(7,20)         =      1.081004    -0.019328    -0.002591     1.078413
	   19 R(8,12)         =      1.339883     0.018550     0.001793     1.341675
	   20 R(8,21)         =      1.081478    -0.022002    -0.002963     1.078516
	   21 R(9,10)         =      1.446444     0.073541     0.009406     1.455850
	   22 R(11,13)        =      1.360865    -0.093773    -0.008625     1.352240
	   23 R(12,22)        =      1.018813    -0.045881    -0.005247     1.013566
	   24 R(13,23)        =      0.970199    -0.063251    -0.006003     0.964196
	   25 B(1,3,11)       =    120.009056    -0.000052    -0.151953   119.857104
	   26 B(1,3,16)       =    119.662516     0.000204     0.565357   120.227873
	   27 B(1,9,2)        =    119.959722    -0.000183    -0.352565   119.607157
	   28 B(1,9,10)       =    120.043881     0.000086     0.168236   120.212118
	   29 B(2,4,11)       =    119.960108     0.000064     0.141359   120.101467
	   30 B(2,4,17)       =    119.723926    -0.000007    -0.003079   119.720847
	   31 B(2,9,10)       =    119.996376     0.000097     0.183151   120.179527
	   32 B(3,1,9)        =    120.031219     0.000171     0.373997   120.405216
	   33 B(3,1,14)       =    119.144799    -0.000040    -0.064450   119.080350
	   34 B(3,11,4)       =    119.994870     0.000023     0.016807   120.011678
	   35 B(3,11,13)      =    120.008801    -0.001018    -2.091118   117.917684
	   36 B(4,2,9)        =    120.045019    -0.000024    -0.028727   120.016292
	   37 B(4,2,15)       =    119.099297     0.000099     0.252245   119.351542
	   38 B(4,11,13)      =    119.996326     0.000995     2.074301   122.070627
	   39 B(5,7,12)       =    120.062634    -0.000305    -0.702989   119.359645
	   40 B(5,7,20)       =    123.855455     0.000057     0.090296   123.945751
	   41 B(5,10,6)       =    119.934881    -0.000544    -1.129774   118.805107
	   42 B(5,10,9)       =    120.046813     0.000260     0.542051   120.588865
	   43 B(6,8,12)       =    120.100418    -0.000313    -0.721146   119.379272
	   44 B(6,8,21)       =    123.841913     0.000060     0.098560   123.940474
	   45 B(6,10,9)       =    120.018250     0.000284     0.586826   120.605076
	   46 B(7,5,10)       =    118.799452     0.000414     0.913307   119.712759
	   47 B(7,5,18)       =    119.705832    -0.000170    -0.357992   119.347840
	   48 B(7,12,8)       =    122.350637     0.000321     0.703616   123.054254
	   49 B(7,12,22)      =    118.828184    -0.000161    -0.353705   118.474479
	   50 B(8,6,10)       =    118.751958     0.000426     0.936717   119.688675
	   51 B(8,6,19)       =    119.718278    -0.000173    -0.362104   119.356174
	   52 B(8,12,22)      =    118.821132    -0.000160    -0.349867   118.471264
	   53 B(9,1,14)       =    120.823969    -0.000131    -0.310168   120.513801
	   54 B(9,2,15)       =    120.855683    -0.000075    -0.224206   120.631476
	   55 B(10,5,18)      =    121.494695    -0.000244    -0.555396   120.939300
	   56 B(10,6,19)      =    121.529762    -0.000253    -0.574742   120.955020
	   57 B(11,3,16)      =    120.328425    -0.000153    -0.413403   119.915022
	   58 B(11,4,17)      =    120.315955    -0.000057    -0.138272   120.177683
	   59 B(11,13,23)     =    110.322421    -0.000217    -0.595575   109.726846
	   60 B(12,7,20)      =    116.081897     0.000249     0.612335   116.694231
	   61 B(12,8,21)      =    116.057668     0.000253     0.622442   116.680110
	   62 D(1,3,11,4)     =     -0.018609    -0.000006    -0.165835    -0.184444
	   63 D(1,3,11,13)    =    179.964785    -0.000005    -0.109926   179.854859
	   64 D(1,9,2,4)      =      0.018608    -0.000011    -0.346674    -0.328067
	   65 D(1,9,2,15)     =   -179.994534     0.000002    -0.029510  -180.024044
	   66 D(1,9,10,5)     =     59.932370    -0.000031    -0.322177    59.610192
	   67 D(1,9,10,6)     =   -119.981829    -0.000042    -0.767138  -120.748967
	   68 D(2,4,11,3)     =      0.017261    -0.000004    -0.092754    -0.075492
	   69 D(2,4,11,13)    =   -179.966135    -0.000005    -0.150341  -180.116476
	   70 D(2,9,1,3)      =     -0.019945     0.000000     0.088036     0.068091
	   71 D(2,9,1,14)     =   -179.978731     0.000011     0.338916  -179.639815
	   72 D(2,9,10,5)     =   -120.015127    -0.000042    -0.774390  -120.789518
	   73 D(2,9,10,6)     =     60.070675    -0.000053    -1.219351    58.851323
	   74 D(3,1,9,10)     =   -179.967461    -0.000011    -0.361869  -180.329330
	   75 D(3,11,4,17)    =    179.978848    -0.000003    -0.037009   179.941839
	   76 D(3,11,13,23)   =    179.956172     0.000001     0.006153   179.962325
	   77 D(4,2,9,10)     =    179.966149     0.000000     0.103074   180.069223
	   78 D(4,11,3,16)    =    180.000000    -0.000006    -0.172553   179.827447
	   79 D(4,11,13,23)   =     -0.060434     0.000002     0.062921     0.002487
	   80 D(5,7,12,8)     =     -0.003324     0.000001    -0.005886    -0.009210
	   81 D(5,7,12,22)    =    179.916752     0.000002     0.053514   179.970266
	   82 D(5,10,6,8)     =      0.054998    -0.000004    -0.187620    -0.132621
	   83 D(5,10,6,19)    =   -179.962985     0.000002    -0.037015  -180.000000
	   84 D(6,8,12,7)     =      0.011609     0.000002     0.068693     0.080303
	   85 D(6,8,12,22)    =   -179.908472     0.000001     0.009299  -179.899174
	   86 D(6,10,5,7)     =     -0.047052     0.000007     0.249752     0.202700
	   87 D(6,10,5,18)    =   -179.994447     0.000010     0.313628  -179.680819
	   88 D(7,5,10,9)     =   -179.961322    -0.000004    -0.188756  -180.150078
	   89 D(7,12,8,21)    =    179.998903    -0.000003    -0.051555   179.947348
	   90 D(8,6,10,9)     =    179.969293     0.000006     0.250923   180.220216
	   91 D(8,12,7,20)    =    179.954141    -0.000006    -0.176578   179.777563
	   92 D(9,1,3,11)     =      0.019955     0.000008     0.167779     0.187734
	   93 D(9,1,3,16)     =   -179.998735     0.000008     0.174539  -179.824195
	   94 D(9,2,4,11)     =     -0.017270     0.000013     0.349508     0.332238
	   95 D(9,2,4,17)     =   -179.979086     0.000011     0.294071  -179.685014
	   96 D(9,10,5,18)    =      0.091283    -0.000001    -0.124881    -0.033597
	   97 D(9,10,6,19)    =     -0.048690     0.000012     0.401199     0.352509
	   98 D(10,5,7,12)    =      0.021030    -0.000005    -0.155372    -0.134342
	   99 D(10,5,7,20)    =   -179.932966     0.000002     0.028263  -179.904703
	  100 D(10,6,8,12)    =     -0.037258    -0.000001     0.030939    -0.006319
	  101 D(10,6,8,21)    =    179.976485     0.000006     0.160393   180.136878
	  102 D(10,9,1,14)    =      0.073752     0.000000    -0.110988    -0.037236
	  103 D(10,9,2,15)    =     -0.046992     0.000013     0.420238     0.373246
	  104 D(11,3,1,14)    =    179.979432    -0.000002    -0.079638   179.899795
	  105 D(11,4,2,15)    =    179.995641     0.000000     0.036468   180.032110
	  106 D(12,7,5,18)    =    179.969387    -0.000008    -0.218346   179.751041
	  107 D(12,8,6,19)    =    179.980392    -0.000006    -0.116876   179.863516
	  108 D(13,11,3,16)   =     -0.016400    -0.000005    -0.116850    -0.133250
	  109 D(13,11,4,17)   =     -0.004548    -0.000004    -0.094596    -0.099144
	  110 D(14,1,3,16)    =     -0.039257    -0.000002    -0.072877    -0.112134
	  111 D(15,2,4,17)    =      0.033826    -0.000001    -0.018968     0.014858
	  112 D(18,5,7,20)    =      0.015391    -0.000001    -0.034711    -0.019320
	  113 D(19,6,8,21)    =     -0.005865     0.000000     0.012578     0.006713
	  114 D(20,7,12,22)   =     -0.125783    -0.000005    -0.117179    -0.242961
	  115 D(21,8,12,22)   =      0.078822    -0.000005    -0.110950    -0.032128
	 ---------------------------------------------------------------------------
	Successfully symmetrized geometry.
	 Forces used to impose fixed constraints are not included.
	  Forces zeroed: 66 

  ==> Convergence Check <==

  Measures of convergence in internal coordinates in au.
  Criteria marked as inactive (o), active & met (*), and active & unmet ( ).
  --------------------------------------------------------------------------------------------- ~
   Step     Total Energy     Delta E     MAX Force     RMS Force      MAX Disp      RMS Disp    ~
  --------------------------------------------------------------------------------------------- ~
    Convergence Criteria    1.00e-06 *    3.00e-04 *             o    1.20e-03 *             o  ~
  --------------------------------------------------------------------------------------------- ~
      1    -554.09393810   -5.54e+02      1.34e-02      3.91e-03 o    3.65e-02      9.31e-03 o  ~
  ---------------------------------------------------------------------------------------------

	Writing optimization data to binary file.
	Structure for next step:
	Cartesian Geometry (in Angstrom)
	    C    -1.2747693374   0.7325423447  -0.5598147087
	    C    -0.2841408493   0.0983272040   1.5423747613
	    C    -2.3467602885   1.2982759392   0.1098540585
	    C    -1.3536748034   0.6688874021   2.2131451848
	    C     1.6840664583   0.3006525606  -1.4024806692
	    C     1.1827788131  -1.8232088545  -0.3989697581
	    C     2.7426764179  -0.2848425307  -2.0617673131
	    C     2.2512514120  -2.3702457947  -1.0751377041
	    C    -0.2373684321   0.1302598432   0.1505681983
	    C     0.8841046535  -0.4695343203  -0.5579830265
	    C    -2.3880053622   1.2696291952   1.4970408676
	    N     2.9905114241  -1.5906706056  -1.8787856037
	    O    -3.4514949343   1.8362127341   2.1106575876
	    H    -1.2562673132   0.7604965785  -1.6409651108
	    H     0.5118115392  -0.3651730132   2.1102778266
	    H    -3.1506028749   1.7618107735  -0.4436751713
	    H    -1.3826122243   0.6458740696   3.2940735433
	    H     1.4873356782   1.3519693787  -1.5466668897
	    H     0.5870419344  -2.4511196435   0.2456465527
	    H     3.4046274809   0.2451864169  -2.7279984911
	    H     2.5418193341  -3.4064830098  -1.0045792189
	    H     3.7723906611  -2.0077178450  -2.3707735129
	    H    -3.3600386364   1.7493552380   3.0665687473
			--------------------------
			 OPTKING Finished Execution 
			--------------------------

    Structure for next step:
    Molecular point group: c1
    Full point group: C1

    Geometry (in Angstrom), charge = 1, multiplicity = 1:

    C           -1.275769403980     0.732684861148    -0.559273753226
    C           -0.285140915850     0.098469720447     1.542915716794
    C           -2.347760355052     1.298418455648     0.110395013941
    C           -1.354674869986     0.669029918555     2.213686140219
    C            1.683066391695     0.300795077045    -1.401939713743
    C            1.181778746511    -1.823066338112    -0.398428802636
    C            2.741676351316    -0.284700014294    -2.061226357685
    C            2.250251345414    -2.370103278340    -1.074596748636
    C           -0.238368498667     0.130402359650     0.151109153776
    C            0.883104586917    -0.469391803868    -0.557442071102
    C           -2.389005428730     1.269771711633     1.497581823019
    N            2.989511357570    -1.590528089149    -1.878244648230
    O           -3.452495000863     1.836355250547     2.111198543009
    H           -1.257267379814     0.760639094910    -1.640424155342
    H            0.510811472654    -0.365030496841     2.110818781997
    H           -3.151602941454     1.761953289877    -0.443134215872
    H           -1.383612290914     0.646016585975     3.294614498786
    H            1.486335611618     1.352111895101    -1.546125934256
    H            0.586041867796    -2.450977127075     0.246187508111
    H            3.403627414291     0.245328933283    -2.727457535632
    H            2.540819267535    -3.406340493411    -1.004038263459
    H            3.771390594519    -2.007575328632    -2.370232557414
    H           -3.361038703017     1.749497754378     3.067109702768

gradient() will perform analytic gradient computation.

*** tstart() called on gpu-2-6.local
*** at Sun Nov 12 09:06:08 2017

    SCF Algorithm Type (re)set to DF.

*** tstart() called on gpu-2-6.local
*** at Sun Nov 12 09:06:08 2017

   => Loading Basis Set <=

    Name: AUG-CC-PVTZ
    Role: ORBITAL
    Keyword: BASIS
    atoms 1-11  entry C          line   221 file /cbio/jclab/home/chayas/anaconda/envs/py35/share/psi4/basis/aug-cc-pvtz.gbs 
    atoms 12    entry N          line   267 file /cbio/jclab/home/chayas/anaconda/envs/py35/share/psi4/basis/aug-cc-pvtz.gbs 
    atoms 13    entry O          line   313 file /cbio/jclab/home/chayas/anaconda/envs/py35/share/psi4/basis/aug-cc-pvtz.gbs 
    atoms 14-23 entry H          line    34 file /cbio/jclab/home/chayas/anaconda/envs/py35/share/psi4/basis/aug-cc-pvtz.gbs 


         ---------------------------------------------------------
                                   SCF
            by Justin Turney, Rob Parrish, and Andy Simmonett
                              RHF Reference
                        8 Threads,   4768 MiB Core
         ---------------------------------------------------------

  ==> Geometry <==

    Molecular point group: c1
    Full point group: C1

    Geometry (in Angstrom), charge = 1, multiplicity = 1:

       Center              X                  Y                   Z               Mass       
    ------------   -----------------  -----------------  -----------------  -----------------
           C         -1.275769403980     0.732684861148    -0.559273753226    12.000000000000
           C         -0.285140915850     0.098469720447     1.542915716794    12.000000000000
           C         -2.347760355052     1.298418455648     0.110395013941    12.000000000000
           C         -1.354674869986     0.669029918555     2.213686140219    12.000000000000
           C          1.683066391695     0.300795077045    -1.401939713743    12.000000000000
           C          1.181778746511    -1.823066338112    -0.398428802636    12.000000000000
           C          2.741676351316    -0.284700014294    -2.061226357685    12.000000000000
           C          2.250251345414    -2.370103278340    -1.074596748636    12.000000000000
           C         -0.238368498667     0.130402359650     0.151109153776    12.000000000000
           C          0.883104586917    -0.469391803868    -0.557442071102    12.000000000000
           C         -2.389005428730     1.269771711633     1.497581823019    12.000000000000
           N          2.989511357570    -1.590528089149    -1.878244648230    14.003074004780
           O         -3.452495000863     1.836355250547     2.111198543009    15.994914619560
           H         -1.257267379814     0.760639094910    -1.640424155342     1.007825032070
           H          0.510811472654    -0.365030496841     2.110818781997     1.007825032070
           H         -3.151602941454     1.761953289877    -0.443134215872     1.007825032070
           H         -1.383612290914     0.646016585975     3.294614498786     1.007825032070
           H          1.486335611618     1.352111895101    -1.546125934256     1.007825032070
           H          0.586041867796    -2.450977127075     0.246187508111     1.007825032070
           H          3.403627414291     0.245328933283    -2.727457535632     1.007825032070
           H          2.540819267535    -3.406340493411    -1.004038263459     1.007825032070
           H          3.771390594519    -2.007575328632    -2.370232557414     1.007825032070
           H         -3.361038703017     1.749497754378     3.067109702768     1.007825032070

  Running in c1 symmetry.

  Rotational constants: A =      0.09640  B =      0.01302  C =      0.01218 [cm^-1]
  Rotational constants: A =   2890.09124  B =    390.33963  C =    365.15347 [MHz]
  Nuclear repulsion =  712.978784702274652

  Charge       = 1
  Multiplicity = 1
  Electrons    = 90
  Nalpha       = 45
  Nbeta        = 45

  ==> Algorithm <==

  SCF Algorithm Type is DF.
  DIIS enabled.
  MOM disabled.
  Fractional occupation disabled.
  Guess Type is READ.
  Energy threshold   = 1.00e-10
  Density threshold  = 1.00e-10
  Integral threshold = 0.00e+00

  ==> Primary Basis <==

  Basis Set: AUG-CC-PVTZ
    Blend: AUG-CC-PVTZ
    Number of shells: 272
    Number of basis function: 828
    Number of Cartesian functions: 965
    Spherical Harmonics?: true
    Max angular momentum: 3

   => Loading Basis Set <=

    Name: (AUG-CC-PVTZ AUX)
    Role: JKFIT
    Keyword: DF_BASIS_SCF
    atoms 1-11  entry C          line   161 file /cbio/jclab/home/chayas/anaconda/envs/py35/share/psi4/basis/aug-cc-pvtz-jkfit.gbs 
    atoms 12    entry N          line   223 file /cbio/jclab/home/chayas/anaconda/envs/py35/share/psi4/basis/aug-cc-pvtz-jkfit.gbs 
    atoms 13    entry O          line   285 file /cbio/jclab/home/chayas/anaconda/envs/py35/share/psi4/basis/aug-cc-pvtz-jkfit.gbs 
    atoms 14-23 entry H          line    69 file /cbio/jclab/home/chayas/anaconda/envs/py35/share/psi4/basis/aug-cc-pvtz-jkfit.gbs 

  Reading orbitals from file 180, no projection.

  ==> Pre-Iterations <==

   -------------------------------------------------------
    Irrep   Nso     Nmo     Nalpha   Nbeta   Ndocc  Nsocc
   -------------------------------------------------------
     A        828     828       0       0       0       0
   -------------------------------------------------------
    Total     828     828      45      45      45       0
   -------------------------------------------------------

  ==> Integral Setup <==

  ==> DFJK: Density-Fitted J/K Matrices <==

    J tasked:                  Yes
    K tasked:                  Yes
    wK tasked:                  No
    OpenMP threads:              8
    Integrals threads:           8
    Memory (MB):              3576
    Algorithm:                Disk
    Integral Cache:           NONE
    Schwarz Cutoff:          1E-12
    Fitting Condition:       1E-12

   => Auxiliary Basis Set <=

  Basis Set: (AUG-CC-PVTZ AUX)
    Blend: AUG-CC-PVTZ-JKFIT
    Number of shells: 530
    Number of basis function: 1812
    Number of Cartesian functions: 2253
    Spherical Harmonics?: true
    Max angular momentum: 4

  Minimum eigenvalue in the overlap matrix is 5.4459539427E-07.
  Using Symmetric Orthogonalization.

  SCF Guess: Orbitals guess was supplied from a previous computation.

  ==> Iterations <==

                           Total Energy        Delta E     RMS |[F,P]|

   @DF-RHF iter   0:  -551.74957411281082   -5.51750e+02   3.66209e-04 
   @DF-RHF iter   1:  -551.67712903597703    7.24451e-02   7.97651e-05 
   @DF-RHF iter   2:  -551.67736592448682   -2.36889e-04   4.43593e-05 DIIS
   @DF-RHF iter   3:  -551.67749116355390   -1.25239e-04   9.18016e-06 DIIS
   @DF-RHF iter   4:  -551.67749782085320   -6.65730e-06   3.74546e-06 DIIS
   @DF-RHF iter   5:  -551.67749938696102   -1.56611e-06   9.90784e-07 DIIS
   @DF-RHF iter   6:  -551.67749959773778   -2.10777e-07   4.93689e-07 DIIS
   @DF-RHF iter   7:  -551.67749965947439   -6.17366e-08   2.40894e-07 DIIS
   @DF-RHF iter   8:  -551.67749967998657   -2.05122e-08   9.74371e-08 DIIS
   @DF-RHF iter   9:  -551.67749968360511   -3.61854e-09   2.79622e-08 DIIS
   @DF-RHF iter  10:  -551.67749968393196   -3.26850e-10   8.70335e-09 DIIS
   @DF-RHF iter  11:  -551.67749968396652   -3.45608e-11   3.07514e-09 DIIS
   @DF-RHF iter  12:  -551.67749968396220    4.32010e-12   1.58620e-09 DIIS
   @DF-RHF iter  13:  -551.67749968398084   -1.86446e-11   6.76848e-10 DIIS
   @DF-RHF iter  14:  -551.67749968397789    2.95586e-12   3.14042e-10 DIIS
   @DF-RHF iter  15:  -551.67749968397106    6.82121e-12   1.46571e-10 DIIS
   @DF-RHF iter  16:  -551.67749968396390    7.16227e-12   5.30533e-11 DIIS

  ==> Post-Iterations <==

    Orbital Energies (a.u.)
    -----------------------

    Doubly Occupied:                                                      

       1A    -20.697137     2A    -15.839363     3A    -11.486739  
       4A    -11.486637     5A    -11.449795     6A    -11.422919  
       7A    -11.416519     8A    -11.416354     9A    -11.371768  
      10A    -11.369469    11A    -11.367926    12A    -11.350723  
      13A    -11.344593    14A     -1.517726    15A     -1.515935  
      16A     -1.318592    17A     -1.264448    18A     -1.243800  
      19A     -1.153331    20A     -1.147497    21A     -1.068769  
      22A     -1.057272    23A     -0.973619    24A     -0.967389  
      25A     -0.947557    26A     -0.873364    27A     -0.859959  
      28A     -0.851935    29A     -0.821350    30A     -0.803486  
      31A     -0.788584    32A     -0.775876    33A     -0.751757  
      34A     -0.730402    35A     -0.716362    36A     -0.711235  
      37A     -0.701288    38A     -0.685092    39A     -0.650629  
      40A     -0.621718    41A     -0.612354    42A     -0.573663  
      43A     -0.542271    44A     -0.466592    45A     -0.435641  

    Virtual:                                                              

      46A     -0.103839    47A     -0.086279    48A     -0.064786  
      49A     -0.063154    50A     -0.059271    51A     -0.052571  
      52A     -0.042188    53A     -0.039687    54A     -0.038062  
      55A     -0.031029    56A     -0.023663    57A     -0.021285  
      58A     -0.014059    59A     -0.009869    60A     -0.003272  
      61A     -0.002276    62A     -0.000577    63A      0.008473  
      64A      0.009397    65A      0.012516    66A      0.013425  
      67A      0.018702    68A      0.019331    69A      0.026648  
      70A      0.029748    71A      0.032951    72A      0.034385  
      73A      0.037335    74A      0.039801    75A      0.044328  
      76A      0.046253    77A      0.049029    78A      0.053517  
      79A      0.056653    80A      0.062960    81A      0.063387  
      82A      0.071091    83A      0.076554    84A      0.079256  
      85A      0.083759    86A      0.086414    87A      0.092842  
      88A      0.094819    89A      0.096893    90A      0.104975  
      91A      0.107729    92A      0.113093    93A      0.118715  
      94A      0.122127    95A      0.130455    96A      0.131921  
      97A      0.133659    98A      0.134759    99A      0.141316  
     100A      0.143875   101A      0.150410   102A      0.158194  
     103A      0.161379   104A      0.162399   105A      0.166611  
     106A      0.167584   107A      0.170825   108A      0.175203  
     109A      0.175664   110A      0.177428   111A      0.184490  
     112A      0.186938   113A      0.189554   114A      0.196463  
     115A      0.198262   116A      0.204014   117A      0.211320  
     118A      0.213422   119A      0.214684   120A      0.220182  
     121A      0.222023   122A      0.227597   123A      0.228747  
     124A      0.232455   125A      0.235108   126A      0.240753  
     127A      0.243847   128A      0.248319   129A      0.252551  
     130A      0.257821   131A      0.260446   132A      0.264382  
     133A      0.272287   134A      0.279959   135A      0.281353  
     136A      0.283432   137A      0.289157   138A      0.294029  
     139A      0.296743   140A      0.304466   141A      0.311482  
     142A      0.315161   143A      0.317522   144A      0.320009  
     145A      0.324311   146A      0.325401   147A      0.329417  
     148A      0.330945   149A      0.334529   150A      0.341375  
     151A      0.343144   152A      0.346345   153A      0.348555  
     154A      0.350650   155A      0.354054   156A      0.356869  
     157A      0.359746   158A      0.363362   159A      0.370488  
     160A      0.373480   161A      0.373821   162A      0.375141  
     163A      0.379153   164A      0.385704   165A      0.389855  
     166A      0.390642   167A      0.395190   168A      0.400935  
     169A      0.404044   170A      0.407752   171A      0.408680  
     172A      0.412810   173A      0.416029   174A      0.419550  
     175A      0.427358   176A      0.429896   177A      0.431130  
     178A      0.437547   179A      0.441247   180A      0.448233  
     181A      0.452706   182A      0.456025   183A      0.457668  
     184A      0.467153   185A      0.471826   186A      0.480478  
     187A      0.481498   188A      0.484012   189A      0.488013  
     190A      0.492530   191A      0.499789   192A      0.503640  
     193A      0.519466   194A      0.521949   195A      0.523669  
     196A      0.539368   197A      0.542789   198A      0.545772  
     199A      0.558047   200A      0.561351   201A      0.565661  
     202A      0.568747   203A      0.573962   204A      0.577575  
     205A      0.582645   206A      0.591096   207A      0.595975  
     208A      0.599314   209A      0.604001   210A      0.607029  
     211A      0.609684   212A      0.616856   213A      0.620181  
     214A      0.623162   215A      0.627869   216A      0.632821  
     217A      0.636547   218A      0.643891   219A      0.647310  
     220A      0.656673   221A      0.669429   222A      0.677764  
     223A      0.683043   224A      0.688820   225A      0.691728  
     226A      0.699477   227A      0.706512   228A      0.710912  
     229A      0.715038   230A      0.723001   231A      0.725787  
     232A      0.730233   233A      0.740397   234A      0.746024  
     235A      0.749288   236A      0.753346   237A      0.760611  
     238A      0.762333   239A      0.765706   240A      0.771796  
     241A      0.774176   242A      0.778490   243A      0.781200  
     244A      0.788176   245A      0.790286   246A      0.793846  
     247A      0.796919   248A      0.798122   249A      0.805272  
     250A      0.807949   251A      0.809550   252A      0.811186  
[...]
	 B(7,12,22)       =         2.068616	     118.522941
	 B(8,6,10)        =         2.102653	     120.473129
	 B(8,6,19)        =         2.080175	     119.185249
	 B(8,12,22)       =         2.068417	     118.511556
	 B(9,1,14)        =         2.094931	     120.030716
	 B(9,2,15)        =         2.097650	     120.186480
	 B(10,5,18)       =         2.099224	     120.276659
	 B(10,6,19)       =         2.100124	     120.328251
	 B(11,3,16)       =         2.073597	     118.808343
	 B(11,4,17)       =         2.095514	     120.064115
	 B(11,13,23)      =         1.928063	     110.469854
	 B(12,7,20)       =         2.040569	     116.915981
	 B(12,8,21)       =         2.040231	     116.896618
	 D(1,3,11,4)      =        -0.019592	      -1.122533
	 D(1,3,11,13)     =         3.128710	     179.261897
	 D(1,9,2,4)       =        -0.061505	      -3.524000
	 D(1,9,2,15)      =         3.123420	     178.958772
	 D(1,9,10,5)      =         1.035285	      59.317460
	 D(1,9,10,6)      =        -2.197820	    -125.925802
	 D(2,4,11,3)      =        -0.003229	      -0.185034
	 D(2,4,11,13)     =         3.131189	     179.403898
	 D(2,9,1,3)       =         0.038643	       2.214101
	 D(2,9,1,14)      =        -3.086969	    -176.870311
	 D(2,9,10,5)      =        -2.227738	    -127.639969
	 D(2,9,10,6)      =         0.822343	      47.116769
	 D(3,1,9,10)      =         3.059961	     175.322835
	 D(3,11,4,17)     =        -3.141167	    -179.975620
	 D(3,11,13,23)    =         3.137527	     179.767046
	 D(4,2,9,10)      =        -3.082593	    -176.619541
	 D(4,11,3,16)     =         3.112483	     178.332113
	 D(4,11,13,23)    =         0.002895	       0.165854
	 D(5,7,12,8)      =        -0.003568	      -0.204414
	 D(5,7,12,22)     =        -3.137768	    -179.780888
	 D(5,10,6,8)      =        -0.037092	      -2.125207
	 D(5,10,6,19)     =         3.127904	     179.215687
	 D(6,8,12,7)      =         0.008297	       0.475407
	 D(6,8,12,22)     =        -3.140686	    -179.948073
	 D(6,10,5,7)      =         0.041843	       2.397401
	 D(6,10,5,18)     =        -3.095682	    -177.369511
	 D(7,5,10,9)      =         3.095012	     177.331137
	 D(7,12,8,21)     =        -3.139757	    -179.894825
	 D(8,6,10,9)      =        -3.090241	    -177.057764
	 D(8,12,7,20)     =         3.117148	     178.599402
	 D(9,1,3,11)      =         0.001644	       0.094198
	 D(9,1,3,16)      =        -3.130195	    -179.346990
	 D(9,2,4,11)      =         0.044021	       2.522215
	 D(9,2,4,17)      =        -3.101222	    -177.686916
	 D(9,10,5,18)     =        -0.042512	      -2.435775
	 D(9,10,6,19)     =         0.074755	       4.283129
	 D(10,5,7,12)     =        -0.022333	      -1.279582
	 D(10,5,7,20)     =        -3.141491	    -179.994184
	 D(10,6,8,12)     =         0.012877	       0.737793
	 D(10,6,8,21)     =        -3.121774	    -178.864488
	 D(10,9,1,14)     =        -0.065652	      -3.761577
	 D(10,9,2,15)     =         0.102333	       5.863232
	 D(11,3,1,14)     =         3.127335	     179.183112
	 D(11,4,2,15)     =        -3.140602	    -179.943241
	 D(12,7,5,18)     =         3.115235	     178.489845
	 D(12,8,6,19)     =         3.131332	     179.412109
	 D(13,11,3,16)    =        -0.022401	      -1.283457
	 D(13,11,4,17)    =        -0.006749	      -0.386689
	 D(14,1,3,16)     =        -0.004504	      -0.258076
	 D(15,2,4,17)     =        -0.002659	      -0.152372
	 D(18,5,7,20)     =        -0.003923	      -0.224757
	 D(19,6,8,21)     =        -0.003319	      -0.190173
	 D(20,7,12,22)    =        -0.017053	      -0.977072
	 D(21,8,12,22)    =        -0.005555	      -0.318305

	Current energy   :      -554.0976174773

	Energy change for the previous step:
		Projected    :        -0.0000020704
		Actual       :         0.0000009068

	Performing BFGS update.
	Previous computed or guess Hessian on step 1.
	Steps to be used in Hessian update: 10 9
	Adding user-defined constraint: Fragment 1; Coordinate 66:
		Value =     1.035285; Fixed value    =     1.047200
		Force =     0.008936; Force constant =     0.750000
	Removing off-diagonal coupling between coordinate 66 and others.
	Taking RFO optimization step.
	Going to follow RFO solution 1.
	Using RFO vector 1.
	Norm of target step-size    0.03571
	Projected energy change by RFO approximation:        -0.0000034309

	Back-transformation to cartesian coordinates...
	Successfully converged to displaced geometry.

	--- Internal Coordinate Step in ANG or DEG, aJ/ANG or AJ/DEG ---
	 ---------------------------------------------------------------------------
	   Coordinate                Previous        Force       Change         New 
	   ----------                --------       ------       ------       ------
	    1 R(1,3)          =      1.379601     0.000118     0.000630     1.380231
	    2 R(1,9)          =      1.396839    -0.000326    -0.000493     1.396346
	    3 R(1,14)         =      1.080513    -0.000313    -0.000204     1.080309
	    4 R(2,4)          =      1.382364    -0.000367    -0.000573     1.381791
	    5 R(2,9)          =      1.394683    -0.000477    -0.000337     1.394347
	    6 R(2,15)         =      1.080507    -0.000349    -0.000130     1.080377
	    7 R(3,11)         =      1.392487    -0.001612    -0.002009     1.390478
	    8 R(3,16)         =      1.078579    -0.000266    -0.000399     1.078181
	    9 R(4,11)         =      1.392519     0.000167     0.000571     1.393090
	   10 R(4,17)         =      1.080456    -0.000453    -0.000560     1.079896
	   11 R(5,7)          =      1.373996    -0.000308    -0.000195     1.373802
	   12 R(5,10)         =      1.398218    -0.000513    -0.000419     1.397799
	   13 R(5,18)         =      1.078338    -0.000498    -0.000607     1.077731
	   14 R(6,8)          =      1.374106    -0.000064    -0.000028     1.374078
	   15 R(6,10)         =      1.398089    -0.000491    -0.000543     1.397546
	   16 R(6,19)         =      1.078221    -0.000708    -0.000715     1.077506
	   17 R(7,12)         =      1.343107    -0.000573    -0.000441     1.342666
	   18 R(7,20)         =      1.077262    -0.000200    -0.000232     1.077031
	   19 R(8,12)         =      1.342823    -0.000907    -0.000641     1.342181
	   20 R(8,21)         =      1.077321    -0.000312    -0.000372     1.076949
	   21 R(9,10)         =      1.450675     0.001438     0.001541     1.452215
	   22 R(11,13)        =      1.346107     0.000671     0.000694     1.346802
	   23 R(12,22)        =      1.012288    -0.000333    -0.000305     1.011984
	   24 R(13,23)        =      0.963478    -0.000611    -0.000533     0.962945
	   25 B(1,3,11)       =    119.963871    -0.000001    -0.058015   119.905856
	   26 B(1,3,16)       =    121.225482    -0.000003    -0.245309   120.980173
	   27 B(1,9,2)        =    119.307173    -0.000005    -0.136713   119.170460
	   28 B(1,9,10)       =    120.071433     0.000001    -0.112577   119.958856
	   29 B(2,4,11)       =    120.005475     0.000001     0.067423   120.072898
	   30 B(2,4,17)       =    119.930079    -0.000001    -0.031151   119.898929
	   31 B(2,9,10)       =    120.259089     0.000003     0.262975   120.522064
	   32 B(3,1,9)        =    120.425704     0.000005     0.149368   120.575072
	   33 B(3,1,14)       =    119.537302    -0.000004    -0.175684   119.361618
	   34 B(3,11,4)       =    119.934477    -0.000000    -0.039468   119.895009
	   35 B(3,11,13)      =    116.717045     0.000003     0.144035   116.861079
	   36 B(4,2,9)        =    120.279634     0.000001     0.012031   120.291665
	   37 B(4,2,15)       =    119.487753    -0.000002    -0.077015   119.410738
	   38 B(4,11,13)      =    123.347283    -0.000003    -0.103373   123.243911
	   39 B(5,7,12)       =    119.149816     0.000001     0.014314   119.164131
	   40 B(5,7,20)       =    123.922484     0.000000     0.011364   123.933848
	   41 B(5,10,6)       =    117.616698    -0.000001    -0.012371   117.604327
	   42 B(5,10,9)       =    121.081334     0.000002    -0.061166   121.020167
	   43 B(6,8,12)       =    119.220440     0.000001     0.016997   119.237437
	   44 B(6,8,21)       =    123.881820     0.000001     0.015745   123.897565
	   45 B(6,10,9)       =    121.103376    -0.000002     0.085099   121.188475
	   46 B(7,5,10)       =    120.534233    -0.000000    -0.004284   120.529949
	   47 B(7,5,18)       =    119.188704    -0.000001    -0.041273   119.147431
	   48 B(7,12,8)       =    122.964189    -0.000001    -0.023128   122.941062
	   49 B(7,12,22)      =    118.522941     0.000001     0.012654   118.535595
	   50 B(8,6,10)       =    120.473129    -0.000000    -0.006323   120.466807
	   51 B(8,6,19)       =    119.185249    -0.000000    -0.049668   119.135581
	   52 B(8,12,22)      =    118.511556     0.000000     0.009270   118.520826
	   53 B(9,1,14)       =    120.030716    -0.000001     0.020471   120.051187
	   54 B(9,2,15)       =    120.186480     0.000001     0.063474   120.249954
	   55 B(10,5,18)      =    120.276659     0.000002     0.045128   120.321787
	   56 B(10,6,19)      =    120.328251     0.000001     0.056012   120.384264
	   57 B(11,3,16)      =    118.808343     0.000004     0.303855   119.112198
	   58 B(11,4,17)      =    120.064115    -0.000000    -0.037067   120.027048
	   59 B(11,13,23)     =    110.469854    -0.000003    -0.109354   110.360500
	   60 B(12,7,20)      =    116.915981    -0.000001    -0.025957   116.890024
	   61 B(12,8,21)      =    116.896618    -0.000002    -0.033182   116.863436
	   62 D(1,3,11,4)     =     -1.122533     0.000000    -0.012078    -1.134611
	   63 D(1,3,11,13)    =    179.261897    -0.000000    -0.406855   178.855042
	   64 D(1,9,2,4)      =     -3.524000    -0.000001    -0.095852    -3.619853
	   65 D(1,9,2,15)     =    178.958772    -0.000000    -0.053633   178.905139
	   66 D(1,9,10,5)     =     59.317460     0.000003     0.124651    59.442111
	   67 D(1,9,10,6)     =   -125.925802     0.000003     0.278595  -125.647207
	   68 D(2,4,11,3)     =     -0.185034    -0.000000    -0.140664    -0.325698
	   69 D(2,4,11,13)    =    179.403898     0.000000     0.281441   179.685339
	   70 D(2,9,1,3)      =      2.214101     0.000000    -0.055590     2.158510
	   71 D(2,9,1,14)     =   -176.870311     0.000000     0.303379  -176.566933
	   72 D(2,9,10,5)     =   -127.639969     0.000002     0.247315  -127.392654
	   73 D(2,9,10,6)     =     47.116769     0.000001     0.401259    47.518028
	   74 D(3,1,9,10)     =    175.322835    -0.000001     0.093233   175.416068
	   75 D(3,11,4,17)    =   -179.975620    -0.000000     0.036227  -179.939393
	   76 D(3,11,13,23)   =    179.767046     0.000001     0.353740   180.120786
	   77 D(4,2,9,10)     =   -176.619541     0.000001    -0.218941  -176.838481
	   78 D(4,11,3,16)    =    178.332113     0.000000     0.053613   178.385726
	   79 D(4,11,13,23)   =      0.165854    -0.000000    -0.055794     0.110060
	   80 D(5,7,12,8)     =     -0.204414     0.000000    -0.197643    -0.402057
	   81 D(5,7,12,22)    =   -179.780888     0.000000    -0.034899  -179.815788
	   82 D(5,10,6,8)     =     -2.125207    -0.000000    -0.327371    -2.452578
	   83 D(5,10,6,19)    =    179.215687    -0.000000    -0.327790   178.887897
	   84 D(6,8,12,7)     =      0.475407    -0.000000     0.235219     0.710626
	   85 D(6,8,12,22)    =   -179.948073    -0.000000     0.072512  -179.875561
	   86 D(6,10,5,7)     =      2.397401     0.000000     0.364987     2.762388
	   87 D(6,10,5,18)    =   -177.369511     0.000000     0.466763  -176.902748
	   88 D(7,5,10,9)     =    177.331137    -0.000001     0.518687   177.849824
	   89 D(7,12,8,21)    =   -179.894825     0.000000     0.168630  -179.726194
	   90 D(8,6,10,9)     =   -177.057764     0.000001    -0.473514  -177.531278
	   91 D(8,12,7,20)    =    178.599402    -0.000000    -0.211636   178.387765
	   92 D(9,1,3,11)     =      0.094198    -0.000000     0.109213     0.203411
	   93 D(9,1,3,16)     =   -179.346990    -0.000000     0.039196  -179.307794
	   94 D(9,2,4,11)     =      2.522215     0.000001     0.199381     2.721596
	   95 D(9,2,4,17)     =   -177.686916     0.000000     0.022705  -177.664211
	   96 D(9,10,5,18)    =     -2.435775    -0.000001     0.620463    -1.815312
	   97 D(9,10,6,19)    =      4.283129     0.000001    -0.473933     3.809197
	   98 D(10,5,7,12)    =     -1.279582    -0.000000    -0.113470    -1.393052
	   99 D(10,5,7,20)    =   -179.994184     0.000000    -0.097959  -180.092143
	  100 D(10,6,8,12)    =      0.737793     0.000000     0.038502     0.776296
	  101 D(10,6,8,21)    =   -178.864488    -0.000000     0.110260  -178.754228
	  102 D(10,9,1,14)    =     -3.761577    -0.000001     0.452202    -3.309374
	  103 D(10,9,2,15)    =      5.863232     0.000001    -0.176722     5.686510
	  104 D(11,3,1,14)    =    179.183112    -0.000000    -0.245535   178.937577
	  105 D(11,4,2,15)    =   -179.943241     0.000000     0.160977  -179.782264
	  106 D(12,7,5,18)    =    178.489845    -0.000000    -0.213862   178.275982
	  107 D(12,8,6,19)    =    179.412109    -0.000000     0.040316   179.452425
	  108 D(13,11,3,16)   =     -1.283457    -0.000000    -0.341165    -1.624621
	  109 D(13,11,4,17)   =     -0.386689     0.000001     0.458332     0.071644
	  110 D(14,1,3,16)    =     -0.258076    -0.000000    -0.315551    -0.573628
	  111 D(15,2,4,17)    =     -0.152372    -0.000000    -0.015699    -0.168071
	  112 D(18,5,7,20)    =     -0.224757     0.000000    -0.198352    -0.423109
	  113 D(19,6,8,21)    =     -0.190173    -0.000000     0.112074    -0.078099
	  114 D(20,7,12,22)   =     -0.977072    -0.000000    -0.048893    -1.025965
	  115 D(21,8,12,22)   =     -0.318305    -0.000000     0.005923    -0.312382
	 ---------------------------------------------------------------------------
	Successfully symmetrized geometry.
	 Forces used to impose fixed constraints are not included.
	  Forces zeroed: 66 

  ==> Convergence Check <==

  Measures of convergence in internal coordinates in au.
  Criteria marked as inactive (o), active & met (*), and active & unmet ( ).
  ---------------------------------------------------------------------------------------------
   Step     Total Energy     Delta E     MAX Force     RMS Force      MAX Disp      RMS Disp   
  ---------------------------------------------------------------------------------------------
    Convergence Criteria    1.00e-06 *    3.00e-04 *             o    1.20e-03 *             o
  ---------------------------------------------------------------------------------------------
     11    -554.09761748    9.07e-07 *    1.96e-04 *    4.51e-05 o    1.08e-02      3.33e-03 o  ~
  ---------------------------------------------------------------------------------------------


  **** Optimization is complete! (in 11 steps) ****

  ==> Optimization Summary <==

  Measures of convergence in internal coordinates in au.
  --------------------------------------------------------------------------------------------------------------- ~
   Step         Total Energy             Delta E       MAX Force       RMS Force        MAX Disp        RMS Disp  ~
  --------------------------------------------------------------------------------------------------------------- ~
      1    -554.093938099500   -554.093938099500      0.01337924      0.00391379      0.03649689      0.00931264  ~
      2    -554.096501354108     -0.002563254608      0.00455449      0.00116122      0.05310977      0.00931904  ~
      3    -554.097169097182     -0.000667743074      0.00191771      0.00041491      0.05984568      0.00931793  ~
      4    -554.097477911541     -0.000308814360      0.00113634      0.00021738      0.06045389      0.00931752  ~
      5    -554.097677867083     -0.000199955542      0.00117544      0.00020802      0.02924613      0.00476082  ~
      6    -554.097705388380     -0.000027521296      0.00124125      0.00018599      0.00240019      0.00042453  ~
      7    -554.097691482464      0.000013905916      0.00117158      0.00017393      0.00910190      0.00151234  ~
      8    -554.097688606818      0.000002875646      0.00121434      0.00017743      0.01653902      0.00503616  ~
      9    -554.097581842624      0.000106764194      0.00050736      0.00015016      0.01527655      0.00415878  ~
     10    -554.097618384094     -0.000036541470      0.00035536      0.00007671      0.00465166      0.00128344  ~
     11    -554.097617477294      0.000000906799      0.00019864      0.00004875      0.01082912      0.00333070  ~
  --------------------------------------------------------------------------------------------------------------- ~

	Writing optimization data to binary file.
	Final energy is   -554.0976174772943
	Final (previous) structure:
	Cartesian Geometry (in Angstrom)
	    C    -1.2524918279   0.8194580503  -0.5528174168
	    C    -0.3022604752   0.0578258585   1.5257593508
	    C    -2.3308085673   1.3444289266   0.1290449760
	    C    -1.3685278481   0.6069250214   2.2131407934
	    C     1.6692248452   0.2808460830  -1.4705765029
	    C     1.2038566387  -1.7829424261  -0.3542356028
	    C     2.7226675081  -0.3224249934  -2.1141514245
	    C     2.2669992291  -2.3571140867  -1.0086216561
	    C    -0.2152293323   0.1909634496   0.1401757557
	    C     0.8642328421  -0.4472326609  -0.5891559513
	    C    -2.3883451312   1.2509321198   1.5171975435
	    N     2.9865746256  -1.6158483799  -1.8664732699
	    O    -3.4620492831   1.7984879505   2.1166529929
	    H    -1.2212565252   0.8840837601  -1.6309439622
	    H     0.4839930717  -0.4407984295   2.0740983106
	    H    -3.1437294322   1.8231246639  -0.3937773770
	    H    -1.4112435372   0.5328244836   3.2902063832
	    H     1.4718276281   1.3256201427  -1.6502833393
	    H     0.6206070788  -2.3812667174   0.3272245837
	    H     3.3768995675   0.1855576741  -2.8029387094
	    H     2.5658156032  -3.3844941082  -0.8828440813
	    H     3.7669604037  -2.0498710853  -2.3432850905
	    H    -3.4119724236   1.6797034648   3.0714682700
	Saving final (previous) structure.
			--------------------------
			 OPTKING Finished Execution 
			--------------------------

    Final optimized geometry and variables:
    Molecular point group: c1
    Full point group: C1

    Geometry (in Angstrom), charge = 1, multiplicity = 1:

    C           -1.252491827899     0.819458050316    -0.552817416845
    C           -0.302260475209     0.057825858460     1.525759350778
    C           -2.330808567291     1.344428926614     0.129044975997
    C           -1.368527848120     0.606925021419     2.213140793361
    C            1.669224845229     0.280846083000    -1.470576502925
    C            1.203856638742    -1.782942426119    -0.354235602799
    C            2.722667508108    -0.322424993429    -2.114151424463
    C            2.266999229137    -2.357114086665    -1.008621656056
    C           -0.215229332301     0.190963449606     0.140175755742
    C            0.864232842147    -0.447232660921    -0.589155951254
    C           -2.388345131212     1.250932119815     1.517197543527
    N            2.986574625569    -1.615848379894    -1.866473269937
    O           -3.462049283076     1.798487950502     2.116652992896
    H           -1.221256525220     0.884083760143    -1.630943962208
    H            0.483993071693    -0.440798429457     2.074098310623
    H           -3.143729432172     1.823124663855    -0.393777377050
    H           -1.411243537159     0.532824483601     3.290206383197
    H            1.471827628098     1.325620142674    -1.650283339275
    H            0.620607078777    -2.381266717421     0.327224583672
    H            3.376899567462     0.185557674116    -2.802938709418
    H            2.565815603197    -3.384494108164    -0.882844081338
    H            3.766960403708    -2.049871085313    -2.343285090526
    H           -3.411972423566     1.679703464824     3.071468269980

	Cleaning optimization helper files.

*** Psi4 exiting successfully. Buy a developer a beer!
