
    -----------------------------------------------------------------------
          Psi4: An Open-Source Ab Initio Electronic Structure Package
                               Psi4 1.1 release

                         Git: Rev {HEAD} add49b9 


    R. M. Parrish, L. A. Burns, D. G. A. Smith, A. C. Simmonett,
    A. E. DePrince III, E. G. Hohenstein, U. Bozkaya, A. Yu. Sokolov,
    R. Di Remigio, R. M. Richard, J. F. Gonthier, A. M. James,
    H. R. McAlexander, A. Kumar, M. Saitow, X. Wang, B. P. Pritchard,
    P. Verma, H. F. Schaefer III, K. Patkowski, R. A. King, E. F. Valeev,
    F. A. Evangelista, J. M. Turney, T. D. Crawford, and C. D. Sherrill,
    J. Chem. Theory Comput. in press (2017).
    (doi: 10.1021/acs.jctc.7b00174)

    -----------------------------------------------------------------------


    Psi4 started on: Sunday, 12 November 2017 09:31AM

    Process ID:  22408
    PSIDATADIR: /cbio/jclab/home/chayas/anaconda/envs/py35/share/psi4
    Memory:     500.0 MiB
    Threads:    8
    
  ==> Input File <==

--------------------------------------------------------------------------

memory 5 Gb

molecule phepyrOH_cation {
  symmetry C1
  1 1 
  C      1.885   -1.036   -0.112
  C      2.878   -1.652   2.002
  C      0.807   -0.463   0.561
  C      1.800   -1.079   2.676
  C      4.440   -1.719   -1.322
  C      4.716   -3.305   0.469
  C      5.516   -2.309   -1.970
  C      5.786   -3.855   -0.224
  C      2.921   -1.631   0.608
  C      4.040   -2.225   -0.090
  C      0.764   -0.484   1.955
  N      6.150   -3.348   -1.409
  O      -0.288   0.076   2.612
  H      1.904   -1.012   -1.199
  H      3.678   -2.112   2.578
  H      0.003   -0.001   -0.006
  H      1.772   -1.098   3.762
  H      3.931   -0.877   -1.782
  H      4.425   -3.721   1.429
  H      5.897   -1.982   -2.928
  H      6.368   -4.693   0.134
  H      6.938   -3.767   -1.902
  H      -1.092   0.017   2.071
  units Angstrom
}

dih_string = "3 11 13 23 30"
set optking fixed_dihedral = $dih_string

optimize('MP2/aug-cc-PVTZ')
--------------------------------------------------------------------------

  Memory set to   4.657 GiB by Python driver.
gradient() will perform analytic gradient computation.

*** tstart() called on gpu-1-6.local
*** at Sun Nov 12 09:31:26 2017

    SCF Algorithm Type (re)set to DF.

*** tstart() called on gpu-1-6.local
*** at Sun Nov 12 09:31:26 2017

   => Loading Basis Set <=

    Name: AUG-CC-PVTZ
    Role: ORBITAL
    Keyword: BASIS
    atoms 1-11  entry C          line   221 file /cbio/jclab/home/chayas/anaconda/envs/py35/share/psi4/basis/aug-cc-pvtz.gbs 
    atoms 12    entry N          line   267 file /cbio/jclab/home/chayas/anaconda/envs/py35/share/psi4/basis/aug-cc-pvtz.gbs 
    atoms 13    entry O          line   313 file /cbio/jclab/home/chayas/anaconda/envs/py35/share/psi4/basis/aug-cc-pvtz.gbs 
    atoms 14-23 entry H          line    34 file /cbio/jclab/home/chayas/anaconda/envs/py35/share/psi4/basis/aug-cc-pvtz.gbs 


         ---------------------------------------------------------
                                   SCF
            by Justin Turney, Rob Parrish, and Andy Simmonett
                              RHF Reference
                        8 Threads,   4768 MiB Core
         ---------------------------------------------------------

  ==> Geometry <==

    Molecular point group: c1
    Full point group: C1

    Geometry (in Angstrom), charge = 1, multiplicity = 1:

       Center              X                  Y                   Z               Mass       
    ------------   -----------------  -----------------  -----------------  -----------------
           C         -1.266144207521     0.719961663717    -0.570275150545    12.000000000000
           C         -0.273144207521     0.103961663717     1.543724849455    12.000000000000
           C         -2.344144207521     1.292961663717     0.102724849455    12.000000000000
           C         -1.351144207521     0.676961663717     2.217724849455    12.000000000000
           C          1.288855792479     0.036961663717    -1.780275150545    12.000000000000
           C          1.564855792479    -1.549038336283     0.010724849455    12.000000000000
           C          2.364855792479    -0.553038336283    -2.428275150545    12.000000000000
           C          2.634855792479    -2.099038336283    -0.682275150545    12.000000000000
           C         -0.230144207521     0.124961663717     0.149724849455    12.000000000000
           C          0.888855792479    -0.469038336283    -0.548275150545    12.000000000000
           C         -2.387144207521     1.271961663717     1.496724849455    12.000000000000
           N          2.998855792479    -1.592038336283    -1.867275150545    14.003074004780
           O         -3.439144207521     1.831961663717     2.153724849455    15.994914619560
           H         -1.247144207521     0.743961663717    -1.657275150545     1.007825032070
           H          0.526855792479    -0.356038336283     2.119724849455     1.007825032070
           H         -3.148144207521     1.754961663717    -0.464275150545     1.007825032070
           H         -1.379144207521     0.657961663717     3.303724849455     1.007825032070
           H          0.779855792479     0.878961663717    -2.240275150545     1.007825032070
           H          1.273855792479    -1.965038336283     0.970724849455     1.007825032070
           H          2.745855792479    -0.226038336283    -3.386275150545     1.007825032070
           H          3.216855792479    -2.937038336283    -0.324275150545     1.007825032070
           H          3.786855792479    -2.011038336283    -2.360275150545     1.007825032070
           H         -4.243144207521     1.772961663717     1.612724849455     1.007825032070

  Running in c1 symmetry.

  Rotational constants: A =      0.09612  B =      0.01335  C =      0.01192 [cm^-1]
  Rotational constants: A =   2881.70486  B =    400.31314  C =    357.50036 [MHz]
  Nuclear repulsion =  713.221078987746523

  Charge       = 1
  Multiplicity = 1
  Electrons    = 90
  Nalpha       = 45
  Nbeta        = 45

  ==> Algorithm <==

  SCF Algorithm Type is DF.
  DIIS enabled.
  MOM disabled.
  Fractional occupation disabled.
  Guess Type is SAD.
  Energy threshold   = 1.00e-10
  Density threshold  = 1.00e-10
  Integral threshold = 0.00e+00

  ==> Primary Basis <==

  Basis Set: AUG-CC-PVTZ
    Blend: AUG-CC-PVTZ
    Number of shells: 272
    Number of basis function: 828
    Number of Cartesian functions: 965
    Spherical Harmonics?: true
    Max angular momentum: 3

   => Loading Basis Set <=

    Name: (AUG-CC-PVTZ AUX)
    Role: JKFIT
    Keyword: DF_BASIS_SCF
    atoms 1-11  entry C          line   161 file /cbio/jclab/home/chayas/anaconda/envs/py35/share/psi4/basis/aug-cc-pvtz-jkfit.gbs 
    atoms 12    entry N          line   223 file /cbio/jclab/home/chayas/anaconda/envs/py35/share/psi4/basis/aug-cc-pvtz-jkfit.gbs 
    atoms 13    entry O          line   285 file /cbio/jclab/home/chayas/anaconda/envs/py35/share/psi4/basis/aug-cc-pvtz-jkfit.gbs 
    atoms 14-23 entry H          line    69 file /cbio/jclab/home/chayas/anaconda/envs/py35/share/psi4/basis/aug-cc-pvtz-jkfit.gbs 

  ==> Pre-Iterations <==

   -------------------------------------------------------
    Irrep   Nso     Nmo     Nalpha   Nbeta   Ndocc  Nsocc
   -------------------------------------------------------
     A        828     828       0       0       0       0
   -------------------------------------------------------
    Total     828     828      45      45      45       0
   -------------------------------------------------------

  ==> Integral Setup <==

  ==> DFJK: Density-Fitted J/K Matrices <==

    J tasked:                  Yes
    K tasked:                  Yes
    wK tasked:                  No
    OpenMP threads:              8
    Integrals threads:           8
    Memory (MB):              3576
    Algorithm:                Disk
    Integral Cache:           NONE
    Schwarz Cutoff:          1E-12
    Fitting Condition:       1E-12

   => Auxiliary Basis Set <=

  Basis Set: (AUG-CC-PVTZ AUX)
    Blend: AUG-CC-PVTZ-JKFIT
    Number of shells: 530
    Number of basis function: 1812
    Number of Cartesian functions: 2253
    Spherical Harmonics?: true
    Max angular momentum: 4

  Minimum eigenvalue in the overlap matrix is 5.9210066768E-07.
  Using Symmetric Orthogonalization.

  SCF Guess: Superposition of Atomic Densities via on-the-fly atomic UHF.

  ==> Iterations <==

                           Total Energy        Delta E     RMS |[F,P]|

   @DF-RHF iter   0:  -553.26786960794050   -5.53268e+02   1.48093e-02 
   @DF-RHF iter   1:  -551.24443061372824    2.02344e+00   1.61941e-03 
   @DF-RHF iter   2:  -551.59281307292440   -3.48382e-01   7.39996e-04 DIIS
   @DF-RHF iter   3:  -551.65677789569838   -6.39648e-02   4.79880e-04 DIIS
   @DF-RHF iter   4:  -551.67203332791576   -1.52554e-02   1.72454e-04 DIIS
   @DF-RHF iter   5:  -551.67412192040274   -2.08859e-03   4.56274e-05 DIIS
   @DF-RHF iter   6:  -551.67447276924111   -3.50849e-04   1.84690e-05 DIIS
   @DF-RHF iter   7:  -551.67454286657107   -7.00973e-05   6.24125e-06 DIIS
   @DF-RHF iter   8:  -551.67455485536573   -1.19888e-05   3.16224e-06 DIIS
   @DF-RHF iter   9:  -551.67455841584047   -3.56047e-06   1.35608e-06 DIIS
   @DF-RHF iter  10:  -551.67455937218574   -9.56345e-07   4.49303e-07 DIIS
   @DF-RHF iter  11:  -551.67455950456269   -1.32377e-07   2.31876e-07 DIIS
   @DF-RHF iter  12:  -551.67455951596401   -1.14013e-08   8.43878e-08 DIIS
   @DF-RHF iter  13:  -551.67455951733348   -1.36947e-09   4.07788e-08 DIIS
   @DF-RHF iter  14:  -551.67455951765453   -3.21052e-10   1.01483e-08 DIIS
   @DF-RHF iter  15:  -551.67455951771399   -5.94582e-11   7.13705e-09 DIIS
   @DF-RHF iter  16:  -551.67455951773638   -2.23963e-11   3.10996e-09 DIIS
   @DF-RHF iter  17:  -551.67455951773604    3.41061e-13   1.11550e-09 DIIS
   @DF-RHF iter  18:  -551.67455951772968    6.36646e-12   4.58064e-10 DIIS
   @DF-RHF iter  19:  -551.67455951772899    6.82121e-13   1.71117e-10 DIIS
   @DF-RHF iter  20:  -551.67455951772297    6.02540e-12   7.70961e-11 DIIS

  ==> Post-Iterations <==

    Orbital Energies (a.u.)
    -----------------------

    Doubly Occupied:                                                      

       1A    -20.699507     2A    -15.833194     3A    -11.484042  
       4A    -11.483959     5A    -11.445791     6A    -11.432026  
       7A    -11.414363     8A    -11.414331     9A    -11.379498  
      10A    -11.378244    11A    -11.372385    12A    -11.357142  
      13A    -11.354468    14A     -1.515503    15A     -1.511119  
      16A     -1.321107    17A     -1.263934    18A     -1.236942  
      19A     -1.154478    20A     -1.151155    21A     -1.068394  
      22A     -1.054165    23A     -0.974448    24A     -0.962030  
      25A     -0.950069    26A     -0.869891    27A     -0.859125  
      28A     -0.853826    29A     -0.821641    30A     -0.798496  
      31A     -0.781046    32A     -0.772683    33A     -0.756554  
      34A     -0.736494    35A     -0.722440    36A     -0.706728  
      37A     -0.705994    38A     -0.675048    39A     -0.653545  
      40A     -0.634242    41A     -0.616076    42A     -0.571489  
      43A     -0.537330    44A     -0.469433    45A     -0.439917  

    Virtual:                                                              

      46A     -0.105532    47A     -0.084598    48A     -0.063839  
      49A     -0.062874    50A     -0.059514    51A     -0.049415  
      52A     -0.043017    53A     -0.040240    54A     -0.035116  
      55A     -0.029104    56A     -0.025798    57A     -0.022706  
      58A     -0.017858    59A     -0.011360    60A     -0.006073  
      61A     -0.003974    62A      0.004872    63A      0.005925  
      64A      0.008934    65A      0.014279    66A      0.017585  
      67A      0.020714    68A      0.023890    69A      0.025769  
      70A      0.028746    71A      0.032376    72A      0.036770  
      73A      0.038792    74A      0.039870    75A      0.044934  
      76A      0.050519    77A      0.052925    78A      0.057734  
      79A      0.061063    80A      0.065934    81A      0.069050  
      82A      0.072609    83A      0.073097    84A      0.078058  
      85A      0.083247    86A      0.086423    87A      0.089144  
      88A      0.094294    89A      0.097503    90A      0.108350  
      91A      0.110820    92A      0.114618    93A      0.118960  
      94A      0.122501    95A      0.124895    96A      0.129910  
      97A      0.131451    98A      0.137041    99A      0.139482  
     100A      0.144826   101A      0.154877   102A      0.157651  
     103A      0.162265   104A      0.165418   105A      0.166211  
     106A      0.168151   107A      0.169896   108A      0.173574  
     109A      0.179737   110A      0.181570   111A      0.188484  
     112A      0.188909   113A      0.191491   114A      0.196470  
     115A      0.201663   116A      0.206941   117A      0.208868  
     118A      0.213344   119A      0.215636   120A      0.223398  
     121A      0.226301   122A      0.229412   123A      0.231001  
     124A      0.232199   125A      0.232977   126A      0.239062  
     127A      0.240557   128A      0.246900   129A      0.251695  
     130A      0.255029   131A      0.259646   132A      0.267776  
     133A      0.276522   134A      0.278987   135A      0.279803  
     136A      0.287132   137A      0.288498   138A      0.292543  
     139A      0.301297   140A      0.307371   141A      0.308290  
     142A      0.312073   143A      0.315356   144A      0.321505  
     145A      0.324089   146A      0.326008   147A      0.327135  
     148A      0.333911   149A      0.335378   150A      0.338526  
     151A      0.343477   152A      0.346011   153A      0.348689  
     154A      0.353813   155A      0.354158   156A      0.359805  
     157A      0.363971   158A      0.367992   159A      0.370398  
     160A      0.374718   161A      0.376382   162A      0.378004  
     163A      0.384038   164A      0.387406   165A      0.393462  
     166A      0.395516   167A      0.398692   168A      0.403061  
     169A      0.405167   170A      0.407230   171A      0.409825  
     172A      0.414568   173A      0.415882   174A      0.419961  
     175A      0.421485   176A      0.426234   177A      0.430249  
     178A      0.435187   179A      0.438066   180A      0.442750  
     181A      0.452790   182A      0.454651   183A      0.457300  
     184A      0.467537   185A      0.472288   186A      0.474930  
     187A      0.482813   188A      0.486895   189A      0.493078  
     190A      0.498358   191A      0.505517   192A      0.510763  
     193A      0.519710   194A      0.526567   195A      0.532423  
     196A      0.534386   197A      0.539814   198A      0.545964  
     199A      0.550520   200A      0.560012   201A      0.567789  
     202A      0.570994   203A      0.577901   204A      0.578193  
     205A      0.583385   206A      0.588121   207A      0.593304  
     208A      0.599438   209A      0.605810   210A      0.608316  
     211A      0.619940   212A      0.623868   213A      0.626948  
     214A      0.630940   215A      0.635152   216A      0.640126  
     217A      0.643577   218A      0.647318   219A      0.656101  
     220A      0.659361   221A      0.669453   222A      0.673375  
     223A      0.679122   224A      0.690506   225A      0.700470  
     226A      0.703584   227A      0.709574   228A      0.711603  
     229A      0.718306   230A      0.720739   231A      0.722812  
     232A      0.732657   233A      0.734448   234A      0.740043  
     235A      0.743892   236A      0.752082   237A      0.755801  
     238A      0.757606   239A      0.766019   240A      0.766995  
     241A      0.774137   242A      0.780750   243A      0.782501  
     244A      0.789770   245A      0.792638   246A      0.796336  
     247A      0.799903   248A      0.807108   249A      0.810174  
     250A      0.815128   251A      0.819952   252A      0.826431  
     253A      0.826658   254A      0.833366   255A      0.839406  
     256A      0.845612   257A      0.848977   258A      0.854093  
     259A      0.856622   260A      0.860607   261A      0.864970  
     262A      0.869941   263A      0.876754   264A      0.877362  
     265A      0.880163   266A      0.883077   267A      0.884583  
     268A      0.892588   269A      0.902349   270A      0.907395  
     271A      0.910860   272A      0.917679   273A      0.921406  
     274A      0.926623   275A      0.929772   276A      0.931738  
     277A      0.932159   278A      0.938292   279A      0.945934  
     280A      0.952757   281A      0.956739   282A      0.961460  
     283A      0.964439   284A      0.967879   285A      0.972347  
     286A      0.982008   287A      0.985234   288A      0.987098  
     289A      0.987509   290A      0.994310   291A      0.998858  
     292A      1.000774   293A      1.004818   294A      1.007866  
     295A      1.011830   296A      1.017091   297A      1.019282  
     298A      1.026183   299A      1.033114   300A      1.034035  
     301A      1.044750   302A      1.048782   303A      1.053895  
     304A      1.062545   305A      1.063692   306A      1.067394  
     307A      1.069968   308A      1.073096   309A      1.080181  
     310A      1.084604   311A      1.090844   312A      1.094589  
     313A      1.097840   314A      1.104282   315A      1.108931  
     316A      1.118683   317A      1.122560   318A      1.124148  
     319A      1.126377   320A      1.131482   321A      1.138948  
     322A      1.152366   323A      1.155905   324A      1.158675  
     325A      1.162741   326A      1.168872   327A      1.179272  
     328A      1.180786   329A      1.186283   330A      1.197402  
     331A      1.211888   332A      1.214266   333A      1.221010  
     334A      1.229436   335A      1.232140   336A      1.236438  
     337A      1.241731   338A      1.248046   339A      1.255670  
     340A      1.266819   341A      1.275236   342A      1.277218  
     343A      1.287840   344A      1.289648   345A      1.296639  
     346A      1.301696   347A      1.306891   348A      1.313219  
     349A      1.319087   350A      1.328471   351A      1.339133  
     352A      1.341330   353A      1.354666   354A      1.363802  
     355A      1.367422   356A      1.377790   357A      1.378911  
     358A      1.386080   359A      1.395371   360A      1.401847  
     361A      1.406810   362A      1.408496   363A      1.417316  
     364A      1.419279   365A      1.425702   366A      1.444376  
     367A      1.449088   368A      1.456421   369A      1.460716  
     370A      1.474209   371A      1.479964   372A      1.485443  
     373A      1.491577   374A      1.510120   375A      1.512363  
     376A      1.524476   377A      1.529775   378A      1.536413  
     379A      1.540257   380A      1.545662   381A      1.557592  
     382A      1.562320   383A      1.569365   384A      1.583244  
     385A      1.584192   386A      1.589630   387A      1.603539  
     388A      1.607267   389A      1.620052   390A      1.633730  
     391A      1.637892   392A      1.649011   393A      1.656448  
     394A      1.665317   395A      1.672188   396A      1.674600  
     397A      1.680998   398A      1.699648   399A      1.703793  
     400A      1.707415   401A      1.713736   402A      1.717424  
     403A      1.723051   404A      1.731267   405A      1.733056  
     406A      1.743717   407A      1.754493   408A      1.761069  
     409A      1.767337   410A      1.777408   411A      1.786838  
     412A      1.791951   413A      1.803679   414A      1.812120  
     415A      1.827195   416A      1.832160   417A      1.835981  
     418A      1.843762   419A      1.847436   420A      1.861059  
     421A      1.865283   422A      1.873120   423A      1.879934  
     424A      1.888867   425A      1.892220   426A      1.905188  
     427A      1.907102   428A      1.915928   429A      1.921450  
     430A      1.927676   431A      1.929083   432A      1.940920  
     433A      1.949089   434A      1.953235   435A      1.956253  
     436A      1.968805   437A      1.971071   438A      1.983117  
     439A      1.987509   440A      2.000412   441A      2.002918  
     442A      2.011393   443A      2.017500   444A      2.025702  
     445A      2.032295   446A      2.046005   447A      2.051594  
     448A      2.061409   449A      2.067673   450A      2.082209  
     451A      2.084969   452A      2.096503   453A      2.099739  
     454A      2.120855   455A      2.137140   456A      2.138547  
     457A      2.151047   458A      2.156963   459A      2.188301  
     460A      2.197124   461A      2.203289   462A      2.205091  
     463A      2.210957   464A      2.219591   465A      2.229297  
     466A      2.236365   467A      2.252513   468A      2.255197  
     469A      2.260771   470A      2.279780   471A      2.284841  
     472A      2.289173   473A      2.293930   474A      2.308335  
     475A      2.323372   476A      2.333307   477A      2.345160  
     478A      2.355829   479A      2.366693   480A      2.371232  
     481A      2.389403   482A      2.395421   483A      2.404437  
     484A      2.407874   485A      2.419738   486A      2.424048  
     487A      2.433914   488A      2.440369   489A      2.458667  
     490A      2.475356   491A      2.501683   492A      2.509831  
     493A      2.518234   494A      2.530187   495A      2.549293  
     496A      2.561887   497A      2.563823   498A      2.571230  
     499A      2.594281   500A      2.609820   501A      2.627692  
     502A      2.639446   503A      2.648339   504A      2.656699  
     505A      2.679452   506A      2.708872   507A      2.718763  
     508A      2.735167   509A      2.744593   510A      2.751820  
     511A      2.763707   512A      2.787942   513A      2.814909  
     514A      2.844123   515A      2.857366   516A      2.878999  
     517A      2.920708   518A      2.937070   519A      2.941497  
     520A      2.957629   521A      2.963081   522A      2.981285  
     523A      2.995950   524A      3.007978   525A      3.035897  
     526A      3.058026   527A      3.067501   528A      3.080393  
     529A      3.082774   530A      3.103697   531A      3.140767  
     532A      3.152931   533A      3.169185   534A      3.190555  
     535A      3.194837   536A      3.195551   537A      3.210349  
     538A      3.221731   539A      3.226008   540A      3.236576  
     541A      3.242998   542A      3.255498   543A      3.262278  
     544A      3.274195   545A      3.280421   546A      3.285895  
     547A      3.293587   548A      3.314791   549A      3.332123  
     550A      3.342549   551A      3.354963   552A      3.363385  
     553A      3.372015   554A      3.383535   555A      3.387644  
     556A      3.396548   557A      3.397235   558A      3.407748  
     559A      3.415537   560A      3.416554   561A      3.419481  
     562A      3.432201   563A      3.444835   564A      3.447447  
     565A      3.461218   566A      3.470075   567A      3.477716  
     568A      3.491129   569A      3.504239   570A      3.512689  
     571A      3.520487   572A      3.535527   573A      3.548325  
     574A      3.551628   575A      3.563861   576A      3.566104  
     577A      3.574041   578A      3.598144   579A      3.600757  
     580A      3.614875   581A      3.624103   582A      3.629318  
     583A      3.632904   584A      3.653981   585A      3.655477  
     586A      3.661314   587A      3.663591   588A      3.686289  
     589A      3.697517   590A      3.707484   591A      3.712823  
     592A      3.723358   593A      3.732122   594A      3.737110  
     595A      3.750329   596A      3.755232   597A      3.760690  
     598A      3.767192   599A      3.781725   600A      3.784618  
     601A      3.793309   602A      3.794123   603A      3.822127  
     604A      3.831021   605A      3.835073   606A      3.841627  
     607A      3.852634   608A      3.864788   609A      3.865063  
     610A      3.871545   611A      3.875510   612A      3.879966  
     613A      3.889535   614A      3.895459   615A      3.904788  
     616A      3.908694   617A      3.937165   618A      3.944117  
     619A      3.947783   620A      3.955324   621A      3.969977  
     622A      3.984505   623A      3.991571   624A      4.002857  
     625A      4.019170   626A      4.026609   627A      4.038513  
     628A      4.044681   629A      4.056393   630A      4.059615  
     631A      4.063987   632A      4.079859   633A      4.087276  
     634A      4.090298   635A      4.105191   636A      4.108031  
     637A      4.114273   638A      4.120545   639A      4.135665  
     640A      4.137845   641A      4.147898   642A      4.161543  
     643A      4.173137   644A      4.185130   645A      4.189356  
     646A      4.196774   647A      4.202282   648A      4.213888  
     649A      4.224372   650A      4.228369   651A      4.232784  
     652A      4.237798   653A      4.247140   654A      4.256572  
     655A      4.269132   656A      4.275513   657A      4.282716  
     658A      4.295560   659A      4.300554   660A      4.304339  
     661A      4.321560   662A      4.327526   663A      4.339052  
     664A      4.343995   665A      4.360820   666A      4.366674  
     667A      4.370049   668A      4.372579   669A      4.386294  
     670A      4.398000   671A      4.403137   672A      4.416537  
     673A      4.430403   674A      4.450984   675A      4.453246  
     676A      4.457945   677A      4.474091   678A      4.495362  
     679A      4.502911   680A      4.515567   681A      4.543185  
     682A      4.556482   683A      4.567467   684A      4.583067  
     685A      4.588363   686A      4.606067   687A      4.615396  
     688A      4.636532   689A      4.648660   690A      4.651499  
     691A      4.659521   692A      4.667373   693A      4.682462  
     694A      4.697657   695A      4.726524   696A      4.735173  
     697A      4.749961   698A      4.751110   699A      4.758294  
     700A      4.767620   701A      4.783630   702A      4.793537  
     703A      4.812540   704A      4.828796   705A      4.833292  
     706A      4.835258   707A      4.846997   708A      4.872955  
     709A      4.878618   710A      4.896520   711A      4.905437  
     712A      4.917017   713A      4.935744   714A      4.939936  
     715A      4.948408   716A      4.961905   717A      4.968698  
     718A      4.978911   719A      4.994579   720A      4.999490  
     721A      5.009804   722A      5.010944   723A      5.020651  
     724A      5.034211   725A      5.043030   726A      5.058965  
     727A      5.087636   728A      5.096544   729A      5.111043  
     730A      5.139562   731A      5.151779   732A      5.152901  
     733A      5.178915   734A      5.188751   735A      5.201691  
     736A      5.209246   737A      5.214833   738A      5.241930  
     739A      5.266356   740A      5.277104   741A      5.284207  
     742A      5.300365   743A      5.310289   744A      5.347622  
     745A      5.350157   746A      5.365863   747A      5.383862  
     748A      5.390957   749A      5.420872   750A      5.442303  
     751A      5.447737   752A      5.449503   753A      5.511550  
     754A      5.525530   755A      5.532580   756A      5.553776  
     757A      5.572993   758A      5.592430   759A      5.613604  
     760A      5.616778   761A      5.625219   762A      5.669424  
     763A      5.693794   764A      5.700163   765A      5.711588  
     766A      5.734787   767A      5.779695   768A      5.812719  
     769A      5.842867   770A      5.861295   771A      5.937733  
     772A      5.940722   773A      5.987801   774A      5.994721  
     775A      6.023503   776A      6.046706   777A      6.095105  
     778A      6.125406   779A      6.176851   780A      6.191413  
     781A      6.241938   782A      6.287024   783A      6.302068  
     784A      6.347162   785A      6.369845   786A      6.395410  
     787A      6.415233   788A      6.481958   789A      6.487856  
     790A      6.548809   791A      6.577917   792A      6.606833  
     793A      6.671949   794A      6.752005   795A      6.779827  
     796A      6.796033   797A      6.817179   798A      6.835195  
     799A      6.845167   800A      6.857562   801A      6.968815  
     802A      6.980325   803A      7.011433   804A      7.134642  
     805A      7.193436   806A      7.301804   807A      7.405573  
     808A      7.466131   809A      7.545033   810A      7.563893  
     811A      7.587541   812A      7.676607   813A      7.838918  
     814A      8.243018   815A      8.492236   816A     16.004131  
     817A     16.269036   818A     16.594206   819A     16.665281  
     820A     16.960123   821A     18.791227   822A     19.091043  
     823A     19.382624   824A     19.751674   825A     19.972630  
     826A     20.006294   827A     20.543732   828A     21.756688  

    Final Occupation by Irrep:
              A 
    DOCC [    45 ]

  Energy converged.

  @DF-RHF Final Energy:  -551.67455951772297

   => Energetics <=

    Nuclear Repulsion Energy =            713.2210789877465231
    One-Electron Energy =               -2149.4026936984455460
    Two-Electron Energy =                 884.5070551929760541
    DFT Exchange-Correlation Energy =       0.0000000000000000
    Empirical Dispersion Energy =           0.0000000000000000
    PCM Polarization Energy =               0.0000000000000000
    EFP Energy =                            0.0000000000000000
    Total Energy =                       -551.6745595177229688



Properties will be evaluated at   0.000000,   0.000000,   0.000000 Bohr

Properties computed using the SCF density matrix

  Nuclear Dipole Moment: (a.u.)
     X:     2.1427      Y:    -1.5675      Z:    -2.2583

  Electronic Dipole Moment: (a.u.)
     X:     0.5880      Y:    -0.1914      Z:    -0.0672

  Dipole Moment: (a.u.)
     X:     2.7307      Y:    -1.7589      Z:    -2.3255     Total:     3.9948

  Dipole Moment: (Debye)
     X:     6.9408      Y:    -4.4707      Z:    -5.9108     Total:    10.1537


*** tstop() called on gpu-1-6.local at Sun Nov 12 09:39:45 2017
Module time:
	user time   =    1129.20 seconds =      18.82 minutes
	system time =      51.75 seconds =       0.86 minutes
	total time  =        499 seconds =       8.32 minutes
Total time:
	user time   =    1129.21 seconds =      18.82 minutes
	system time =      51.75 seconds =       0.86 minutes
	total time  =        499 seconds =       8.32 minutes

  //>>>>>>>>>>>>>>>>>>>>>>>>>>>>>>>>>>>//
  //               DFMP2               //
  //<<<<<<<<<<<<<<<<<<<<<<<<<<<<<<<<<<<//

   => Loading Basis Set <=

    Name: (AUG-CC-PVTZ AUX)
    Role: RIFIT
    Keyword: DF_BASIS_MP2
    atoms 1-11  entry C          line   147 file /cbio/jclab/home/chayas/anaconda/envs/py35/share/psi4/basis/aug-cc-pvtz-ri.gbs 
    atoms 12    entry N          line   205 file /cbio/jclab/home/chayas/anaconda/envs/py35/share/psi4/basis/aug-cc-pvtz-ri.gbs 
    atoms 13    entry O          line   263 file /cbio/jclab/home/chayas/anaconda/envs/py35/share/psi4/basis/aug-cc-pvtz-ri.gbs 
    atoms 14-23 entry H          line    29 file /cbio/jclab/home/chayas/anaconda/envs/py35/share/psi4/basis/aug-cc-pvtz-ri.gbs 

	 --------------------------------------------------------
	                          DF-MP2                         
	      2nd-Order Density-Fitted Moller-Plesset Theory     
	              RMP2 Wavefunction,   8 Threads             
	                                                         
	        Rob Parrish, Justin Turney, Andy Simmonett,      
	           Ed Hohenstein, and C. David Sherrill          
	 --------------------------------------------------------

   => Auxiliary Basis Set <=

  Basis Set: (AUG-CC-PVTZ AUX)
    Blend: AUG-CC-PVTZ-RI
    Number of shells: 504
    Number of basis function: 1838
    Number of Cartesian functions: 2318
    Spherical Harmonics?: true
    Max angular momentum: 4

	 --------------------------------------------------------
	                 NBF =   828, NAUX =  1838
	 --------------------------------------------------------
	   CLASS    FOCC     OCC    AOCC    AVIR     VIR    FVIR
	   PAIRS       0      45      45     783     783       0
	 --------------------------------------------------------


         ------------------------------------------------------------
                                     CPHF                           
                                  Rob Parrish                       
         ------------------------------------------------------------

  ==> Geometry <==

    Molecular point group: c1
    Full point group: C1

    Geometry (in Angstrom), charge = 1, multiplicity = 1:

       Center              X                  Y                   Z               Mass       
    ------------   -----------------  -----------------  -----------------  -----------------
           C         -1.266144207521     0.719961663717    -0.570275150545    12.000000000000
           C         -0.273144207521     0.103961663717     1.543724849455    12.000000000000
           C         -2.344144207521     1.292961663717     0.102724849455    12.000000000000
           C         -1.351144207521     0.676961663717     2.217724849455    12.000000000000
           C          1.288855792479     0.036961663717    -1.780275150545    12.000000000000
           C          1.564855792479    -1.549038336283     0.010724849455    12.000000000000
           C          2.364855792479    -0.553038336283    -2.428275150545    12.000000000000
           C          2.634855792479    -2.099038336283    -0.682275150545    12.000000000000
           C         -0.230144207521     0.124961663717     0.149724849455    12.000000000000
           C          0.888855792479    -0.469038336283    -0.548275150545    12.000000000000
           C         -2.387144207521     1.271961663717     1.496724849455    12.000000000000
           N          2.998855792479    -1.592038336283    -1.867275150545    14.003074004780
           O         -3.439144207521     1.831961663717     2.153724849455    15.994914619560
           H         -1.247144207521     0.743961663717    -1.657275150545     1.007825032070
           H          0.526855792479    -0.356038336283     2.119724849455     1.007825032070
           H         -3.148144207521     1.754961663717    -0.464275150545     1.007825032070
           H         -1.379144207521     0.657961663717     3.303724849455     1.007825032070
           H          0.779855792479     0.878961663717    -2.240275150545     1.007825032070
           H          1.273855792479    -1.965038336283     0.970724849455     1.007825032070
           H          2.745855792479    -0.226038336283    -3.386275150545     1.007825032070
           H          3.216855792479    -2.937038336283    -0.324275150545     1.007825032070
           H          3.786855792479    -2.011038336283    -2.360275150545     1.007825032070
           H         -4.243144207521     1.772961663717     1.612724849455     1.007825032070

  Nuclear repulsion =  713.221078987746523
  Reference energy  = -551.674559517722969

  ==> Basis Set <==

  Basis Set: AUG-CC-PVTZ
    Blend: AUG-CC-PVTZ
    Number of shells: 272
    Number of basis function: 828
    Number of Cartesian functions: 965
    Spherical Harmonics?: true
    Max angular momentum: 3

  ==> CGRSolver (by Rob Parrish) <==

   Number of roots    =         1
   Preconditioning    =    JACOBI
   Convergence cutoff =     1E-06
   Maximum iterations =       100

  ==> CPHFRHamiltonian (by Rob Parrish) <== 

  ==> DFJK: Density-Fitted J/K Matrices <==

    J tasked:                  Yes
    K tasked:                  Yes
    wK tasked:                  No
    OpenMP threads:              8
    Integrals threads:           8
    Memory (MB):              3576
    Algorithm:                Disk
    Integral Cache:           NONE
    Schwarz Cutoff:          1E-12
    Fitting Condition:       1E-12

   => Auxiliary Basis Set <=

  Basis Set: (AUG-CC-PVTZ AUX)
    Blend: AUG-CC-PVTZ-JKFIT
    Number of shells: 530
    Number of basis function: 1812
    Number of Cartesian functions: 2253
    Spherical Harmonics?: true
    Max angular momentum: 4

  ==> CPHF Iterations <==

  => Iterations <=

             Iter  Converged  Remaining    Residual
  CGR           1          0          1   1.104E-01
  CGR           2          0          1   5.051E-02
  CGR           3          0          1   2.932E-02
  CGR           4          0          1   9.482E-03
  CGR           5          0          1   4.405E-03
  CGR           6          0          1   2.209E-03
  CGR           7          0          1   6.965E-04
  CGR           8          0          1   2.825E-04
  CGR           9          0          1   1.332E-04
  CGR          10          0          1   4.488E-05
  CGR          11          0          1   1.397E-05
  CGR          12          0          1   5.328E-06
  CGR          13          0          1   1.663E-06
  CGR          14          1          0   5.267E-07

    CGRSolver converged.

  ==> DFCorrGrad: Density-Fitted Correlated Gradients <==

    OpenMP threads:              8
    Integrals threads:           8
    Memory (MB):              3576
    Schwarz Cutoff:          0E+00
    Fitting Condition:       1E-12

   => Auxiliary Basis Set <=

  Basis Set: (AUG-CC-PVTZ AUX)
    Blend: AUG-CC-PVTZ-JKFIT
    Number of shells: 530
    Number of basis function: 1812
    Number of Cartesian functions: 2253
    Spherical Harmonics?: true
    Max angular momentum: 4

	-----------------------------------------------------------
	 ==================> DF-MP2 Energies <==================== 
	-----------------------------------------------------------
	 Reference Energy          =    -551.6745595177229688 [Eh]
	 Singles Energy            =      -0.0000000000000002 [Eh]
	 Same-Spin Energy          =      -0.5965582616277821 [Eh]
	 Opposite-Spin Energy      =      -1.8253043607182691 [Eh]
	 Correlation Energy        =      -2.4218626223460511 [Eh]
	 Total Energy              =    -554.0964221400689667 [Eh]
	-----------------------------------------------------------
	 ================> DF-SCS-MP2 Energies <================== 
	-----------------------------------------------------------
	 SCS Same-Spin Scale       =       0.3333333333333333 [-]
	 SCS Opposite-Spin Scale   =       1.2000000000000000 [-]
	 SCS Same-Spin Energy      =      -0.1988527538759274 [Eh]
	 SCS Opposite-Spin Energy  =      -2.1903652328619230 [Eh]
	 SCS Correlation Energy    =      -2.3892179867378505 [Eh]
	 SCS Total Energy          =    -554.0637775044608588 [Eh]
	-----------------------------------------------------------


  -Total Gradient:
     Atom            X                  Y                   Z
    ------   -----------------  -----------------  -----------------
       1        0.009234898332    -0.008925203488    -0.003519950135
       2        0.011572605614    -0.002992311944    -0.007445790109
       3       -0.009162757265     0.005545040274     0.008729457138
       4       -0.006793961325     0.001021179253    -0.002387794978
       5       -0.015497582774     0.009118548925     0.013618180792
       6       -0.019168060424     0.008548108945     0.008363801114
       7        0.008487175622    -0.010300510208     0.004706262605
       8        0.005612736037     0.003287312093    -0.013862905589
       9       -0.002440704593     0.001059157343     0.001475880376
      10        0.014422644895    -0.007014114336    -0.008926686604
      11        0.010228146209    -0.001119651128     0.004947286824
      12       -0.001748706391     0.000477389244     0.001466805356
      13       -0.004008469938     0.008396843465    -0.001870035713
      14        0.001492739028     0.001464456924    -0.005768709868
      15        0.004259958363    -0.004387045727     0.002517957630
      16       -0.003175049850     0.001926438322    -0.003413769651
      17        0.001990317361    -0.001435391324     0.005553094597
      18       -0.005082344839     0.004320112289    -0.002923711986
      19       -0.001602858839    -0.000729900453     0.006984782305
      20        0.001871872690    -0.000453407429    -0.002586119756
      21        0.002407393097    -0.001672387256    -0.000101817672
      22        0.005101564894    -0.002744336700    -0.003243694047
      23       -0.008001555905    -0.003390327079    -0.002312522641


*** tstop() called on gpu-1-6.local at Sun Nov 12 10:13:49 2017
Module time:
	user time   =    5310.17 seconds =      88.50 minutes
	system time =     110.42 seconds =       1.84 minutes
	total time  =       2543 seconds =      42.38 minutes
Total time:
	user time   =    5310.18 seconds =      88.50 minutes
	system time =     110.42 seconds =       1.84 minutes
	total time  =       2543 seconds =      42.38 minutes

			-----------------------------------------
			 OPTKING 2.0: for geometry optimizations 
			  - R.A. King,  Bethel University        
			-----------------------------------------

	Internal coordinates to be generated automatically.
	Detected frag 1 with atoms:  1 2 3 4 5 6 7 8 9 10 11 12 13 14 15 16 17 18 19 20
	 21 22 23
	---Fragment 1 Bond Connectivity---
	 1 : 3 9 14
	 2 : 4 9 15
	 3 : 1 11 16
	 4 : 2 11 17
	 5 : 7 10 18
	 6 : 8 10 19
	 7 : 5 12 20
	 8 : 6 12 21
	 9 : 1 2 10
	 10 : 5 6 9
	 11 : 3 4 13
	 12 : 7 8 22
	 13 : 11 23
	 14 : 1
	 15 : 2
	 16 : 3
	 17 : 4
	 18 : 5
	 19 : 6
	 20 : 7
	 21 : 8
	 22 : 12
	 23 : 13

	Assuming in current code that numbering for constraints corresponds to unified fragment.
	Fixed dihedral atom list: 
	     3    11    13    23
	---Fragment 1 Geometry and Gradient---
	 C          -2.3926657970        1.3605303706       -1.0776638549
	 C          -0.5161677470        0.1964590727        2.9172171900
	 C          -4.4297905682        2.4433434447        0.1941218325
	 C          -2.5532925182        1.2792721469        4.1908926036
	 C           2.4355844726        0.0698474218       -3.3642324757
	 C           2.9571488852       -2.9272582249        0.0202670283
	 C           4.4689297916       -1.0450909966       -4.5887750098
	 C           4.9791558474       -3.9666075980       -1.2893131818
	 C          -0.4349095233        0.2361433215        0.2829389608
	 C           1.6796940194       -0.8863540014       -1.0360898800
	 C          -4.5110487919        2.4036591960        2.8284000618
	 N           5.6670161598       -3.0085164486       -3.5286386493
	 O          -6.4990406837        3.4619058304        4.0699501311
	 H          -2.3567610004        1.4058837978       -3.1317961614
	 H           0.9956131593       -0.6728149484        4.0056994425
	 H          -5.9491303790        3.3163969181       -0.8773528848
	 H          -2.6062048500        1.2433673504        6.2431351839
	 H           1.4737138709        1.6609968257       -4.2335064968
	 H           2.4072385806       -3.7133842962        1.8344041159
	 H           5.1889154482       -0.4271505511       -6.3991326451
	 H           6.0789764568       -5.5501980974       -0.6127912262
	 H           7.1561203525       -3.8003116983       -4.4602736328
	 H          -8.0183804946        3.3504119885        3.0476082932
	             0.0092348983       -0.0089252035       -0.0035199501
	             0.0115726056       -0.0029923119       -0.0074457901
	            -0.0091627573        0.0055450403        0.0087294571
	            -0.0067939613        0.0010211793       -0.0023877950
	            -0.0154975828        0.0091185489        0.0136181808
	            -0.0191680604        0.0085481089        0.0083638011
	             0.0084871756       -0.0103005102        0.0047062626
	             0.0056127360        0.0032873121       -0.0138629056
	            -0.0024407046        0.0010591573        0.0014758804
	             0.0144226449       -0.0070141143       -0.0089266866
	             0.0102281462       -0.0011196511        0.0049472868
	            -0.0017487064        0.0004773892        0.0014668054
	            -0.0040084699        0.0083968435       -0.0018700357
	             0.0014927390        0.0014644569       -0.0057687099
	             0.0042599584       -0.0043870457        0.0025179576
	            -0.0031750499        0.0019264383       -0.0034137697
	             0.0019903174       -0.0014353913        0.0055530946
	            -0.0050823448        0.0043201123       -0.0029237120
	            -0.0016028588       -0.0007299005        0.0069847823
	             0.0018718727       -0.0004534074       -0.0025861198
	             0.0024073931       -0.0016723873       -0.0001018177
	             0.0051015649       -0.0027443367       -0.0032436940
	            -0.0080015559       -0.0033903271       -0.0023125226

	Previous optimization step data not found.  Starting new optimization.

	---Fragment 1 Intrafragment Coordinates---
	 - Coordinate -           - BOHR/RAD -       - ANG/DEG -
	 R(1,3)           =         2.634350	       1.394038
	 R(1,9)           =         2.635962	       1.394891
	 R(1,14)          =         2.054947	       1.087431
	 R(2,4)           =         2.635263	       1.394521
	 R(2,9)           =         2.635830	       1.394821
	 R(2,15)          =         2.055702	       1.087831
	 R(3,11)          =         2.635830	       1.394821
	 R(3,16)          =         2.053941	       1.086899
	 R(4,11)          =         2.636938	       1.395407
	 R(4,17)          =         2.053239	       1.086527
	 R(5,7)           =         2.622420	       1.387725
	 R(5,10)          =         2.627915	       1.390633
	 R(5,18)          =         2.052459	       1.086115
	 R(6,8)           =         2.623692	       1.388398
	 R(6,10)          =         2.629272	       1.391351
	 R(6,19)          =         2.052191	       1.085973
	 R(7,12)          =         2.532655	       1.340223
	 R(7,20)          =         2.043924	       1.081598
	 R(8,12)          =         2.530942	       1.339317
	 R(8,21)          =         2.043293	       1.081264
	 R(9,10)          =         2.733384	       1.446444
	 R(11,13)         =         2.571662	       1.360865
	 R(12,22)         =         1.926737	       1.019585
	 R(13,23)         =         1.834668	       0.970865
	 B(1,3,11)        =         2.094553	     120.009056
	 B(1,3,16)        =         2.088505	     119.662516
	 B(1,9,2)         =         2.093692	     119.959722
	 B(1,9,10)        =         2.095161	     120.043881
	 B(2,4,11)        =         2.093699	     119.960108
	 B(2,4,17)        =         2.089577	     119.723926
	 B(2,9,10)        =         2.094332	     119.996376
	 B(3,1,9)         =         2.094940	     120.031219
	 B(3,1,14)        =         2.079469	     119.144799
	 B(3,11,4)        =         2.094306	     119.994870
	 B(3,11,13)       =         2.094549	     120.008801
	 B(4,2,9)         =         2.095181	     120.045019
	 B(4,2,15)        =         2.078675	     119.099297
	 B(4,11,13)       =         2.094331	     119.996326
	 B(5,7,12)        =         2.095473	     120.061759
	 B(5,7,20)        =         2.162990	     123.930212
	 B(5,10,6)        =         2.092808	     119.909049
	 B(5,10,9)        =         2.095104	     120.040644
	 B(6,8,12)        =         2.095689	     120.074121
	 B(6,8,21)        =         2.161055	     123.819347
	 B(6,10,9)        =         2.095271	     120.050189
	 B(7,5,10)        =         2.073747	     118.816947
	 B(7,5,18)        =         2.088865	     119.683141
	 B(7,12,8)        =         2.135611	     122.361511
	 B(7,12,22)       =         2.073499	     118.802740
	 B(8,6,10)        =         2.073041	     118.776513
	 B(8,6,19)        =         2.089782	     119.735704
	 B(8,12,22)       =         2.074075	     118.835741
	 B(9,1,14)        =         2.108776	     120.823969
	 B(9,2,15)        =         2.109330	     120.855683
	 B(10,5,18)       =         2.120573	     121.499869
	 B(10,6,19)       =         2.120361	     121.487761
	 B(11,3,16)       =         2.100127	     120.328425
	 B(11,4,17)       =         2.099910	     120.315955
	 B(11,13,23)      =         1.924254	     110.251655
	 B(12,7,20)       =         2.024722	     116.007998
	 B(12,8,21)       =         2.026441	     116.106509
	 D(1,3,11,4)      =        -0.000325	      -0.018609
	 D(1,3,11,13)     =         3.140978	     179.964785
	 D(1,9,2,4)       =         0.000325	       0.018608
	 D(1,9,2,15)      =        -3.141497	    -179.994534
	 D(1,9,10,5)      =         0.522161	      29.917626
	 D(1,9,10,6)      =        -2.617252	    -149.957477
	 D(2,4,11,3)      =         0.000301	       0.017261
	 D(2,4,11,13)     =        -3.141002	    -179.966135
	 D(2,9,1,3)       =        -0.000348	      -0.019945
	 D(2,9,1,14)      =        -3.141221	    -179.978731
	 D(2,9,10,5)      =        -2.618515	    -150.029870
	 D(2,9,10,6)      =         0.525257	      30.095026
	 D(3,1,9,10)      =        -3.141025	    -179.967461
	 D(3,11,4,17)     =         3.141223	     179.978848
	 D(3,11,13,23)    =         0.523581	      29.999006
	 D(4,2,9,10)      =         3.141002	     179.966149
	 D(4,11,3,16)     =         3.141593	     180.000000
	 D(4,11,13,23)    =        -2.618301	    -150.017600
	 D(5,7,12,8)      =        -0.000900	      -0.051587
	 D(5,7,12,22)     =         3.141281	     179.982140
	 D(5,10,6,8)      =         0.001757	       0.100696
	 D(5,10,6,19)     =        -3.140779	    -179.953357
	 D(6,8,12,7)      =         0.001479	       0.084766
	 D(6,8,12,22)     =        -3.140702	    -179.948971
	 D(6,10,5,7)      =        -0.001201	      -0.068795
	 D(6,10,5,18)     =        -3.141485	    -179.993816
	 D(7,5,10,9)      =        -3.140617	    -179.944076
	 D(7,12,8,21)     =        -3.141052	    -179.969035
	 D(8,6,10,9)      =         3.141173	     179.975965
	 D(8,12,7,20)     =         3.139609	     179.886353
	 D(9,1,3,11)      =         0.000348	       0.019955
	 D(9,1,3,16)      =        -3.141571	    -179.998735
	 D(9,2,4,11)      =        -0.000301	      -0.017270
	 D(9,2,4,17)      =        -3.141228	    -179.979086
	 D(9,10,5,18)     =         0.002285	       0.130903
	 D(9,10,6,19)     =        -0.001363	      -0.078088
	 D(10,5,7,12)     =         0.000747	       0.042772
	 D(10,5,7,20)     =        -3.139673	    -179.890006
	 D(10,6,8,12)     =        -0.001882	      -0.107847
	 D(10,6,8,21)     =         3.140725	     179.950304
	 D(10,9,1,14)     =         0.001287	       0.073752
	 D(10,9,2,15)     =        -0.000820	      -0.046992
	 D(11,3,1,14)     =         3.141234	     179.979432
	 D(11,4,2,15)     =         3.141517	     179.995641
	 D(12,7,5,18)     =         3.141055	     179.969186
	 D(12,8,6,19)     =         3.140637	     179.945236
	 D(13,11,3,16)    =        -0.000286	      -0.016400
	 D(13,11,4,17)    =        -0.000079	      -0.004548
	 D(14,1,3,16)     =        -0.000685	      -0.039257
	 D(15,2,4,17)     =         0.000590	       0.033826
	 D(18,5,7,20)     =         0.000635	       0.036408
	 D(19,6,8,21)     =         0.000059	       0.003387
	 D(20,7,12,22)    =        -0.001395	      -0.079920
	 D(21,8,12,22)    =        -0.000048	      -0.002772

	Current energy   :      -554.0964221401

	Generating empirical Hessian (Schlegel '84) for each fragment.
	Adding user-defined constraint: Fragment 1; Coordinate 76:
		Value =     0.523581; Fixed value    =     0.523599
		Force =     0.000009; Force constant =     0.500000
	Removing off-diagonal coupling between coordinate 76 and others.
	Taking RFO optimization step.
	Going to follow RFO solution 1.
	Using RFO vector 1.

	Determining step-restricting scale parameter for RS-RFO.
	Maximum step size allowed    0.10000

	 Iter      |step|        alpha        rfo_root  
	------------------------------------------------
	    0     0.25893       1.00000           1
	    1     0.18079       3.98187           1
	    2     0.13883      10.11948           1
	    3     0.11468      20.48140           1
	    4     0.10303      30.05652           1
	    5     0.10017      33.14907           1
	    6     0.10000      33.33857           1
	------------------------------------------------
	Norm of target step-size    0.10000
	Projected energy change by RFO approximation:        -0.0044942114

	Back-transformation to cartesian coordinates...
	Could not converge backtransformation.
	Using first guess instead.

	--- Internal Coordinate Step in ANG or DEG, aJ/ANG or AJ/DEG ---
	 ---------------------------------------------------------------------------
	   Coordinate                Previous        Force       Change         New 
	   ----------                --------       ------       ------       ------
	    1 R(1,3)          =      1.394038    -0.095748    -0.009963     1.384075
	    2 R(1,9)          =      1.394891     0.012255     0.001485     1.396376
	    3 R(1,14)         =      1.087431    -0.047989    -0.006169     1.081262
	    4 R(2,4)          =      1.394521    -0.098628    -0.010410     1.384111
	    5 R(2,9)          =      1.394821     0.019813     0.002264     1.397085
	    6 R(2,15)         =      1.087831    -0.052078    -0.006664     1.081167
	    7 R(3,11)         =      1.394821    -0.009731    -0.001138     1.393684
	    8 R(3,16)         =      1.086899    -0.040768    -0.005247     1.081652
	    9 R(4,11)         =      1.395407    -0.060335    -0.006515     1.388892
	   10 R(4,17)         =      1.086527    -0.045512    -0.005801     1.080726
	   11 R(5,7)          =      1.387725    -0.114726    -0.011791     1.375934
	   12 R(5,10)         =      1.390633     0.070750     0.007598     1.398230
	   13 R(5,18)         =      1.086115    -0.057417    -0.007312     1.078802
	   14 R(6,8)          =      1.388398    -0.118573    -0.012196     1.376202
	   15 R(6,10)         =      1.391351     0.065587     0.006987     1.398338
	   16 R(6,19)         =      1.085973    -0.056713    -0.007240     1.078733
	   17 R(7,12)         =      1.340223     0.019875     0.001735     1.341958
	   18 R(7,20)         =      1.081598    -0.023174    -0.002928     1.078670
	   19 R(8,12)         =      1.339317     0.025553     0.002214     1.341531
	   20 R(8,21)         =      1.081264    -0.021077    -0.002646     1.078618
	   21 R(9,10)         =      1.446444     0.056611     0.006813     1.453257
	   22 R(11,13)        =      1.360865    -0.076827    -0.006778     1.354087
	   23 R(12,22)        =      1.019585    -0.054697    -0.005939     1.013646
	   24 R(13,23)        =      0.970865    -0.066907    -0.006101     0.964763
	   25 B(1,3,11)       =    120.009056     0.000048     0.077561   120.086617
	   26 B(1,3,16)       =    119.662516     0.000052     0.149496   119.812012
	   27 B(1,9,2)        =    119.959722    -0.000457    -0.825045   119.134677
	   28 B(1,9,10)       =    120.043881     0.000224     0.403758   120.447640
	   29 B(2,4,11)       =    119.960108    -0.000020    -0.097181   119.862928
	   30 B(2,4,17)       =    119.723926     0.000206     0.532518   120.256444
	   31 B(2,9,10)       =    119.996376     0.000233     0.421234   120.417610
	   32 B(3,1,9)        =    120.031219     0.000114     0.266761   120.297980
	   33 B(3,1,14)       =    119.144799    -0.000102    -0.245567   118.899232
	   34 B(3,11,4)       =    119.994870     0.000035     0.005656   120.000526
	   35 B(3,11,13)      =    120.008801     0.000847     1.645218   121.654020
	   36 B(4,2,9)        =    120.045019     0.000280     0.571775   120.616794
	   37 B(4,2,15)       =    119.099297    -0.000212    -0.466535   118.632762
	   38 B(4,11,13)      =    119.996326    -0.000883    -1.654865   118.341461
	   39 B(5,7,12)       =    120.061759    -0.000225    -0.496733   119.565026
	   40 B(5,7,20)       =    123.930212    -0.000008    -0.045822   123.884390
	   41 B(5,10,6)       =    119.909049    -0.000833    -1.566852   118.342197
	   42 B(5,10,9)       =    120.040644     0.000427     0.803603   120.844248
	   43 B(6,8,12)       =    120.074121    -0.000219    -0.491204   119.582917
	   44 B(6,8,21)       =    123.819347     0.000003    -0.016752   123.802594
	   45 B(6,10,9)       =    120.050189     0.000406     0.763299   120.813488
	   46 B(7,5,10)       =    118.816947     0.000525     1.069765   119.886712
	   47 B(7,5,18)       =    119.683141    -0.000349    -0.754921   118.928220
	   48 B(7,12,8)       =    122.361511     0.000218     0.398106   122.759617
	   49 B(7,12,22)      =    118.802740    -0.000108    -0.195140   118.607599
	   50 B(8,6,10)       =    118.776513     0.000534     1.086933   119.863446
	   51 B(8,6,19)       =    119.735704    -0.000359    -0.773894   118.961810
	   52 B(8,12,22)      =    118.835741    -0.000110    -0.202964   118.632777
	   53 B(9,1,14)       =    120.823969    -0.000012    -0.022156   120.801813
	   54 B(9,2,15)       =    120.855683    -0.000068    -0.106310   120.749372
	   55 B(10,5,18)      =    121.499869    -0.000177    -0.315863   121.184007
	   56 B(10,6,19)      =    121.487761    -0.000176    -0.313479   121.174282
	   57 B(11,3,16)      =    120.328425    -0.000100    -0.227057   120.101368
	   58 B(11,4,17)      =    120.315955    -0.000187    -0.435404   119.880550
	   59 B(11,13,23)     =    110.251655    -0.000128    -0.317641   109.934014
	   60 B(12,7,20)      =    116.007998     0.000233     0.542254   116.550251
	   61 B(12,8,21)      =    116.106509     0.000217     0.507708   116.614217
	   62 D(1,3,11,4)     =     -0.018609     0.000007     0.180734     0.162125
	   63 D(1,3,11,13)    =    179.964785    -0.000025    -0.541714   179.423072
	   64 D(1,9,2,4)      =      0.018608    -0.000001    -0.008914     0.009694
	   65 D(1,9,2,15)     =   -179.994534     0.000019     0.385902  -179.608631
	   66 D(1,9,10,5)     =     29.917626     0.000008     0.152073    30.069699
	   67 D(1,9,10,6)     =   -149.957477     0.000006     0.123307  -149.834170
	   68 D(2,4,11,3)     =      0.017261    -0.000012    -0.278189    -0.260928
	   69 D(2,4,11,13)    =   -179.966135     0.000020     0.419990  -179.546145
	   70 D(2,9,1,3)      =     -0.019945    -0.000004    -0.089372    -0.109317
	   71 D(2,9,1,14)     =   -179.978731     0.000012     0.232407  -179.746324
	   72 D(2,9,10,5)     =   -150.029870     0.000010     0.199111  -149.830759
	   73 D(2,9,10,6)     =     30.095026     0.000008     0.170345    30.265371
	   74 D(3,1,9,10)     =   -179.967461    -0.000002    -0.043582  -180.011043
	   75 D(3,11,4,17)    =    179.978848    -0.000015    -0.341116   179.637732
	   76 D(3,11,13,23)   =     29.999006    -0.000018    -0.133064    29.865942
	   77 D(4,2,9,10)     =    179.966149    -0.000003    -0.054699   179.911450
	   78 D(4,11,3,16)    =    180.000000     0.000008     0.183822   180.183822
	   79 D(4,11,13,23)   =   -150.017600    -0.000050    -0.843660  -150.861260
	   80 D(5,7,12,8)     =     -0.051587     0.000001     0.017952    -0.033635
	   81 D(5,7,12,22)    =    179.982140     0.000001     0.013160   179.995300
	   82 D(5,10,6,8)     =      0.100696    -0.000001    -0.004744     0.095951
	   83 D(5,10,6,19)    =   -179.953357     0.000015     0.298927  -179.654430
	   84 D(6,8,12,7)     =      0.084766    -0.000001    -0.008884     0.075882
	   85 D(6,8,12,22)    =   -179.948971    -0.000000    -0.004088  -179.953060
	   86 D(6,10,5,7)     =     -0.068795     0.000001     0.014381    -0.054414
	   87 D(6,10,5,18)    =   -179.993816     0.000016     0.318267  -179.675550
	   88 D(7,5,10,9)     =   -179.944076    -0.000001    -0.016533  -179.960609
	   89 D(7,12,8,21)    =   -179.969035    -0.000007    -0.137633  -180.106668
	   90 D(8,6,10,9)     =    179.975965     0.000001     0.026212   180.002177
	   91 D(8,12,7,20)    =    179.886353    -0.000006    -0.121591   179.764763
	   92 D(9,1,3,11)     =      0.019955     0.000001     0.003930     0.023885
	   93 D(9,1,3,16)     =   -179.998735     0.000001     0.000985  -179.997750
	   94 D(9,2,4,11)     =     -0.017270     0.000009     0.192469     0.175199
	   95 D(9,2,4,17)     =   -179.979086     0.000012     0.256010  -179.723076
	   96 D(9,10,5,18)    =      0.130903     0.000015     0.287352     0.418255
	   97 D(9,10,6,19)    =     -0.078088     0.000017     0.329884     0.251796
	   98 D(10,5,7,12)    =      0.042772    -0.000001    -0.019825     0.022947
	   99 D(10,5,7,20)    =   -179.890006     0.000006     0.130189  -179.759817
	  100 D(10,6,8,12)    =     -0.107847     0.000000     0.001260    -0.106587
	  101 D(10,6,8,21)    =    179.950304     0.000007     0.139518   180.089822
	  102 D(10,9,1,14)    =      0.073752     0.000014     0.278197     0.351950
	  103 D(10,9,2,15)    =     -0.046992     0.000017     0.340117     0.293124
	  104 D(11,3,1,14)    =    179.979432    -0.000015    -0.311688   179.667745
	  105 D(11,4,2,15)    =    179.995641    -0.000010    -0.194160   179.801481
	  106 D(12,7,5,18)    =    179.969186    -0.000016    -0.316568   179.652618
	  107 D(12,8,6,19)    =    179.945236    -0.000015    -0.295922   179.649314
	  108 D(13,11,3,16)   =     -0.016400    -0.000024    -0.538831    -0.555231
	  109 D(13,11,4,17)   =     -0.004548     0.000016     0.357063     0.352515
	  110 D(14,1,3,16)    =     -0.039257    -0.000016    -0.314633    -0.353890
	  111 D(15,2,4,17)    =      0.033826    -0.000007    -0.130619    -0.096794
	  112 D(18,5,7,20)    =      0.036408    -0.000009    -0.166553    -0.130145
	  113 D(19,6,8,21)    =      0.003387    -0.000008    -0.157665    -0.154278
	  114 D(20,7,12,22)   =     -0.079920    -0.000006    -0.126383    -0.206303
	  115 D(21,8,12,22)   =     -0.002772    -0.000007    -0.132838    -0.135610
	 ---------------------------------------------------------------------------
	Successfully symmetrized geometry.
	 Forces used to impose fixed constraints are not included.
	  Forces zeroed: 76 

  ==> Convergence Check <==

  Measures of convergence in internal coordinates in au.
  Criteria marked as inactive (o), active & met (*), and active & unmet ( ).
  --------------------------------------------------------------------------------------------- ~
   Step     Total Energy     Delta E     MAX Force     RMS Force      MAX Disp      RMS Disp    ~
  --------------------------------------------------------------------------------------------- ~
    Convergence Criteria    1.00e-06 *    3.00e-04 *             o    1.20e-03 *             o  ~
  --------------------------------------------------------------------------------------------- ~
      1    -554.09642214   -5.54e+02      1.44e-02      4.32e-03 o    2.89e-02      9.31e-03 o  ~
  ---------------------------------------------------------------------------------------------

	Writing optimization data to binary file.
	Structure for next step:
	Cartesian Geometry (in Angstrom)
	    C    -1.2797796474   0.7233707029  -0.5685328233
	    C    -0.2934449975   0.1139823992   1.5426531774
	    C    -2.3511173119   1.2903760507   0.0996010350
	    C    -1.3633173551   0.6825193827   2.2119088164
	    C     1.3077719241   0.0271220864  -1.7892987797
	    C     1.5764573043  -1.5550681354  -0.0028809876
	    C     2.3761014492  -0.5532406757  -2.4335383143
	    C     2.6404009615  -2.1048084517  -0.6809234227
	    C    -0.2389949003   0.1274829278   0.1466946359
	    C     0.8873332262  -0.4690410118  -0.5515177098
	    C    -2.3960732579   1.2696751288   1.4924055441
	    N     3.0059629668  -1.5934974705  -1.8660949595
	    O    -3.4229387624   1.8249003005   2.1785712823
	    H    -1.2671704694   0.7454159869  -1.6494964056
	    H     0.5011072127  -0.3347341103   2.1225347902
	    H    -3.1530831443   1.7498447324  -0.4622800982
	    H    -1.3973169227   0.6727462602   3.2920558198
	    H     0.8125314702   0.8663886043  -2.2520982645
	    H     1.2875167512  -1.9777269499   0.9466125511
	    H     2.7563471224  -0.2209648296  -3.3867094297
	    H     3.2149215322  -2.9425170112  -0.3181726881
	    H     3.7911630192  -2.0099929023  -2.3534046603
	    H    -4.2316949441   1.7788852512   1.6545824284
			--------------------------
			 OPTKING Finished Execution 
			--------------------------

    Structure for next step:
    Molecular point group: c1
    Full point group: C1

    Geometry (in Angstrom), charge = 1, multiplicity = 1:

    C           -1.280125939446     0.724428589892    -0.567885691308
    C           -0.293791289610     0.115040286160     1.543300309361
    C           -2.351463604019     1.291433937644     0.100248166939
    C           -1.363663647157     0.683577269623     2.212555948357
    C            1.307425632065     0.028179973394    -1.788651647728
    C            1.576111012246    -1.554010248384    -0.002233855639
    C            2.375755157162    -0.552182788766    -2.432891182326
    C            2.640054669380    -2.103750564752    -0.680276290749
    C           -0.239341192411     0.128540814736     0.147341767900
    C            0.886986934076    -0.467983124794    -0.550870577851
    C           -2.396419549936     1.270733015759     1.493052676040
    N            3.005616674755    -1.592439583490    -1.865447827533
    O           -3.423285054476     1.825958187439     2.179218414242
    H           -1.267516761515     0.746473873910    -1.648849273645
    H            0.500760920659    -0.333676223346     2.123181922135
    H           -3.153429436424     1.750902619336    -0.461632966239
    H           -1.397663214818     0.673804147185     3.292702951768
    H            0.812185178119     0.867446491295    -2.251451132520
    H            1.287170459121    -1.976669062916     0.947259683075
    H            2.756000830323    -0.219906942644    -3.386062297700
    H            3.214575240093    -2.941459124271    -0.317525556198
    H            3.790816727102    -2.008935015349    -2.352757528366
    H           -4.232041236191     1.779943138194     1.655229560321

gradient() will perform analytic gradient computation.

*** tstart() called on gpu-1-6.local
*** at Sun Nov 12 10:13:50 2017

    SCF Algorithm Type (re)set to DF.

*** tstart() called on gpu-1-6.local
*** at Sun Nov 12 10:13:50 2017

   => Loading Basis Set <=

    Name: AUG-CC-PVTZ
    Role: ORBITAL
    Keyword: BASIS
    atoms 1-11  entry C          line   221 file /cbio/jclab/home/chayas/anaconda/envs/py35/share/psi4/basis/aug-cc-pvtz.gbs 
    atoms 12    entry N          line   267 file /cbio/jclab/home/chayas/anaconda/envs/py35/share/psi4/basis/aug-cc-pvtz.gbs 
    atoms 13    entry O          line   313 file /cbio/jclab/home/chayas/anaconda/envs/py35/share/psi4/basis/aug-cc-pvtz.gbs 
    atoms 14-23 entry H          line    34 file /cbio/jclab/home/chayas/anaconda/envs/py35/share/psi4/basis/aug-cc-pvtz.gbs 


         ---------------------------------------------------------
                                   SCF
            by Justin Turney, Rob Parrish, and Andy Simmonett
                              RHF Reference
                        8 Threads,   4768 MiB Core
         ---------------------------------------------------------

  ==> Geometry <==

    Molecular point group: c1
    Full point group: C1

    Geometry (in Angstrom), charge = 1, multiplicity = 1:

       Center              X                  Y                   Z               Mass       
    ------------   -----------------  -----------------  -----------------  -----------------
           C         -1.280125939446     0.724428589892    -0.567885691308    12.000000000000
           C         -0.293791289610     0.115040286160     1.543300309361    12.000000000000
           C         -2.351463604019     1.291433937644     0.100248166939    12.000000000000
           C         -1.363663647157     0.683577269623     2.212555948357    12.000000000000
           C          1.307425632065     0.028179973394    -1.788651647728    12.000000000000
           C          1.576111012246    -1.554010248384    -0.002233855639    12.000000000000
           C          2.375755157162    -0.552182788766    -2.432891182326    12.000000000000
           C          2.640054669380    -2.103750564752    -0.680276290749    12.000000000000
           C         -0.239341192411     0.128540814736     0.147341767900    12.000000000000
           C          0.886986934076    -0.467983124794    -0.550870577851    12.000000000000
           C         -2.396419549936     1.270733015759     1.493052676040    12.000000000000
           N          3.005616674755    -1.592439583490    -1.865447827533    14.003074004780
           O         -3.423285054476     1.825958187439     2.179218414242    15.994914619560
           H         -1.267516761515     0.746473873910    -1.648849273645     1.007825032070
           H          0.500760920659    -0.333676223346     2.123181922135     1.007825032070
           H         -3.153429436424     1.750902619336    -0.461632966239     1.007825032070
           H         -1.397663214818     0.673804147185     3.292702951768     1.007825032070
           H          0.812185178119     0.867446491295    -2.251451132520     1.007825032070
           H          1.287170459121    -1.976669062916     0.947259683075     1.007825032070
           H          2.756000830323    -0.219906942644    -3.386062297700     1.007825032070
           H          3.214575240093    -2.941459124271    -0.317525556198     1.007825032070
           H          3.790816727102    -2.008935015349    -2.352757528366     1.007825032070
           H         -4.232041236191     1.779943138194     1.655229560321     1.007825032070

  Running in c1 symmetry.

  Rotational constants: A =      0.09643  B =      0.01329  C =      0.01188 [cm^-1]
  Rotational constants: A =   2890.96223  B =    398.52539  C =    356.27051 [MHz]
  Nuclear repulsion =  713.321233996887145

  Charge       = 1
  Multiplicity = 1
  Electrons    = 90
  Nalpha       = 45
  Nbeta        = 45

  ==> Algorithm <==

  SCF Algorithm Type is DF.
  DIIS enabled.
  MOM disabled.
  Fractional occupation disabled.
  Guess Type is READ.
  Energy threshold   = 1.00e-10
  Density threshold  = 1.00e-10
  Integral threshold = 0.00e+00

  ==> Primary Basis <==

  Basis Set: AUG-CC-PVTZ
    Blend: AUG-CC-PVTZ
    Number of shells: 272
    Number of basis function: 828
    Number of Cartesian functions: 965
    Spherical Harmonics?: true
    Max angular momentum: 3

   => Loading Basis Set <=

    Name: (AUG-CC-PVTZ AUX)
    Role: JKFIT
    Keyword: DF_BASIS_SCF
    atoms 1-11  entry C          line   161 file /cbio/jclab/home/chayas/anaconda/envs/py35/share/psi4/basis/aug-cc-pvtz-jkfit.gbs 
    atoms 12    entry N          line   223 file /cbio/jclab/home/chayas/anaconda/envs/py35/share/psi4/basis/aug-cc-pvtz-jkfit.gbs 
    atoms 13    entry O          line   285 file /cbio/jclab/home/chayas/anaconda/envs/py35/share/psi4/basis/aug-cc-pvtz-jkfit.gbs 
    atoms 14-23 entry H          line    69 file /cbio/jclab/home/chayas/anaconda/envs/py35/share/psi4/basis/aug-cc-pvtz-jkfit.gbs 

  Reading orbitals from file 180, no projection.

  ==> Pre-Iterations <==

   -------------------------------------------------------
    Irrep   Nso     Nmo     Nalpha   Nbeta   Ndocc  Nsocc
   -------------------------------------------------------
     A        828     828       0       0       0       0
   -------------------------------------------------------
    Total     828     828      45      45      45       0
   -------------------------------------------------------

  ==> Integral Setup <==

  ==> DFJK: Density-Fitted J/K Matrices <==

    J tasked:                  Yes
    K tasked:                  Yes
    wK tasked:                  No
    OpenMP threads:              8
    Integrals threads:           8
    Memory (MB):              3576
    Algorithm:                Disk
    Integral Cache:           NONE
    Schwarz Cutoff:          1E-12
    Fitting Condition:       1E-12

   => Auxiliary Basis Set <=

  Basis Set: (AUG-CC-PVTZ AUX)
    Blend: AUG-CC-PVTZ-JKFIT
    Number of shells: 530
    Number of basis function: 1812
    Number of Cartesian functions: 2253
    Spherical Harmonics?: true
    Max angular momentum: 4

  Minimum eigenvalue in the overlap matrix is 5.7445764495E-07.
  Using Symmetric Orthogonalization.

  SCF Guess: Orbitals guess was supplied from a previous computation.

  ==> Iterations <==

                           Total Energy        Delta E     RMS |[F,P]|

   @DF-RHF iter   0:  -551.78916787417404   -5.51789e+02   4.83193e-04 
   @DF-RHF iter   1:  -551.67919768687841    1.09970e-01   9.60352e-05 
   @DF-RHF iter   2:  -551.67958702463227   -3.89338e-04   5.19044e-05 DIIS
   @DF-RHF iter   3:  -551.67990194049139   -3.14916e-04   8.39082e-06 DIIS
   @DF-RHF iter   4:  -551.67991023011564   -8.28962e-06   3.76646e-06 DIIS
   @DF-RHF iter   5:  -551.67991228558503   -2.05547e-06   1.26795e-06 DIIS
   @DF-RHF iter   6:  -551.67991267086643   -3.85281e-07   7.03761e-07 DIIS
   @DF-RHF iter   7:  -551.67991281479499   -1.43929e-07   3.46470e-07 DIIS
   @DF-RHF iter   8:  -551.67991286190852   -4.71135e-08   1.19850e-07 DIIS
   @DF-RHF iter   9:  -551.67991286767824   -5.76972e-09   4.39832e-08 DIIS
   @DF-RHF iter  10:  -551.67991286807921   -4.00973e-10   1.78322e-08 DIIS
   @DF-RHF iter  11:  -551.67991286812139   -4.21778e-11   4.57908e-09 DIIS
   @DF-RHF iter  12:  -551.67991286813162   -1.02318e-11   1.62964e-09 DIIS
   @DF-RHF iter  13:  -551.67991286812799    3.63798e-12   8.57480e-10 DIIS
   @DF-RHF iter  14:  -551.67991286813208   -4.09273e-12   3.78621e-10 DIIS
   @DF-RHF iter  15:  -551.67991286812264    9.43601e-12   1.78244e-10 DIIS
   @DF-RHF iter  16:  -551.67991286813071   -8.07177e-12   7.55000e-11 DIIS

  ==> Post-Iterations <==

    Orbital Energies (a.u.)
    -----------------------

    Doubly Occupied:                                                      

       1A    -20.701073     2A    -15.830235     3A    -11.481636  
       4A    -11.481544     5A    -11.449583     6A    -11.431245  
       7A    -11.411796     8A    -11.411636     9A    -11.378646  
      10A    -11.376613    11A    -11.373710    12A    -11.355383  
      13A    -11.350359    14A     -1.521544    15A     -1.509261  
      16A     -1.318878    17A     -1.266210    18A     -1.238946  
      19A     -1.155927    20A     -1.154112    21A     -1.065485  
      22A     -1.056478    23A     -0.976233    24A     -0.962708  
      25A     -0.952103    26A     -0.870804    27A     -0.861118  
      28A     -0.854732    29A     -0.820907    30A     -0.800793  
      31A     -0.782390    32A     -0.772676    33A     -0.757626  
      34A     -0.737720    35A     -0.723113    36A     -0.710029  
      37A     -0.705114    38A     -0.677011    39A     -0.657073  
      40A     -0.633963    41A     -0.616659    42A     -0.571108  
      43A     -0.539549    44A     -0.471797    45A     -0.439799  

    Virtual:                                                              

      46A     -0.106830    47A     -0.083852    48A     -0.062611  
      49A     -0.060821    50A     -0.058806    51A     -0.049374  
      52A     -0.043005    53A     -0.040138    54A     -0.034773  
      55A     -0.028870    56A     -0.025504    57A     -0.022569  
      58A     -0.017832    59A     -0.010238    60A     -0.005606  
      61A     -0.003683    62A      0.004897    63A      0.006375  
      64A      0.009166    65A      0.014560    66A      0.017610  
      67A      0.020710    68A      0.024099    69A      0.025724  
      70A      0.028980    71A      0.032304    72A      0.036931  
      73A      0.038450    74A      0.040093    75A      0.044940  
      76A      0.050470    77A      0.053136    78A      0.057853  
      79A      0.061128    80A      0.066114    81A      0.069239  
      82A      0.072636    83A      0.073022    84A      0.078304  
      85A      0.083196    86A      0.086506    87A      0.089214  
      88A      0.094618    89A      0.097405    90A      0.108570  
      91A      0.111014    92A      0.114804    93A      0.118925  
      94A      0.122856    95A      0.125266    96A      0.130189  
      97A      0.132536    98A      0.137237    99A      0.139774  
     100A      0.144932   101A      0.155429   102A      0.157604  
     103A      0.162182   104A      0.165620   105A      0.166512  
     106A      0.169134   107A      0.169835   108A      0.173040  
     109A      0.179672   110A      0.182508   111A      0.188461  
     112A      0.189460   113A      0.191644   114A      0.196755  
     115A      0.201868   116A      0.207229   117A      0.209248  
     118A      0.213641   119A      0.215268   120A      0.224049  
     121A      0.226856   122A      0.229672   123A      0.231549  
     124A      0.232080   125A      0.233370   126A      0.240151  
     127A      0.242127   128A      0.247456   129A      0.251560  
     130A      0.255023   131A      0.259982   132A      0.267412  
     133A      0.277078   134A      0.279603   135A      0.280326  
     136A      0.286757   137A      0.289039   138A      0.292899  
     139A      0.302463   140A      0.307604   141A      0.308250  
     142A      0.311283   143A      0.314933   144A      0.321930  
     145A      0.324611   146A      0.326479   147A      0.327658  
     148A      0.333718   149A      0.335608   150A      0.338312  
     151A      0.343949   152A      0.346273   153A      0.348786  
     154A      0.353885   155A      0.354656   156A      0.360351  
     157A      0.363740   158A      0.368275   159A      0.370480  
     160A      0.375220   161A      0.376428   162A      0.379186  
     163A      0.384606   164A      0.387701   165A      0.393258  
     166A      0.396039   167A      0.398634   168A      0.403767  
     169A      0.404854   170A      0.407765   171A      0.411663  
     172A      0.414381   173A      0.416434   174A      0.420706  
     175A      0.422637   176A      0.426098   177A      0.430076  
     178A      0.434742   179A      0.438112   180A      0.442271  
     181A      0.453582   182A      0.454836   183A      0.457899  
     184A      0.466839   185A      0.472487   186A      0.475558  
     187A      0.481219   188A      0.487088   189A      0.492699  
     190A      0.498631   191A      0.507257   192A      0.509344  
     193A      0.519462   194A      0.526598   195A      0.533221  
     196A      0.534090   197A      0.539102   198A      0.546625  
     199A      0.550724   200A      0.560254   201A      0.569072  
     202A      0.572591   203A      0.577996   204A      0.579289  
     205A      0.584340   206A      0.588559   207A      0.593271  
     208A      0.599906   209A      0.606184   210A      0.608634  
     211A      0.620678   212A      0.622444   213A      0.627919  
     214A      0.631294   215A      0.637014   216A      0.640256  
     217A      0.643420   218A      0.647162   219A      0.655503  
     220A      0.659640   221A      0.668788   222A      0.674923  
     223A      0.679899   224A      0.691422   225A      0.700171  
     226A      0.703200   227A      0.710493   228A      0.711921  
     229A      0.720323   230A      0.721465   231A      0.723911  
     232A      0.733370   233A      0.734419   234A      0.739496  
     235A      0.742774   236A      0.754198   237A      0.757135  
     238A      0.757679   239A      0.765806   240A      0.767725  
     241A      0.773995   242A      0.781571   243A      0.782199  
     244A      0.789502   245A      0.791335   246A      0.795559  
     247A      0.800357   248A      0.807226   249A      0.810444  
     250A      0.816445   251A      0.820057   252A      0.824202  
[...]
	 B(5,7,12)        =         2.085437	     119.486726
	 B(5,7,20)        =         2.157093	     123.592334
	 B(5,10,6)        =         2.037687	     116.750880
	 B(5,10,9)        =         2.123868	     121.688671
	 B(6,8,12)        =         2.085403	     119.484806
	 B(6,8,21)        =         2.157121	     123.593943
	 B(6,10,9)        =         2.121629	     121.560396
	 B(7,5,10)        =         2.110776	     120.938561
	 B(7,5,18)        =         2.063542	     118.232268
	 B(7,12,8)        =         2.136305	     122.401236
	 B(7,12,22)       =         2.073465	     118.800812
	 B(8,6,10)        =         2.110761	     120.937705
	 B(8,6,19)        =         2.063969	     118.256740
	 B(8,12,22)       =         2.073415	     118.797951
	 B(9,1,14)        =         2.103538	     120.523870
	 B(9,2,15)        =         2.102280	     120.451750
	 B(10,5,18)       =         2.108402	     120.802543
	 B(10,6,19)       =         2.108021	     120.780726
	 B(11,3,16)       =         2.092949	     119.917117
	 B(11,4,17)       =         2.072257	     118.731581
	 B(11,13,23)      =         1.932476	     110.722695
	 B(12,7,20)       =         2.040589	     116.917146
	 B(12,8,21)       =         2.040604	     116.917976
	 D(1,3,11,4)      =         0.025213	       1.444616
	 D(1,3,11,13)     =         3.082653	     176.623030
	 D(1,9,2,4)       =         0.001599	       0.091642
	 D(1,9,2,15)      =        -3.093692	    -177.255509
	 D(1,9,10,5)      =         0.459840	      26.346910
	 D(1,9,10,6)      =        -2.683267	    -153.739888
	 D(2,4,11,3)      =        -0.029296	      -1.678509
	 D(2,4,11,13)     =        -3.091738	    -177.143531
	 D(2,9,1,3)       =        -0.005708	      -0.327028
	 D(2,9,1,14)      =        -3.111985	    -178.303594
	 D(2,9,10,5)      =        -2.677164	    -153.390212
	 D(2,9,10,6)      =         0.462913	      26.522989
	 D(3,1,9,10)      =         3.140381	     179.930591
	 D(3,11,4,17)     =         3.106637	     177.997206
	 D(3,11,13,23)    =         0.518755	      29.722485
	 D(4,2,9,10)      =         3.138698	     179.834152
	 D(4,11,3,16)     =        -3.125219	    -179.061834
	 D(4,11,13,23)    =        -2.704805	    -154.973929
	 D(5,7,12,8)      =         0.001096	       0.062799
	 D(5,7,12,22)     =        -3.140322	    -179.927224
	 D(5,10,6,8)      =         0.001397	       0.080041
	 D(5,10,6,19)     =        -3.108009	    -178.075789
	 D(6,8,12,7)      =         0.000267	       0.015323
	 D(6,8,12,22)     =        -3.141499	    -179.994653
	 D(6,10,5,7)      =        -0.000032	      -0.001849
	 D(6,10,5,18)     =        -3.108286	    -178.091644
	 D(7,5,10,9)      =         3.140115	     179.915326
	 D(7,12,8,21)     =         3.130783	     179.380652
	 D(8,6,10,9)      =        -3.138752	    -179.837248
	 D(8,12,7,20)     =         3.130766	     179.379704
	 D(9,1,3,11)      =        -0.007711	      -0.441807
	 D(9,1,3,16)      =        -3.140450	    -179.934537
	 D(9,2,4,11)      =         0.015904	       0.911243
	 D(9,2,4,17)      =        -3.119885	    -178.756215
	 D(9,10,5,18)     =         0.031862	       1.825531
	 D(9,10,6,19)     =         0.035027	       2.006921
	 D(10,5,7,12)     =        -0.001193	      -0.068352
	 D(10,5,7,20)     =        -3.130024	    -179.337145
	 D(10,6,8,12)     =        -0.001543	      -0.088420
	 D(10,6,8,21)     =        -3.131278	    -179.409040
	 D(10,9,1,14)     =         0.034104	       1.954025
	 D(10,9,2,15)     =         0.043406	       2.487001
	 D(11,3,1,14)     =         3.099200	     177.571089
	 D(11,4,2,15)     =         3.111987	     178.303698
	 D(12,7,5,18)     =         3.107897	     178.069376
	 D(12,8,6,19)     =         3.108656	     178.112865
	 D(13,11,3,16)    =        -0.067778	      -3.883420
	 D(13,11,4,17)    =         0.044195	       2.532184
	 D(14,1,3,16)     =        -0.033539	      -1.921641
	 D(15,2,4,17)     =        -0.023802	      -1.363760
	 D(18,5,7,20)     =        -0.020934	      -1.199417
	 D(19,6,8,21)     =        -0.021079	      -1.207755
	 D(20,7,12,22)    =        -0.010652	      -0.610319
	 D(21,8,12,22)    =        -0.010984	      -0.629325

	Current energy   :      -554.1002494447

	Energy change for the previous step:
		Projected    :        -0.0000006557
		Actual       :         0.0000000461

	Performing BFGS update.
	Previous computed or guess Hessian on step 1.
	Steps to be used in Hessian update: 5 4
	Adding user-defined constraint: Fragment 1; Coordinate 76:
		Value =     0.518755; Fixed value    =     0.523600
		Force =     0.003028; Force constant =     0.625000
	Removing off-diagonal coupling between coordinate 76 and others.
	Taking RFO optimization step.
	Going to follow RFO solution 1.
	Using RFO vector 1.
	Norm of target step-size    0.01071
	Projected energy change by RFO approximation:         0.0000093698

	Back-transformation to cartesian coordinates...
	Could not converge backtransformation.
	Using first guess instead.

	--- Internal Coordinate Step in ANG or DEG, aJ/ANG or AJ/DEG ---
	 ---------------------------------------------------------------------------
	   Coordinate                Previous        Force       Change         New 
	   ----------                --------       ------       ------       ------
	    1 R(1,3)          =      1.379959     0.000129     0.000046     1.380005
	    2 R(1,9)          =      1.398165     0.000006     0.000023     1.398187
	    3 R(1,14)         =      1.079455    -0.000130    -0.000033     1.079423
	    4 R(2,4)          =      1.378034     0.000251     0.000013     1.378047
	    5 R(2,9)          =      1.399560    -0.000094     0.000055     1.399616
	    6 R(2,15)         =      1.079411    -0.000033    -0.000024     1.079387
	    7 R(3,11)         =      1.393125     0.000108    -0.000023     1.393102
	    8 R(3,16)         =      1.079955    -0.000024     0.000012     1.079967
	    9 R(4,11)         =      1.392515    -0.000439    -0.000031     1.392484
	   10 R(4,17)         =      1.078524     0.000030     0.000023     1.078547
	   11 R(5,7)          =      1.371407     0.000303     0.000061     1.371468
	   12 R(5,10)         =      1.401854    -0.000169    -0.000006     1.401847
	   13 R(5,18)         =      1.077346    -0.000173    -0.000044     1.077302
	   14 R(6,8)          =      1.371450     0.000303     0.000062     1.371512
	   15 R(6,10)         =      1.401932    -0.000261    -0.000003     1.401930
	   16 R(6,19)         =      1.077350    -0.000098    -0.000036     1.077314
	   17 R(7,12)         =      1.343484    -0.000245    -0.000068     1.343416
	   18 R(7,20)         =      1.077240    -0.000020     0.000005     1.077245
	   19 R(8,12)         =      1.343426    -0.000296    -0.000073     1.343353
	   20 R(8,21)         =      1.077268    -0.000027     0.000003     1.077271
	   21 R(9,10)         =      1.444569     0.000261     0.000083     1.444652
	   22 R(11,13)        =      1.347676    -0.000099    -0.000054     1.347622
	   23 R(12,22)        =      1.011637     0.000077     0.000024     1.011661
	   24 R(13,23)        =      0.963463     0.000463     0.000048     0.963511
	   25 B(1,3,11)       =    120.003370     0.000002     0.005984   120.009354
	   26 B(1,3,16)       =    120.077572    -0.000002    -0.015781   120.061791
	   27 B(1,9,2)        =    118.627624    -0.000005    -0.033242   118.594382
	   28 B(1,9,10)       =    120.710014     0.000004     0.020801   120.730816
	   29 B(2,4,11)       =    120.039221     0.000001     0.008877   120.048098
	   30 B(2,4,17)       =    121.228383    -0.000003    -0.015192   121.213191
	   31 B(2,9,10)       =    120.661854     0.000001     0.012438   120.674292
	   32 B(3,1,9)        =    120.747658     0.000002     0.019380   120.767038
	   33 B(3,1,14)       =    118.698315    -0.000007    -0.052405   118.645909
	   34 B(3,11,4)       =    119.780966    -0.000003    -0.018084   119.762881
	   35 B(3,11,13)      =    123.053717    -0.000001    -0.008892   123.044825
	   36 B(4,2,9)        =    120.781722     0.000004     0.017109   120.798831
	   37 B(4,2,15)       =    118.714662    -0.000007    -0.048768   118.665894
	   38 B(4,11,13)      =    116.999656     0.000004     0.029248   117.028904
	   39 B(5,7,12)       =    119.486726     0.000002     0.014475   119.501201
	   40 B(5,7,20)       =    123.592334    -0.000002    -0.013509   123.578825
	   41 B(5,10,6)       =    116.750880    -0.000003    -0.019536   116.731343
	   42 B(5,10,9)       =    121.688671     0.000003     0.013187   121.701858
	   43 B(6,8,12)       =    119.484806     0.000002     0.014130   119.498936
	   44 B(6,8,21)       =    123.593943    -0.000002    -0.014659   123.579284
	   45 B(6,10,9)       =    121.560396     0.000000     0.006292   121.566688
	   46 B(7,5,10)       =    120.938561     0.000001     0.006945   120.945506
	   47 B(7,5,18)       =    118.232268    -0.000006    -0.046951   118.185318
	   48 B(7,12,8)       =    122.401236    -0.000003    -0.023310   122.377926
	   49 B(7,12,22)      =    118.800812     0.000001     0.011169   118.811982
	   50 B(8,6,10)       =    120.937705     0.000001     0.007287   120.944992
	   51 B(8,6,19)       =    118.256740    -0.000005    -0.045029   118.211710
	   52 B(8,12,22)      =    118.797951     0.000002     0.012140   118.810090
	   53 B(9,1,14)       =    120.523870     0.000005     0.033070   120.556940
	   54 B(9,2,15)       =    120.451750     0.000004     0.031422   120.483172
	   55 B(10,5,18)      =    120.802543     0.000004     0.039874   120.842417
	   56 B(10,6,19)      =    120.780726     0.000004     0.037680   120.818406
	   57 B(11,3,16)      =    119.917117     0.000001     0.010095   119.927212
	   58 B(11,4,17)      =    118.731581     0.000002     0.006406   118.737987
	   59 B(11,13,23)     =    110.722695    -0.000002    -0.001519   110.721176
	   60 B(12,7,20)      =    116.917146    -0.000000    -0.001156   116.915990
	   61 B(12,8,21)      =    116.917976     0.000000     0.000408   116.918384
	   62 D(1,3,11,4)     =      1.444616    -0.000000    -0.023222     1.421394
	   63 D(1,3,11,13)    =    176.623030    -0.000000     0.011243   176.634273
	   64 D(1,9,2,4)      =      0.091642    -0.000000    -0.022649     0.068993
	   65 D(1,9,2,15)     =   -177.255509     0.000000    -0.015310  -177.270819
	   66 D(1,9,10,5)     =     26.346910    -0.000000    -0.271066    26.075845
	   67 D(1,9,10,6)     =   -153.739888    -0.000001    -0.309374  -154.049262
	   68 D(2,4,11,3)     =     -1.678509    -0.000000    -0.007914    -1.686423
	   69 D(2,4,11,13)    =   -177.143531    -0.000000    -0.038691  -177.182222
	   70 D(2,9,1,3)      =     -0.327028    -0.000000    -0.008774    -0.335802
	   71 D(2,9,1,14)     =   -178.303594     0.000000    -0.009219  -178.312812
	   72 D(2,9,10,5)     =   -153.390212    -0.000000    -0.270505  -153.660717
	   73 D(2,9,10,6)     =     26.522989    -0.000001    -0.308813    26.214176
	   74 D(3,1,9,10)     =    179.930591    -0.000000    -0.008340   179.922251
	   75 D(3,11,4,17)    =    177.997206    -0.000000     0.010755   178.007961
	   76 D(3,11,13,23)   =     29.722485     0.000002    -0.007132    29.715353
	   77 D(4,2,9,10)     =    179.834152    -0.000000    -0.023061   179.811091
	   78 D(4,11,3,16)    =   -179.061834     0.000000     0.017272  -179.044562
	   79 D(4,11,13,23)   =   -154.973929     0.000002     0.024374  -154.949555
	   80 D(5,7,12,8)     =      0.062799    -0.000000     0.001404     0.064204
	   81 D(5,7,12,22)    =   -179.927224     0.000000     0.007815  -179.919409
	   82 D(5,10,6,8)     =      0.080041    -0.000000    -0.012620     0.067422
	   83 D(5,10,6,19)    =   -178.075789     0.000000    -0.009483  -178.085272
	   84 D(6,8,12,7)     =      0.015323     0.000000     0.008779     0.024103
	   85 D(6,8,12,22)    =   -179.994653     0.000000     0.002369  -179.992285
	   86 D(6,10,5,7)     =     -0.001849     0.000000     0.022802     0.020953
	   87 D(6,10,5,18)    =   -178.091644     0.000000     0.028408  -178.063236
	   88 D(7,5,10,9)     =    179.915326    -0.000000    -0.013723   179.901603
	   89 D(7,12,8,21)    =    179.380652    -0.000000    -0.002928   179.377723
	   90 D(8,6,10,9)     =   -179.837248     0.000000     0.023847  -179.813401
	   91 D(8,12,7,20)    =    179.379704    -0.000000    -0.015584   179.364120
	   92 D(9,1,3,11)     =     -0.441807     0.000000     0.031446    -0.410360
	   93 D(9,1,3,16)     =   -179.934537     0.000000    -0.009235  -179.943772
	   94 D(9,2,4,11)     =      0.911243     0.000000     0.031192     0.942435
	   95 D(9,2,4,17)     =   -178.756215     0.000000     0.011978  -178.744237
	   96 D(9,10,5,18)    =      1.825531     0.000000    -0.008118     1.817413
	   97 D(9,10,6,19)    =      2.006921     0.000000     0.026984     2.033905
	   98 D(10,5,7,12)    =     -0.068352    -0.000000    -0.017742    -0.086094
	   99 D(10,5,7,20)    =   -179.337145     0.000000     0.000334  -179.336811
	  100 D(10,6,8,12)    =     -0.088420     0.000000    -0.002720    -0.091139
	  101 D(10,6,8,21)    =   -179.409040     0.000000     0.009693  -179.399347
	  102 D(10,9,1,14)    =      1.954025     0.000000    -0.008784     1.945241
	  103 D(10,9,2,15)    =      2.487001     0.000000    -0.015722     2.471279
	  104 D(11,3,1,14)    =    177.571089     0.000000     0.033553   177.604642
	  105 D(11,4,2,15)    =    178.303698     0.000000     0.026040   178.329738
	  106 D(12,7,5,18)    =    178.069376    -0.000000    -0.021610   178.047765
	  107 D(12,8,6,19)    =    178.112865    -0.000000    -0.004313   178.108552
	  108 D(13,11,3,16)   =     -3.883420     0.000000     0.051737    -3.831683
	  109 D(13,11,4,17)   =      2.532184    -0.000000    -0.020022     2.512162
	  110 D(14,1,3,16)    =     -1.921641     0.000000    -0.007128    -1.928769
	  111 D(15,2,4,17)    =     -1.363760     0.000000     0.006826    -1.356934
	  112 D(18,5,7,20)    =     -1.199417    -0.000000    -0.003535    -1.202952
	  113 D(19,6,8,21)    =     -1.207755     0.000000     0.008100    -1.199655
	  114 D(20,7,12,22)   =     -0.610319    -0.000000    -0.009174    -0.619493
	  115 D(21,8,12,22)   =     -0.629325    -0.000000    -0.009339    -0.638664
	 ---------------------------------------------------------------------------
	Successfully symmetrized geometry.
	 Forces used to impose fixed constraints are not included.
	  Forces zeroed: 76 

  ==> Convergence Check <==

  Measures of convergence in internal coordinates in au.
  Criteria marked as inactive (o), active & met (*), and active & unmet ( ).
  ---------------------------------------------------------------------------------------------
   Step     Total Energy     Delta E     MAX Force     RMS Force      MAX Disp      RMS Disp   
  ---------------------------------------------------------------------------------------------
    Convergence Criteria    1.00e-06 *    3.00e-04 *             o    1.20e-03 *             o
  ---------------------------------------------------------------------------------------------
      6    -554.10024944    4.61e-08 *    1.09e-04 *    2.96e-05 o    5.40e-03      9.98e-04 o  ~
  ---------------------------------------------------------------------------------------------


  **** Optimization is complete! (in 6 steps) ****

  ==> Optimization Summary <==

  Measures of convergence in internal coordinates in au.
  --------------------------------------------------------------------------------------------------------------- ~
   Step         Total Energy             Delta E       MAX Force       RMS Force        MAX Disp        RMS Disp  ~
  --------------------------------------------------------------------------------------------------------------- ~
      1    -554.096422140069   -554.096422140069      0.01439217      0.00431810      0.02888284      0.00931219  ~
      2    -554.099317897890     -0.002895757821      0.00471214      0.00142442      0.03924379      0.00931938  ~
      3    -554.100055498806     -0.000737600915      0.00159511      0.00042147      0.03546564      0.00932703  ~
      4    -554.100226518089     -0.000171019283      0.00058616      0.00013823      0.02529200      0.00520432  ~
      5    -554.100249490799     -0.000022972710      0.00031875      0.00008575      0.00885452      0.00188632  ~
      6    -554.100249444671      0.000000046128      0.00011212      0.00003143      0.00539959      0.00099841  ~
  --------------------------------------------------------------------------------------------------------------- ~

	Writing optimization data to binary file.
	Final energy is   -554.1002494446709
	Final (previous) structure:
	Cartesian Geometry (in Angstrom)
	    C    -1.2715484427   0.7548586437  -0.5643916320
	    C    -0.3235941509   0.0795516017   1.5413285263
	    C    -2.3446634471   1.3158896577   0.0973910819
	    C    -1.3913247808   0.6429637688   2.2057793954
	    C     1.2903272058  -0.0020629885  -1.8065176877
	    C     1.6082675324  -1.5246586788   0.0046803435
	    C     2.3591106072  -0.5708859370  -2.4506438715
	    C     2.6736946298  -2.0714934687  -0.6636854779
	    C    -0.2446848658   0.1243122626   0.1447115238
	    C     0.8775606793  -0.4640242496  -0.5489767425
	    C    -2.4181061331   1.2497447274   1.4870056755
	    N     3.0201701610  -1.5843146269  -1.8667670666
	    O    -3.4021853614   1.8327882255   2.1996617571
	    H    -1.2555009592   0.7832957614  -1.6433530975
	    H     0.4738766157  -0.3606069683   2.1204911960
	    H    -3.1323824614   1.7993819878  -0.4612115060
	    H    -1.4496519748   0.6300769906   3.2826481740
	    H     0.7946059107   0.8298292254  -2.2786310303
	    H     1.3284805167  -1.9507019714   0.9538321321
	    H     2.7188564303  -0.2434989185  -3.4118131609
	    H     3.2585152343  -2.8922168721  -0.2830221898
	    H     3.8076988008  -1.9954932859  -2.3506473827
	    H    -4.2171773772   1.8715335479   1.6872669537
	Saving final (previous) structure.
			--------------------------
			 OPTKING Finished Execution 
			--------------------------

    Final optimized geometry and variables:
    Molecular point group: c1
    Full point group: C1

    Geometry (in Angstrom), charge = 1, multiplicity = 1:

    C           -1.271548442741     0.754858643678    -0.564391631972
    C           -0.323594150914     0.079551601720     1.541328526251
    C           -2.344663447127     1.315889657717     0.097391081854
    C           -1.391324780800     0.642963768829     2.205779395350
    C            1.290327205821    -0.002062988545    -1.806517687698
    C            1.608267532368    -1.524658678846     0.004680343491
    C            2.359110607248    -0.570885937013    -2.450643871521
    C            2.673694629785    -2.071493468678    -0.663685477854
    C           -0.244684865772     0.124312262604     0.144711523811
    C            0.877560679332    -0.464024249634    -0.548976742452
    C           -2.418106133139     1.249744727368     1.487005675451
    N            3.020170161028    -1.584314626898    -1.866767066631
    O           -3.402185361429     1.832788225528     2.199661757134
    H           -1.255500959155     0.783295761356    -1.643353097506
    H            0.473876615742    -0.360606968306     2.120491196044
    H           -3.132382461434     1.799381987820    -0.461211506006
    H           -1.449651974824     0.630076990578     3.282648173977
    H            0.794605910704     0.829829225366    -2.278631030261
    H            1.328480516739    -1.950701971367     0.953832132117
    H            2.718856430262    -0.243498918515    -3.411813160863
    H            3.258515234259    -2.892216872138    -0.283022189818
    H            3.807698800796    -1.995493285874    -2.350647382681
    H           -4.217177377153     1.871533547897     1.687266953682

	Cleaning optimization helper files.

*** Psi4 exiting successfully. Buy a developer a beer!
