
    -----------------------------------------------------------------------
          Psi4: An Open-Source Ab Initio Electronic Structure Package
                               Psi4 1.1 release

                         Git: Rev {HEAD} add49b9 


    R. M. Parrish, L. A. Burns, D. G. A. Smith, A. C. Simmonett,
    A. E. DePrince III, E. G. Hohenstein, U. Bozkaya, A. Yu. Sokolov,
    R. Di Remigio, R. M. Richard, J. F. Gonthier, A. M. James,
    H. R. McAlexander, A. Kumar, M. Saitow, X. Wang, B. P. Pritchard,
    P. Verma, H. F. Schaefer III, K. Patkowski, R. A. King, E. F. Valeev,
    F. A. Evangelista, J. M. Turney, T. D. Crawford, and C. D. Sherrill,
    J. Chem. Theory Comput. in press (2017).
    (doi: 10.1021/acs.jctc.7b00174)

    -----------------------------------------------------------------------


    Psi4 started on: Sunday, 12 November 2017 01:00AM

    Process ID:  31557
    PSIDATADIR: /cbio/jclab/home/chayas/anaconda/envs/py35/share/psi4
    Memory:     500.0 MiB
    Threads:    8
    
  ==> Input File <==

--------------------------------------------------------------------------

memory 5 Gb

molecule phepyrFOH_zwitterion {
  symmetry C1
  0 1 
  C      1.885   -1.036   -0.112
  C      0.807   -0.463   0.561
  C      5.074   -2.819   0.619
  C      4.078   -2.201   -1.486
  C      1.800   -1.079   2.676
  C      6.133   -3.379   -0.082
  C      5.162   -2.777   -2.133
  C      2.921   -1.631   0.608
  C      4.038   -2.224   -0.095
  C      0.764   -0.484   1.955
  C      2.878   -1.652   2.002
  N      6.146   -3.343   -1.421
  O      -0.227   0.043   2.574
  F      3.866   -2.220   2.709
  H      1.904   -1.013   -1.200
  H      0.011   -0.007   -0.025
  H      5.069   -2.852   1.704
  H      3.284   -1.743   -2.068
  H      1.791   -1.109   3.764
  H      6.978   -3.862   0.389
  H      5.277   -2.805   -3.208
  H      6.934   -3.759   -1.916
  units Angstrom
}

dih_string = "1 8 9 3 180.001"
set optking fixed_dihedral = $dih_string

optimize('MP2/aug-cc-PVTZ')
--------------------------------------------------------------------------

  Memory set to   4.657 GiB by Python driver.
gradient() will perform analytic gradient computation.

*** tstart() called on gpu-1-4.local
*** at Sun Nov 12 01:00:05 2017

    SCF Algorithm Type (re)set to DF.

*** tstart() called on gpu-1-4.local
*** at Sun Nov 12 01:00:05 2017

   => Loading Basis Set <=

    Name: AUG-CC-PVTZ
    Role: ORBITAL
    Keyword: BASIS
    atoms 1-11  entry C          line   221 file /cbio/jclab/home/chayas/anaconda/envs/py35/share/psi4/basis/aug-cc-pvtz.gbs 
    atoms 12    entry N          line   267 file /cbio/jclab/home/chayas/anaconda/envs/py35/share/psi4/basis/aug-cc-pvtz.gbs 
    atoms 13    entry O          line   313 file /cbio/jclab/home/chayas/anaconda/envs/py35/share/psi4/basis/aug-cc-pvtz.gbs 
    atoms 14    entry F          line   359 file /cbio/jclab/home/chayas/anaconda/envs/py35/share/psi4/basis/aug-cc-pvtz.gbs 
    atoms 15-22 entry H          line    34 file /cbio/jclab/home/chayas/anaconda/envs/py35/share/psi4/basis/aug-cc-pvtz.gbs 


         ---------------------------------------------------------
                                   SCF
            by Justin Turney, Rob Parrish, and Andy Simmonett
                              RHF Reference
                        8 Threads,   4768 MiB Core
         ---------------------------------------------------------

  ==> Geometry <==

    Molecular point group: c1
    Full point group: C1

    Geometry (in Angstrom), charge = 0, multiplicity = 1:

       Center              X                  Y                   Z               Mass       
    ------------   -----------------  -----------------  -----------------  -----------------
           C         -1.361882805449     0.775736885472    -0.769547059453    12.000000000000
           C         -2.439882805449     1.348736885472    -0.096547059453    12.000000000000
           C          1.827117194551    -1.007263114528    -0.038547059453    12.000000000000
           C          0.831117194551    -0.389263114528    -2.143547059453    12.000000000000
           C         -1.446882805449     0.732736885472     2.018452940547    12.000000000000
           C          2.886117194551    -1.567263114528    -0.739547059453    12.000000000000
           C          1.915117194551    -0.965263114528    -2.790547059453    12.000000000000
           C         -0.325882805449     0.180736885472    -0.049547059453    12.000000000000
           C          0.791117194551    -0.412263114528    -0.752547059453    12.000000000000
           C         -2.482882805449     1.327736885472     1.297452940547    12.000000000000
           C         -0.368882805449     0.159736885472     1.344452940547    12.000000000000
           N          2.899117194551    -1.531263114528    -2.078547059453    14.003074004780
           O         -3.473882805449     1.854736885472     1.916452940547    15.994914619560
           F          0.619117194551    -0.408263114528     2.051452940547    18.998403224000
           H         -1.342882805449     0.798736885472    -1.857547059453     1.007825032070
           H         -3.235882805449     1.804736885472    -0.682547059453     1.007825032070
           H          1.822117194551    -1.040263114528     1.046452940547     1.007825032070
           H          0.037117194551     0.068736885472    -2.725547059453     1.007825032070
           H         -1.455882805449     0.702736885472     3.106452940547     1.007825032070
           H          3.731117194551    -2.050263114528    -0.268547059453     1.007825032070
           H          2.030117194551    -0.993263114528    -3.865547059453     1.007825032070
           H          3.687117194551    -1.947263114528    -2.573547059453     1.007825032070

  Running in c1 symmetry.

  Rotational constants: A =      0.06298  B =      0.01384  C =      0.01134 [cm^-1]
  Rotational constants: A =   1887.96292  B =    414.76567  C =    340.05842 [MHz]
  Nuclear repulsion =  821.129753051044531

  Charge       = 0
  Multiplicity = 1
  Electrons    = 98
  Nalpha       = 49
  Nbeta        = 49

  ==> Algorithm <==

  SCF Algorithm Type is DF.
  DIIS enabled.
  MOM disabled.
  Fractional occupation disabled.
  Guess Type is SAD.
  Energy threshold   = 1.00e-10
  Density threshold  = 1.00e-10
  Integral threshold = 0.00e+00

  ==> Primary Basis <==

  Basis Set: AUG-CC-PVTZ
    Blend: AUG-CC-PVTZ
    Number of shells: 268
    Number of basis function: 828
    Number of Cartesian functions: 970
    Spherical Harmonics?: true
    Max angular momentum: 3

   => Loading Basis Set <=

    Name: (AUG-CC-PVTZ AUX)
    Role: JKFIT
    Keyword: DF_BASIS_SCF
    atoms 1-11  entry C          line   161 file /cbio/jclab/home/chayas/anaconda/envs/py35/share/psi4/basis/aug-cc-pvtz-jkfit.gbs 
    atoms 12    entry N          line   223 file /cbio/jclab/home/chayas/anaconda/envs/py35/share/psi4/basis/aug-cc-pvtz-jkfit.gbs 
    atoms 13    entry O          line   285 file /cbio/jclab/home/chayas/anaconda/envs/py35/share/psi4/basis/aug-cc-pvtz-jkfit.gbs 
    atoms 14    entry F          line   347 file /cbio/jclab/home/chayas/anaconda/envs/py35/share/psi4/basis/aug-cc-pvtz-jkfit.gbs 
    atoms 15-22 entry H          line    69 file /cbio/jclab/home/chayas/anaconda/envs/py35/share/psi4/basis/aug-cc-pvtz-jkfit.gbs 

  ==> Pre-Iterations <==

   -------------------------------------------------------
    Irrep   Nso     Nmo     Nalpha   Nbeta   Ndocc  Nsocc
   -------------------------------------------------------
     A        828     828       0       0       0       0
   -------------------------------------------------------
    Total     828     828      49      49      49       0
   -------------------------------------------------------

  ==> Integral Setup <==

  ==> DFJK: Density-Fitted J/K Matrices <==

    J tasked:                  Yes
    K tasked:                  Yes
    wK tasked:                  No
    OpenMP threads:              8
    Integrals threads:           8
    Memory (MB):              3576
    Algorithm:                Disk
    Integral Cache:           NONE
    Schwarz Cutoff:          1E-12
    Fitting Condition:       1E-12

   => Auxiliary Basis Set <=

  Basis Set: (AUG-CC-PVTZ AUX)
    Blend: AUG-CC-PVTZ-JKFIT
    Number of shells: 532
    Number of basis function: 1824
    Number of Cartesian functions: 2274
    Spherical Harmonics?: true
    Max angular momentum: 4

  Minimum eigenvalue in the overlap matrix is 3.1661891841E-07.
  Using Symmetric Orthogonalization.

  SCF Guess: Superposition of Atomic Densities via on-the-fly atomic UHF.

  ==> Iterations <==

                           Total Energy        Delta E     RMS |[F,P]|

   @DF-RHF iter   0:  -656.05657888840790   -6.56057e+02   1.68820e-02 
   @DF-RHF iter   1:  -649.63206036584518    6.42452e+00   2.37664e-03 
   @DF-RHF iter   2:  -649.94039387449618   -3.08334e-01   1.78166e-03 DIIS
   @DF-RHF iter   3:  -650.07157199695621   -1.31178e-01   4.67550e-04 DIIS
   @DF-RHF iter   4:  -650.09599684564444   -2.44248e-02   1.00977e-04 DIIS
   @DF-RHF iter   5:  -650.09839991963452   -2.40307e-03   5.67823e-05 DIIS
   @DF-RHF iter   6:  -650.09903157540862   -6.31656e-04   2.19461e-05 DIIS
   @DF-RHF iter   7:  -650.09920046284014   -1.68887e-04   1.26512e-05 DIIS
   @DF-RHF iter   8:  -650.09922948761118   -2.90248e-05   5.02718e-06 DIIS
   @DF-RHF iter   9:  -650.09923724042108   -7.75281e-06   2.62137e-06 DIIS
   @DF-RHF iter  10:  -650.09923901103093   -1.77061e-06   1.16031e-06 DIIS
   @DF-RHF iter  11:  -650.09923936408029   -3.53049e-07   3.43208e-07 DIIS
   @DF-RHF iter  12:  -650.09923940770477   -4.36245e-08   1.54606e-07 DIIS
   @DF-RHF iter  13:  -650.09923941630871   -8.60393e-09   5.78738e-08 DIIS
   @DF-RHF iter  14:  -650.09923941763509   -1.32638e-09   2.64238e-08 DIIS
   @DF-RHF iter  15:  -650.09923941786496   -2.29875e-10   7.66403e-09 DIIS
   @DF-RHF iter  16:  -650.09923941790612   -4.11546e-11   2.65479e-09 DIIS
   @DF-RHF iter  17:  -650.09923941791203   -5.91172e-12   1.08722e-09 DIIS
   @DF-RHF iter  18:  -650.09923941790453    7.50333e-12   6.49552e-10 DIIS
   @DF-RHF iter  19:  -650.09923941790760   -3.06954e-12   2.09114e-10 DIIS
   @DF-RHF iter  20:  -650.09923941790225    5.34328e-12   1.34506e-10 DIIS
   @DF-RHF iter  21:  -650.09923941791862   -1.63709e-11   5.61666e-11 DIIS

  ==> Post-Iterations <==

    Orbital Energies (a.u.)
    -----------------------

    Doubly Occupied:                                                      

       1A    -26.322624     2A    -20.442697     3A    -15.693931  
       4A    -11.354735     5A    -11.349129     6A    -11.328249  
       7A    -11.308360     8A    -11.283676     9A    -11.269956  
      10A    -11.258953    11A    -11.241119    12A    -11.228120  
      13A    -11.198663    14A    -11.197444    15A     -1.648747  
      16A     -1.379342    17A     -1.266878    18A     -1.182573  
      19A     -1.118853    20A     -1.105682    21A     -1.008434  
      22A     -1.000674    23A     -0.939900    24A     -0.908289  
      25A     -0.843339    26A     -0.834566    27A     -0.815594  
      28A     -0.753901    29A     -0.728752    30A     -0.727234  
      31A     -0.710558    32A     -0.689397    33A     -0.682568  
      34A     -0.649874    35A     -0.647760    36A     -0.620725  
      37A     -0.612176    38A     -0.591693    39A     -0.559949  
      40A     -0.539827    41A     -0.526672    42A     -0.506961  
      43A     -0.486118    44A     -0.475620    45A     -0.414281  
      46A     -0.395489    47A     -0.355206    48A     -0.331553  
      49A     -0.245562  

    Virtual:                                                              

      50A     -0.006687    51A      0.012394    52A      0.023244  
      53A      0.025165    54A      0.038928    55A      0.044255  
      56A      0.047718    57A      0.058604    58A      0.059469  
      59A      0.062328    60A      0.069995    61A      0.071563  
      62A      0.080729    63A      0.083252    64A      0.086340  
      65A      0.087264    66A      0.096763    67A      0.105738  
      68A      0.107594    69A      0.111144    70A      0.120251  
      71A      0.122012    72A      0.123954    73A      0.129623  
      74A      0.132555    75A      0.139618    76A      0.140443  
      77A      0.145679    78A      0.146820    79A      0.148366  
      80A      0.155083    81A      0.159182    82A      0.160539  
      83A      0.168680    84A      0.169393    85A      0.176026  
      86A      0.180704    87A      0.183331    88A      0.187516  
      89A      0.191490    90A      0.193904    91A      0.199303  
      92A      0.200690    93A      0.202822    94A      0.211939  
      95A      0.213349    96A      0.218981    97A      0.229993  
      98A      0.234957    99A      0.237085   100A      0.243711  
     101A      0.248849   102A      0.249209   103A      0.254361  
     104A      0.260630   105A      0.261950   106A      0.265444  
     107A      0.266578   108A      0.270505   109A      0.272403  
     110A      0.275411   111A      0.283957   112A      0.290874  
     113A      0.292980   114A      0.296603   115A      0.301090  
     116A      0.306294   117A      0.310887   118A      0.313513  
     119A      0.315117   120A      0.317245   121A      0.333796  
     122A      0.339660   123A      0.341415   124A      0.345212  
     125A      0.350043   126A      0.353784   127A      0.356521  
     128A      0.363571   129A      0.365185   130A      0.368412  
     131A      0.368493   132A      0.376800   133A      0.381292  
     134A      0.383096   135A      0.390980   136A      0.396521  
     137A      0.400912   138A      0.403063   139A      0.403698  
     140A      0.414163   141A      0.421189   142A      0.423789  
     143A      0.428199   144A      0.432150   145A      0.436020  
     146A      0.439703   147A      0.443022   148A      0.448935  
     149A      0.449933   150A      0.455415   151A      0.456584  
     152A      0.461503   153A      0.462272   154A      0.466756  
     155A      0.467356   156A      0.468216   157A      0.469748  
     158A      0.473780   159A      0.477453   160A      0.483575  
     161A      0.490639   162A      0.492293   163A      0.496768  
     164A      0.501195   165A      0.506482   166A      0.509178  
     167A      0.519880   168A      0.522337   169A      0.526530  
     170A      0.529489   171A      0.530543   172A      0.538048  
     173A      0.540037   174A      0.544116   175A      0.553187  
     176A      0.554160   177A      0.558451   178A      0.561410  
     179A      0.564340   180A      0.572634   181A      0.583507  
     182A      0.585842   183A      0.590759   184A      0.595609  
     185A      0.608681   186A      0.611647   187A      0.622343  
     188A      0.624163   189A      0.629605   190A      0.638476  
     191A      0.639570   192A      0.645169   193A      0.646392  
     194A      0.654042   195A      0.664699   196A      0.675672  
     197A      0.678383   198A      0.679418   199A      0.686875  
     200A      0.689144   201A      0.697025   202A      0.699305  
     203A      0.709133   204A      0.714905   205A      0.715898  
     206A      0.722644   207A      0.726287   208A      0.733463  
     209A      0.737847   210A      0.749724   211A      0.752291  
     212A      0.753105   213A      0.762141   214A      0.768282  
     215A      0.769239   216A      0.780874   217A      0.787530  
     218A      0.791761   219A      0.800222   220A      0.808775  
     221A      0.817842   222A      0.818823   223A      0.824592  
     224A      0.833248   225A      0.835360   226A      0.845068  
     227A      0.851240   228A      0.852267   229A      0.856900  
     230A      0.858377   231A      0.864813   232A      0.867235  
     233A      0.871281   234A      0.877632   235A      0.883852  
     236A      0.892461   237A      0.898892   238A      0.908374  
     239A      0.908862   240A      0.912846   241A      0.919158  
     242A      0.925297   243A      0.926533   244A      0.930364  
     245A      0.930842   246A      0.934781   247A      0.943258  
     248A      0.944919   249A      0.945556   250A      0.948335  
     251A      0.954264   252A      0.954497   253A      0.958251  
     254A      0.963316   255A      0.965466   256A      0.973258  
     257A      0.985680   258A      0.987886   259A      0.989105  
     260A      0.994109   261A      1.003529   262A      1.010471  
     263A      1.013065   264A      1.019012   265A      1.019871  
     266A      1.021146   267A      1.030416   268A      1.033107  
     269A      1.039950   270A      1.040652   271A      1.042720  
     272A      1.049005   273A      1.056165   274A      1.057295  
     275A      1.065953   276A      1.072235   277A      1.076342  
     278A      1.081484   279A      1.084430   280A      1.088126  
     281A      1.094485   282A      1.106024   283A      1.107303  
     284A      1.111129   285A      1.117454   286A      1.121304  
     287A      1.132640   288A      1.135189   289A      1.139161  
     290A      1.143325   291A      1.151287   292A      1.160765  
     293A      1.165314   294A      1.170565   295A      1.175186  
     296A      1.183951   297A      1.187619   298A      1.189207  
     299A      1.191594   300A      1.203543   301A      1.203676  
     302A      1.205722   303A      1.217589   304A      1.221594  
     305A      1.227971   306A      1.229693   307A      1.232107  
     308A      1.234822   309A      1.237624   310A      1.247564  
     311A      1.255644   312A      1.265945   313A      1.276066  
     314A      1.276556   315A      1.280321   316A      1.281124  
     317A      1.285174   318A      1.297931   319A      1.305349  
     320A      1.305830   321A      1.309751   322A      1.315920  
     323A      1.325378   324A      1.330173   325A      1.333996  
     326A      1.335524   327A      1.343988   328A      1.349351  
     329A      1.356894   330A      1.360879   331A      1.367766  
     332A      1.373149   333A      1.378912   334A      1.397427  
     335A      1.410370   336A      1.412525   337A      1.426187  
     338A      1.431523   339A      1.432523   340A      1.435848  
     341A      1.450121   342A      1.450918   343A      1.460222  
     344A      1.464269   345A      1.480498   346A      1.481934  
     347A      1.489478   348A      1.490793   349A      1.492475  
     350A      1.499033   351A      1.510925   352A      1.524249  
     353A      1.530509   354A      1.532989   355A      1.544798  
     356A      1.561672   357A      1.564103   358A      1.583574  
     359A      1.589600   360A      1.602970   361A      1.604728  
     362A      1.608355   363A      1.626497   364A      1.630599  
     365A      1.632751   366A      1.641385   367A      1.645702  
     368A      1.650369   369A      1.655811   370A      1.673911  
     371A      1.675840   372A      1.685328   373A      1.689454  
     374A      1.696461   375A      1.702664   376A      1.704340  
     377A      1.712968   378A      1.729996   379A      1.741152  
     380A      1.745425   381A      1.754785   382A      1.766012  
     383A      1.766889   384A      1.784214   385A      1.786644  
     386A      1.796716   387A      1.809614   388A      1.813869  
     389A      1.818065   390A      1.827385   391A      1.844619  
     392A      1.849320   393A      1.851242   394A      1.856519  
     395A      1.863561   396A      1.874925   397A      1.881418  
     398A      1.883595   399A      1.887923   400A      1.913557  
     401A      1.928538   402A      1.937017   403A      1.944979  
     404A      1.945178   405A      1.960141   406A      1.962894  
     407A      1.975280   408A      1.981033   409A      1.987291  
     410A      1.993813   411A      1.994949   412A      2.004130  
     413A      2.009150   414A      2.020411   415A      2.021033  
     416A      2.023626   417A      2.031577   418A      2.037704  
     419A      2.043233   420A      2.051282   421A      2.061826  
     422A      2.075770   423A      2.076643   424A      2.079287  
     425A      2.102140   426A      2.113999   427A      2.114675  
     428A      2.129091   429A      2.133930   430A      2.151275  
     431A      2.157409   432A      2.159565   433A      2.169243  
     434A      2.177765   435A      2.184064   436A      2.187682  
     437A      2.201401   438A      2.203747   439A      2.210058  
     440A      2.210650   441A      2.216817   442A      2.223241  
     443A      2.242428   444A      2.250891   445A      2.256931  
     446A      2.268566   447A      2.291682   448A      2.307109  
     449A      2.318733   450A      2.326863   451A      2.330171  
     452A      2.337731   453A      2.341710   454A      2.342920  
     455A      2.357619   456A      2.379186   457A      2.388858  
     458A      2.391537   459A      2.395006   460A      2.409144  
     461A      2.422965   462A      2.425099   463A      2.436461  
     464A      2.457147   465A      2.470723   466A      2.477300  
     467A      2.483010   468A      2.486802   469A      2.493714  
     470A      2.494240   471A      2.521640   472A      2.527292  
     473A      2.536524   474A      2.545497   475A      2.550890  
     476A      2.570307   477A      2.588042   478A      2.592306  
     479A      2.616047   480A      2.619324   481A      2.636032  
     482A      2.640333   483A      2.656211   484A      2.657797  
     485A      2.690913   486A      2.696734   487A      2.719308  
     488A      2.727368   489A      2.736470   490A      2.743030  
     491A      2.756834   492A      2.780743   493A      2.781598  
     494A      2.800460   495A      2.831458   496A      2.834590  
     497A      2.842733   498A      2.873258   499A      2.900628  
     500A      2.922047   501A      2.929241   502A      2.936530  
     503A      2.978120   504A      2.988060   505A      3.006916  
     506A      3.028640   507A      3.057593   508A      3.058422  
     509A      3.086606   510A      3.089971   511A      3.100798  
     512A      3.117421   513A      3.140036   514A      3.145755  
     515A      3.152926   516A      3.162823   517A      3.178312  
     518A      3.183823   519A      3.193173   520A      3.201300  
     521A      3.236492   522A      3.237611   523A      3.239458  
     524A      3.258791   525A      3.286754   526A      3.306015  
     527A      3.320643   528A      3.326559   529A      3.332426  
     530A      3.341482   531A      3.351934   532A      3.352299  
     533A      3.370800   534A      3.373136   535A      3.392895  
     536A      3.399598   537A      3.409502   538A      3.426562  
     539A      3.428484   540A      3.429818   541A      3.440102  
     542A      3.446130   543A      3.449812   544A      3.469302  
     545A      3.480804   546A      3.489464   547A      3.496828  
     548A      3.516105   549A      3.525535   550A      3.526173  
     551A      3.537685   552A      3.540135   553A      3.558877  
     554A      3.564100   555A      3.567133   556A      3.580193  
     557A      3.595225   558A      3.612644   559A      3.614355  
     560A      3.629005   561A      3.632854   562A      3.640750  
     563A      3.655840   564A      3.666879   565A      3.670223  
     566A      3.676717   567A      3.684304   568A      3.686984  
     569A      3.705506   570A      3.710005   571A      3.713885  
     572A      3.721162   573A      3.727939   574A      3.734954  
     575A      3.754200   576A      3.754582   577A      3.764888  
     578A      3.781639   579A      3.785799   580A      3.792401  
     581A      3.803594   582A      3.810451   583A      3.829056  
     584A      3.830830   585A      3.835304   586A      3.840858  
     587A      3.856858   588A      3.858430   589A      3.868273  
     590A      3.880165   591A      3.899584   592A      3.904546  
     593A      3.908089   594A      3.918970   595A      3.932585  
     596A      3.944378   597A      3.948618   598A      3.959925  
     599A      3.968157   600A      3.973257   601A      3.977523  
     602A      3.983198   603A      3.986583   604A      3.989758  
     605A      4.007875   606A      4.008685   607A      4.009492  
     608A      4.034050   609A      4.040293   610A      4.050134  
     611A      4.066086   612A      4.078963   613A      4.083288  
     614A      4.098392   615A      4.114890   616A      4.125588  
     617A      4.139932   618A      4.144122   619A      4.145733  
     620A      4.154787   621A      4.164488   622A      4.185139  
     623A      4.190297   624A      4.200911   625A      4.201739  
     626A      4.219516   627A      4.222649   628A      4.223877  
     629A      4.242167   630A      4.242417   631A      4.258217  
     632A      4.269741   633A      4.285931   634A      4.287316  
     635A      4.290888   636A      4.307604   637A      4.308435  
     638A      4.313553   639A      4.314295   640A      4.333948  
     641A      4.336649   642A      4.337008   643A      4.348293  
     644A      4.355325   645A      4.361107   646A      4.383355  
     647A      4.390437   648A      4.394633   649A      4.402240  
     650A      4.410931   651A      4.412154   652A      4.416489  
     653A      4.435621   654A      4.439708   655A      4.452257  
     656A      4.481460   657A      4.485101   658A      4.505388  
     659A      4.514512   660A      4.515825   661A      4.518268  
     662A      4.529611   663A      4.555984   664A      4.583712  
     665A      4.587952   666A      4.596515   667A      4.599666  
     668A      4.609330   669A      4.625645   670A      4.632637  
     671A      4.642806   672A      4.649207   673A      4.663759  
     674A      4.670385   675A      4.678488   676A      4.709086  
     677A      4.711536   678A      4.722298   679A      4.729376  
     680A      4.741734   681A      4.760411   682A      4.774687  
     683A      4.793155   684A      4.800133   685A      4.806016  
     686A      4.813622   687A      4.824515   688A      4.860164  
     689A      4.871091   690A      4.888795   691A      4.897215  
     692A      4.903642   693A      4.906423   694A      4.913367  
     695A      4.926763   696A      4.939744   697A      4.979342  
     698A      4.992066   699A      4.997931   700A      5.005833  
     701A      5.029667   702A      5.029900   703A      5.043504  
     704A      5.074834   705A      5.079481   706A      5.089205  
     707A      5.106378   708A      5.106727   709A      5.124864  
     710A      5.126833   711A      5.146284   712A      5.150164  
     713A      5.152721   714A      5.174123   715A      5.175750  
     716A      5.188244   717A      5.192236   718A      5.223496  
     719A      5.239803   720A      5.249091   721A      5.275297  
     722A      5.280742   723A      5.309884   724A      5.337820  
     725A      5.347639   726A      5.357634   727A      5.391046  
     728A      5.400791   729A      5.421582   730A      5.422437  
     731A      5.456292   732A      5.468970   733A      5.512819  
     734A      5.541532   735A      5.546022   736A      5.569135  
     737A      5.584200   738A      5.600330   739A      5.612547  
     740A      5.621337   741A      5.638851   742A      5.660404  
     743A      5.706801   744A      5.729668   745A      5.743228  
     746A      5.752122   747A      5.788799   748A      5.794844  
     749A      5.824037   750A      5.825126   751A      5.830435  
     752A      5.861026   753A      5.920147   754A      5.934320  
     755A      5.966806   756A      5.971363   757A      6.010949  
     758A      6.017565   759A      6.093154   760A      6.120850  
     761A      6.161197   762A      6.207184   763A      6.248837  
     764A      6.258448   765A      6.265938   766A      6.321491  
     767A      6.342876   768A      6.427483   769A      6.462111  
     770A      6.481739   771A      6.510183   772A      6.551058  
     773A      6.610288   774A      6.645032   775A      6.656927  
     776A      6.690070   777A      6.716206   778A      6.761345  
     779A      6.776708   780A      6.799595   781A      6.846745  
     782A      6.867708   783A      6.906131   784A      6.945954  
     785A      6.969351   786A      6.981544   787A      7.050472  
     788A      7.093065   789A      7.122804   790A      7.177164  
     791A      7.215176   792A      7.231963   793A      7.478729  
     794A      7.503474   795A      7.527312   796A      7.607297  
     797A      7.692179   798A      7.785507   799A      7.812618  
     800A      7.894814   801A      8.022967   802A      8.092177  
     803A      9.096983   804A      9.246720   805A      9.295950  
     806A      9.414127   807A      9.434684   808A      9.533922  
     809A      9.641629   810A      9.658324   811A      9.715862  
     812A      9.740450   813A     10.142601   814A     10.183228  
     815A     15.940566   816A     16.182456   817A     16.374794  
     818A     17.056113   819A     17.409970   820A     17.706105  
     821A     18.976927   822A     19.820768   823A     20.174400  
     824A     20.342768   825A     20.935035   826A     21.035978  
     827A     21.312740   828A     21.329497  

    Final Occupation by Irrep:
              A 
    DOCC [    49 ]

  Energy converged.

  @DF-RHF Final Energy:  -650.09923941791862

   => Energetics <=

    Nuclear Repulsion Energy =            821.1297530510445313
    One-Electron Energy =               -2516.8931822494350854
    Two-Electron Energy =                1045.6641897804718155
    DFT Exchange-Correlation Energy =       0.0000000000000000
    Empirical Dispersion Energy =           0.0000000000000000
    PCM Polarization Energy =               0.0000000000000000
    EFP Energy =                            0.0000000000000000
    Total Energy =                       -650.0992394179186249



Properties will be evaluated at   0.000000,   0.000000,   0.000000 Bohr

Properties computed using the SCF density matrix

  Nuclear Dipole Moment: (a.u.)
     X:     4.3341      Y:    -2.0915      Z:    -9.2514

  Electronic Dipole Moment: (a.u.)
     X:     0.8829      Y:    -0.6624      Z:     5.4540

  Dipole Moment: (a.u.)
     X:     5.2169      Y:    -2.7540      Z:    -3.7973     Total:     7.0157

  Dipole Moment: (Debye)
     X:    13.2601      Y:    -6.9999      Z:    -9.6519     Total:    17.8322


*** tstop() called on gpu-1-4.local at Sun Nov 12 01:11:59 2017
Module time:
	user time   =    1453.72 seconds =      24.23 minutes
	system time =      58.43 seconds =       0.97 minutes
	total time  =        714 seconds =      11.90 minutes
Total time:
	user time   =    1453.73 seconds =      24.23 minutes
	system time =      58.43 seconds =       0.97 minutes
	total time  =        714 seconds =      11.90 minutes

  //>>>>>>>>>>>>>>>>>>>>>>>>>>>>>>>>>>>//
  //               DFMP2               //
  //<<<<<<<<<<<<<<<<<<<<<<<<<<<<<<<<<<<//

   => Loading Basis Set <=

    Name: (AUG-CC-PVTZ AUX)
    Role: RIFIT
    Keyword: DF_BASIS_MP2
    atoms 1-11  entry C          line   147 file /cbio/jclab/home/chayas/anaconda/envs/py35/share/psi4/basis/aug-cc-pvtz-ri.gbs 
    atoms 12    entry N          line   205 file /cbio/jclab/home/chayas/anaconda/envs/py35/share/psi4/basis/aug-cc-pvtz-ri.gbs 
    atoms 13    entry O          line   263 file /cbio/jclab/home/chayas/anaconda/envs/py35/share/psi4/basis/aug-cc-pvtz-ri.gbs 
    atoms 14    entry F          line   321 file /cbio/jclab/home/chayas/anaconda/envs/py35/share/psi4/basis/aug-cc-pvtz-ri.gbs 
    atoms 15-22 entry H          line    29 file /cbio/jclab/home/chayas/anaconda/envs/py35/share/psi4/basis/aug-cc-pvtz-ri.gbs 

	 --------------------------------------------------------
	                          DF-MP2                         
	      2nd-Order Density-Fitted Moller-Plesset Theory     
	              RMP2 Wavefunction,   8 Threads             
	                                                         
	        Rob Parrish, Justin Turney, Andy Simmonett,      
	           Ed Hohenstein, and C. David Sherrill          
	 --------------------------------------------------------

   => Auxiliary Basis Set <=

  Basis Set: (AUG-CC-PVTZ AUX)
    Blend: AUG-CC-PVTZ-RI
    Number of shells: 504
    Number of basis function: 1852
    Number of Cartesian functions: 2344
    Spherical Harmonics?: true
    Max angular momentum: 4

	 --------------------------------------------------------
	                 NBF =   828, NAUX =  1852
	 --------------------------------------------------------
	   CLASS    FOCC     OCC    AOCC    AVIR     VIR    FVIR
	   PAIRS       0      49      49     779     779       0
	 --------------------------------------------------------


         ------------------------------------------------------------
                                     CPHF                           
                                  Rob Parrish                       
         ------------------------------------------------------------

  ==> Geometry <==

    Molecular point group: c1
    Full point group: C1

    Geometry (in Angstrom), charge = 0, multiplicity = 1:

       Center              X                  Y                   Z               Mass       
    ------------   -----------------  -----------------  -----------------  -----------------
           C         -1.361882805449     0.775736885472    -0.769547059453    12.000000000000
           C         -2.439882805449     1.348736885472    -0.096547059453    12.000000000000
           C          1.827117194551    -1.007263114528    -0.038547059453    12.000000000000
           C          0.831117194551    -0.389263114528    -2.143547059453    12.000000000000
           C         -1.446882805449     0.732736885472     2.018452940547    12.000000000000
           C          2.886117194551    -1.567263114528    -0.739547059453    12.000000000000
           C          1.915117194551    -0.965263114528    -2.790547059453    12.000000000000
           C         -0.325882805449     0.180736885472    -0.049547059453    12.000000000000
           C          0.791117194551    -0.412263114528    -0.752547059453    12.000000000000
           C         -2.482882805449     1.327736885472     1.297452940547    12.000000000000
           C         -0.368882805449     0.159736885472     1.344452940547    12.000000000000
           N          2.899117194551    -1.531263114528    -2.078547059453    14.003074004780
           O         -3.473882805449     1.854736885472     1.916452940547    15.994914619560
           F          0.619117194551    -0.408263114528     2.051452940547    18.998403224000
           H         -1.342882805449     0.798736885472    -1.857547059453     1.007825032070
           H         -3.235882805449     1.804736885472    -0.682547059453     1.007825032070
           H          1.822117194551    -1.040263114528     1.046452940547     1.007825032070
           H          0.037117194551     0.068736885472    -2.725547059453     1.007825032070
           H         -1.455882805449     0.702736885472     3.106452940547     1.007825032070
           H          3.731117194551    -2.050263114528    -0.268547059453     1.007825032070
           H          2.030117194551    -0.993263114528    -3.865547059453     1.007825032070
           H          3.687117194551    -1.947263114528    -2.573547059453     1.007825032070

  Nuclear repulsion =  821.129753051044531
  Reference energy  = -650.099239417918625

  ==> Basis Set <==

  Basis Set: AUG-CC-PVTZ
    Blend: AUG-CC-PVTZ
    Number of shells: 268
    Number of basis function: 828
    Number of Cartesian functions: 970
    Spherical Harmonics?: true
    Max angular momentum: 3

  ==> CGRSolver (by Rob Parrish) <==

   Number of roots    =         1
   Preconditioning    =    JACOBI
   Convergence cutoff =     1E-06
   Maximum iterations =       100

  ==> CPHFRHamiltonian (by Rob Parrish) <== 

  ==> DFJK: Density-Fitted J/K Matrices <==

    J tasked:                  Yes
    K tasked:                  Yes
    wK tasked:                  No
    OpenMP threads:              8
    Integrals threads:           8
    Memory (MB):              3576
    Algorithm:                Disk
    Integral Cache:           NONE
    Schwarz Cutoff:          1E-12
    Fitting Condition:       1E-12

   => Auxiliary Basis Set <=

  Basis Set: (AUG-CC-PVTZ AUX)
    Blend: AUG-CC-PVTZ-JKFIT
    Number of shells: 532
    Number of basis function: 1824
    Number of Cartesian functions: 2274
    Spherical Harmonics?: true
    Max angular momentum: 4

  ==> CPHF Iterations <==

  => Iterations <=

             Iter  Converged  Remaining    Residual
  CGR           1          0          1   1.526E-01
  CGR           2          0          1   5.923E-02
  CGR           3          0          1   2.974E-02
  CGR           4          0          1   9.212E-03
  CGR           5          0          1   3.101E-03
  CGR           6          0          1   1.266E-03
  CGR           7          0          1   5.602E-04
  CGR           8          0          1   2.058E-04
  CGR           9          0          1   1.004E-04
  CGR          10          0          1   4.549E-05
  CGR          11          0          1   1.877E-05
  CGR          12          0          1   5.214E-06
  CGR          13          0          1   2.327E-06
  CGR          14          1          0   8.604E-07

    CGRSolver converged.

  ==> DFCorrGrad: Density-Fitted Correlated Gradients <==

    OpenMP threads:              8
    Integrals threads:           8
    Memory (MB):              3576
    Schwarz Cutoff:          0E+00
    Fitting Condition:       1E-12

   => Auxiliary Basis Set <=

  Basis Set: (AUG-CC-PVTZ AUX)
    Blend: AUG-CC-PVTZ-JKFIT
    Number of shells: 532
    Number of basis function: 1824
    Number of Cartesian functions: 2274
    Spherical Harmonics?: true
    Max angular momentum: 4

	-----------------------------------------------------------
	 ==================> DF-MP2 Energies <==================== 
	-----------------------------------------------------------
	 Reference Energy          =    -650.0992394179186249 [Eh]
	 Singles Energy            =      -0.0000000000000001 [Eh]
	 Same-Spin Energy          =      -0.6802542891553351 [Eh]
	 Opposite-Spin Energy      =      -2.0302206977811195 [Eh]
	 Correlation Energy        =      -2.7104749869364548 [Eh]
	 Total Energy              =    -652.8097144048550717 [Eh]
	-----------------------------------------------------------
	 ================> DF-SCS-MP2 Energies <================== 
	-----------------------------------------------------------
	 SCS Same-Spin Scale       =       0.3333333333333333 [-]
	 SCS Opposite-Spin Scale   =       1.2000000000000000 [-]
	 SCS Same-Spin Energy      =      -0.2267514297184450 [Eh]
	 SCS Opposite-Spin Energy  =      -2.4362648373373434 [Eh]
	 SCS Correlation Energy    =      -2.6630162670557884 [Eh]
	 SCS Total Energy          =    -652.7622556849744342 [Eh]
	-----------------------------------------------------------


  -Total Gradient:
     Atom            X                  Y                   Z
    ------   -----------------  -----------------  -----------------
       1        0.039016956274    -0.021019442517    -0.009933145613
       2       -0.028563620628     0.014025194132     0.057510590453
       3       -0.048594676346     0.026325606542     0.010894911702
       4       -0.026988974945     0.013592662246     0.033002621098
       5       -0.058645592935     0.032470904620    -0.004556941269
       6        0.014835409948    -0.006943161159    -0.028493506359
       7        0.029752627111    -0.016453132693     0.003492886891
       8       -0.054194430814     0.028740840363     0.030352388741
       9        0.053622326924    -0.028275901721    -0.035134524751
      10        0.064520860060    -0.034301963468    -0.041430266966
      11        0.052844430151    -0.028397167819    -0.021922915328
      12       -0.021348478917     0.011111695521     0.014455273751
      13       -0.022976762836     0.012254990210     0.013674675537
      14        0.007436008163    -0.003433472788    -0.021136109830
      15        0.001782904082    -0.000762412595    -0.009506640980
      16       -0.002510073447     0.001572371473    -0.008846680785
      17       -0.007633622164     0.003572081438     0.019662262674
      18       -0.008913532365     0.005060854407    -0.001643651568
      19        0.003420472658    -0.002118982029     0.007295963542
      20        0.002776104001    -0.001624636013    -0.000344297674
      21        0.001813792492    -0.000924578050    -0.002520893412
      22        0.008547873512    -0.004472350103    -0.004871999867


*** tstop() called on gpu-1-4.local at Sun Nov 12 02:07:27 2017
Module time:
	user time   =    7275.52 seconds =     121.26 minutes
	system time =     125.60 seconds =       2.09 minutes
	total time  =       4042 seconds =      67.37 minutes
Total time:
	user time   =    7275.53 seconds =     121.26 minutes
	system time =     125.60 seconds =       2.09 minutes
	total time  =       4042 seconds =      67.37 minutes

			-----------------------------------------
			 OPTKING 2.0: for geometry optimizations 
			  - R.A. King,  Bethel University        
			-----------------------------------------

	Internal coordinates to be generated automatically.
	Detected frag 1 with atoms:  1 2 3 4 5 6 7 8 9 10 11 12 13 14 15 16 17 18 19 20
	 21 22
	---Fragment 1 Bond Connectivity---
	 1 : 2 8 15
	 2 : 1 10 16
	 3 : 6 9 17
	 4 : 7 9 18
	 5 : 10 11 19
	 6 : 3 12 20
	 7 : 4 12 21
	 8 : 1 9 11
	 9 : 3 4 8
	 10 : 2 5 13
	 11 : 5 8 14
	 12 : 6 7 22
	 13 : 10
	 14 : 11
	 15 : 1
	 16 : 2
	 17 : 3
	 18 : 4
	 19 : 5
	 20 : 6
	 21 : 7
	 22 : 12

	Assuming in current code that numbering for constraints corresponds to unified fragment.
	Fixed dihedral atom list: 
	     1     8     9     3
	---Fragment 1 Geometry and Gradient---
	 C          -2.5735855274        1.4659302647       -1.4542331887
	 C          -4.6107102986        2.5487433389       -0.1824475013
	 C           3.4527511104       -1.9034514302       -0.0728433856
	 C           1.5705838820       -0.7356006801       -4.0507168953
	 C          -2.7342122487        1.3846720410        3.8143232698
	 C           5.4539710851       -2.9616980646       -1.3975414047
	 C           3.6190470101       -1.8240829326       -5.2733697033
	 C          -0.6158292537        0.3415432157       -0.0936303731
	 C           1.4949948367       -0.7790643811       -1.4221078445
	 C          -4.6919685223        2.5090590901        2.4518307279
	 C          -0.6970874774        0.3018589669        2.5406478562
	 N           5.4785375248       -2.8936679238       -3.9278846967
	 O          -6.5646871200        3.5049447621        3.6215712042
	 F           1.1699619419       -0.7715054766        3.8766842321
	 H          -2.5376807309        1.5093939658       -3.5102552213
	 H          -6.1149323004        3.4104584555       -1.2898270152
	 H           3.4433024797       -1.9658123926        1.9775094686
	 H           0.0701413325        0.1298938888       -5.1505375047
	 H          -2.7512197839        1.3279802570        5.8703453023
	 H           7.0507896674       -3.8744357868       -0.5074803962
	 H           3.8363655154       -1.8769952644       -7.3048252961
	 H           6.9676417176       -3.6797939951       -4.8632991325
	             0.0390169563       -0.0210194425       -0.0099331456
	            -0.0285636206        0.0140251941        0.0575105905
	            -0.0485946763        0.0263256065        0.0108949117
	            -0.0269889749        0.0135926622        0.0330026211
	            -0.0586455929        0.0324709046       -0.0045569413
	             0.0148354099       -0.0069431612       -0.0284935064
	             0.0297526271       -0.0164531327        0.0034928869
	            -0.0541944308        0.0287408404        0.0303523887
	             0.0536223269       -0.0282759017       -0.0351345248
	             0.0645208601       -0.0343019635       -0.0414302670
	             0.0528444302       -0.0283971678       -0.0219229153
	            -0.0213484789        0.0111116955        0.0144552738
	            -0.0229767628        0.0122549902        0.0136746755
	             0.0074360082       -0.0034334728       -0.0211361098
	             0.0017829041       -0.0007624126       -0.0095066410
	            -0.0025100734        0.0015723715       -0.0088466808
	            -0.0076336222        0.0035720814        0.0196622627
	            -0.0089135324        0.0050608544       -0.0016436516
	             0.0034204727       -0.0021189820        0.0072959635
	             0.0027761040       -0.0016246360       -0.0003442977
	             0.0018137925       -0.0009245781       -0.0025208934
	             0.0085478735       -0.0044723501       -0.0048719999

	Previous optimization step data not found.  Starting new optimization.

	---Fragment 1 Intrafragment Coordinates---
	 - Coordinate -           - BOHR/RAD -       - ANG/DEG -
	 R(1,2)           =         2.634350	       1.394038
	 R(1,8)           =         2.635962	       1.394891
	 R(1,15)          =         2.056795	       1.088409
	 R(2,10)          =         2.635830	       1.394821
	 R(2,16)          =         2.057067	       1.088553
	 R(3,6)           =         2.622898	       1.387978
	 R(3,9)           =         2.630127	       1.391804
	 R(3,17)          =         2.051323	       1.085513
	 R(4,7)           =         2.622189	       1.387603
	 R(4,9)           =         2.630055	       1.391765
	 R(4,18)          =         2.051832	       1.085783
	 R(5,10)          =         2.636938	       1.395407
	 R(5,11)          =         2.635263	       1.394521
	 R(5,19)          =         2.056874	       1.088451
	 R(6,12)          =         2.531377	       1.339547
	 R(6,20)          =         2.043313	       1.081275
	 R(7,12)          =         2.532202	       1.339984
	 R(7,21)          =         2.043732	       1.081496
	 R(8,9)           =         2.734263	       1.446909
	 R(8,11)          =         2.635830	       1.394821
	 R(10,13)         =         2.422221	       1.281784
	 R(11,14)         =         2.534359	       1.341125
	 R(12,22)         =         1.926247	       1.019326
	 B(1,2,10)        =         2.094553	     120.009056
	 B(1,2,16)        =         2.068903	     118.539404
	 B(1,8,9)         =         2.091392	     119.827938
	 B(1,8,11)        =         2.093692	     119.959722
	 B(2,1,8)         =         2.094940	     120.031219
	 B(2,1,15)        =         2.079908	     119.169966
	 B(2,10,5)        =         2.094306	     119.994870
	 B(2,10,13)       =         2.094719	     120.018581
	 B(3,6,12)        =         2.096020	     120.093109
	 B(3,6,20)        =         2.160945	     123.813039
	 B(3,9,4)         =         2.092541	     119.893742
	 B(3,9,8)         =         2.095082	     120.039371
	 B(4,7,12)        =         2.095840	     120.082785
	 B(4,7,21)        =         2.161911	     123.868368
	 B(4,9,8)         =         2.095562	     120.066879
	 B(5,10,13)       =         2.094160	     119.986548
	 B(5,11,8)        =         2.095181	     120.045019
	 B(5,11,14)       =         2.081414	     119.256220
	 B(6,3,9)         =         2.072956	     118.771642
	 B(6,3,17)        =         2.089853	     119.739769
	 B(6,12,7)        =         2.135728	     122.368192
	 B(6,12,22)       =         2.073677	     118.812921
	 B(7,4,9)         =         2.073285	     118.790460
	 B(7,4,18)        =         2.090286	     119.764584
	 B(7,12,22)       =         2.073777	     118.818690
	 B(8,1,15)        =         2.108336	     120.798746
	 B(8,11,14)       =         2.106591	     120.698759
	 B(9,3,17)        =         2.120376	     121.488575
	 B(9,4,18)        =         2.119613	     121.444876
	 B(9,8,11)        =         2.098101	     120.212327
	 B(10,2,16)       =         2.119728	     121.451467
	 B(10,5,11)       =         2.093699	     119.960108
	 B(10,5,19)       =         2.120101	     121.472852
	 B(11,5,19)       =         2.069385	     118.567038
	 B(12,6,20)       =         2.026217	     116.093661
	 B(12,7,21)       =         2.025434	     116.048845
	 D(1,2,10,5)      =        -0.000325	      -0.018609
	 D(1,2,10,13)     =         3.141392	     179.988520
	 D(1,8,9,3)       =        -3.141450	    -179.991809
	 D(1,8,9,4)       =        -0.000409	      -0.023446
	 D(1,8,11,5)      =         0.000325	       0.018608
	 D(1,8,11,14)     =        -3.141528	    -179.996269
	 D(2,1,8,9)       =        -3.141211	    -179.978157
	 D(2,1,8,11)      =        -0.000348	      -0.019945
	 D(2,10,5,11)     =         0.000301	       0.017261
	 D(2,10,5,19)     =        -3.141543	    -179.997173
	 D(3,6,12,7)      =         0.001334	       0.076415
	 D(3,6,12,22)     =         3.140070	     179.912765
	 D(3,9,4,7)       =        -0.000999	      -0.057236
	 D(3,9,4,18)      =        -3.140781	    -179.953492
	 D(3,9,8,11)      =         0.000874	       0.050086
	 D(4,7,12,6)      =        -0.000997	      -0.057132
	 D(4,7,12,22)     =        -3.139733	    -179.893473
	 D(4,9,3,6)       =         0.001322	       0.075766
	 D(4,9,3,17)      =        -3.141028	    -179.967649
	 D(4,9,8,11)      =        -3.141271	    -179.981552
	 D(5,10,2,16)     =         3.139529	     179.881752
	 D(5,11,8,9)      =         3.141185	     179.976658
	 D(6,3,9,8)       =        -3.140821	    -179.955816
	 D(6,12,7,21)     =         3.140869	     179.958542
	 D(7,4,9,8)       =         3.141145	     179.974355
	 D(7,12,6,20)     =         3.140258	     179.923524
	 D(8,1,2,10)      =         0.000348	       0.019955
	 D(8,1,2,16)      =        -3.139556	    -179.883288
	 D(8,9,3,17)      =         0.000000	       0.000000
	 D(8,9,4,18)      =         0.001363	       0.078099
	 D(8,11,5,10)     =        -0.000301	      -0.017270
	 D(8,11,5,19)     =         3.141536	     179.996748
	 D(9,3,6,12)      =        -0.001473	      -0.084408
	 D(9,3,6,20)      =        -3.140182	    -179.919148
	 D(9,4,7,12)      =         0.000813	       0.046601
	 D(9,4,7,21)      =        -3.141075	    -179.970359
	 D(9,8,1,15)      =         0.002066	       0.118384
	 D(9,8,11,14)     =        -0.000667	      -0.038219
	 D(10,2,1,15)     =         3.140283	     179.924984
	 D(10,5,11,14)    =         3.141547	     179.997392
	 D(11,5,10,13)    =        -3.141416	    -179.989865
	 D(11,8,1,15)     =        -3.140256	    -179.923403
	 D(12,6,3,17)     =         3.140864	     179.958231
	 D(12,7,4,18)     =         3.140626	     179.944641
	 D(13,10,2,16)    =        -0.001939	      -0.111119
	 D(13,10,5,19)    =        -0.000075	      -0.004300
	 D(14,11,5,19)    =         0.000199	       0.011410
	 D(15,1,2,16)     =         0.000379	       0.021741
	 D(17,3,6,20)     =         0.002155	       0.123490
	 D(18,4,7,21)     =        -0.001262	      -0.072319
	 D(20,6,12,22)    =        -0.004191	      -0.240126
	 D(21,7,12,22)    =         0.002133	       0.122201
	 R(3,14)          =         4.700127	       2.487200

	Current energy   :      -652.8097144049

	Generating empirical Hessian (Schlegel '84) for each fragment.
	Adding user-defined constraint: Fragment 1; Coordinate 62:
		Value =    -3.141450; Fixed value    =    -3.141575
		Force =    -0.000063; Force constant =     0.500000
	Removing off-diagonal coupling between coordinate 62 and others.
	Taking RFO optimization step.
	Going to follow RFO solution 1.
	Using RFO vector 1.

	Determining step-restricting scale parameter for RS-RFO.
	Maximum step size allowed    0.10000

	 Iter      |step|        alpha        rfo_root  
	------------------------------------------------
	    0     0.41817       1.00000           1
	    1     0.27947       4.05489           1
	    2     0.19306      12.29173           1
	    3     0.14054      29.12116           1
	    4     0.11267      50.96896           1
	    5     0.10192      65.12197           1
	    6     0.10006      68.09039           1
	    7     0.10000      68.18288           1
	------------------------------------------------
	Norm of target step-size    0.10000
	Projected energy change by RFO approximation:        -0.0108356371

	Back-transformation to cartesian coordinates...
	Successfully converged to displaced geometry.

	--- Internal Coordinate Step in ANG or DEG, aJ/ANG or AJ/DEG ---
	 ---------------------------------------------------------------------------
	   Coordinate                Previous        Force       Change         New 
	   ----------                --------       ------       ------       ------
	    1 R(1,2)          =      1.394038    -0.200381    -0.010414     1.383624
	    2 R(1,8)          =      1.394891     0.181280     0.009405     1.404296
	    3 R(1,15)         =      1.088409    -0.078417    -0.004507     1.083902
	    4 R(2,10)         =      1.394821     0.268390     0.014050     1.408871
	    5 R(2,16)         =      1.088553    -0.059785    -0.003437     1.085116
	    6 R(3,6)          =      1.387978    -0.171479    -0.008814     1.379164
	    7 R(3,9)          =      1.391804     0.257864     0.013497     1.405300
	    8 R(3,17)         =      1.085513    -0.161311    -0.009244     1.076270
	    9 R(4,7)          =      1.387603    -0.200421    -0.010384     1.377219
	   10 R(4,9)          =      1.391765     0.222700     0.011626     1.403391
	   11 R(4,18)         =      1.085783    -0.078547    -0.004502     1.081280
	   12 R(5,10)         =      1.395407     0.237836     0.012449     1.407857
	   13 R(5,11)         =      1.394521    -0.259701    -0.013548     1.380973
	   14 R(5,19)         =      1.088451    -0.060332    -0.003468     1.084983
	   15 R(6,12)         =      1.339547     0.124812     0.005915     1.345462
	   16 R(6,20)         =      1.081275    -0.022617    -0.001290     1.079984
	   17 R(7,12)         =      1.339984     0.100895     0.004736     1.344719
	   18 R(7,21)         =      1.081496    -0.022430    -0.001280     1.080216
	   19 R(8,9)          =      1.446909    -0.137307    -0.007513     1.439396
	   20 R(8,11)         =      1.394821     0.119464     0.006281     1.401102
	   21 R(10,13)        =      1.281784    -0.242273    -0.010425     1.271359
	   22 R(11,14)        =      1.341125     0.038274     0.001837     1.342962
	   23 R(12,22)        =      1.019326    -0.088971    -0.004715     1.014611
	   24 B(1,2,10)       =    120.009056     0.000423     0.334975   120.344031
	   25 B(1,2,16)       =    118.539404     0.000248     0.205022   118.744426
	   26 B(1,8,9)        =    119.827938     0.000978     0.706644   120.534582
	   27 B(1,8,11)       =    119.959722    -0.001444    -1.105033   118.854689
	   28 B(2,1,8)        =    120.031219     0.000731     0.555586   120.586805
	   29 B(2,1,15)       =    119.169966    -0.000513    -0.397294   118.772672
	   30 B(2,10,5)       =    119.994870    -0.001291    -0.939743   119.055127
	   31 B(2,10,13)      =    120.018581     0.000701     0.510923   120.529504
	   32 B(3,6,12)       =    120.093109     0.000308     0.228501   120.321609
	   33 B(3,6,20)       =    123.813039    -0.000287    -0.222096   123.590944
	   34 B(3,9,4)        =    119.893742    -0.001509    -1.112408   118.781334
	   35 B(3,9,8)        =    120.039371     0.001113     0.845550   120.884921
	   36 B(4,7,12)       =    120.082785     0.000042     0.008587   120.091372
	   37 B(4,7,21)       =    123.868368    -0.000157    -0.115211   123.753157
	   38 B(4,9,8)        =    120.066879     0.000396     0.266859   120.333738
	   39 B(5,10,13)      =    119.986548     0.000590     0.428821   120.415369
	   40 B(5,11,8)       =    120.045019     0.001414     1.021828   121.066847
	   41 B(5,11,14)      =    119.256220    -0.000358    -0.275612   118.980608
	   42 B(6,3,9)        =    118.771642     0.000438     0.351035   119.122677
	   43 B(6,3,17)       =    119.739769    -0.000891    -0.721576   119.018193
	   44 B(6,12,7)       =    122.368192    -0.000212    -0.187543   122.180650
	   45 B(6,12,22)      =    118.812921     0.000137     0.119029   118.931950
	   46 B(7,4,9)        =    118.790460     0.000933     0.711832   119.502291
	   47 B(7,4,18)       =    119.764584    -0.000787    -0.616157   119.148426
	   48 B(7,12,22)      =    118.818690     0.000075     0.068519   118.887209
	   49 B(8,1,15)       =    120.798746    -0.000218    -0.158286   120.640460
	   50 B(8,11,14)      =    120.698759    -0.001056    -0.746216   119.952543
	   51 B(9,3,17)       =    121.488575     0.000454     0.370541   121.859117
	   52 B(9,4,18)       =    121.444876    -0.000146    -0.095669   121.349207
	   53 B(9,8,11)       =    120.212327     0.000466     0.398389   120.610716
	   54 B(10,2,16)      =    121.451467    -0.000670    -0.539993   120.911474
	   55 B(10,5,11)      =    119.960108     0.000167     0.132388   120.092496
	   56 B(10,5,19)      =    121.472852    -0.000395    -0.318666   121.154186
	   57 B(11,5,19)      =    118.567038     0.000227     0.186278   118.753316
	   58 B(12,6,20)      =    116.093661    -0.000021    -0.006394   116.087267
	   59 B(12,7,21)      =    116.048845     0.000116     0.106623   116.155468
	   60 D(1,2,10,5)     =     -0.018609     0.000000     0.000105    -0.018504
	   61 D(1,2,10,13)    =    179.988520    -0.000000    -0.000323   179.988197
	   62 D(1,8,9,3)      =   -179.991809    -0.000000    -0.001287  -179.993096
	   63 D(1,8,9,4)      =     -0.023446    -0.000000     0.000188    -0.023258
	   64 D(1,8,11,5)     =      0.018608    -0.000000    -0.001247     0.017361
	   65 D(1,8,11,14)    =   -179.996269    -0.000000    -0.000189  -179.996458
	   66 D(2,1,8,9)      =   -179.978157     0.000000     0.000539  -179.977619
	   67 D(2,1,8,11)     =     -0.019945     0.000000     0.001556    -0.018389
	   68 D(2,10,5,11)    =      0.017261     0.000000     0.000092     0.017353
	   69 D(2,10,5,19)    =   -179.997173    -0.000000    -0.000103  -179.997276
	   70 D(3,6,12,7)     =      0.076415    -0.000001    -0.002555     0.073860
	   71 D(3,6,12,22)    =    179.912765     0.000000     0.000056   179.912821
	   72 D(3,9,4,7)      =     -0.057236     0.000000     0.001880    -0.055357
	   73 D(3,9,4,18)     =   -179.953492    -0.000000    -0.001171  -179.954663
	   74 D(3,9,8,11)     =      0.050086    -0.000000    -0.001691     0.048394
	   75 D(4,7,12,6)     =     -0.057132     0.000000     0.001787    -0.055345
	   76 D(4,7,12,22)    =   -179.893473    -0.000000    -0.000902  -179.894375
	   77 D(4,9,3,6)      =      0.075766    -0.000001    -0.002919     0.072847
	   78 D(4,9,3,17)     =   -179.967649    -0.000000    -0.001855  -179.969504
	   79 D(4,9,8,11)     =   -179.981552    -0.000000    -0.000216  -179.981768
	   80 D(5,10,2,16)    =    179.881752     0.000001     0.003603   179.885356
	   81 D(5,11,8,9)     =    179.976658    -0.000000    -0.000099   179.976559
	   82 D(6,3,9,8)      =   -179.955816    -0.000000    -0.001039  -179.956855
	   83 D(6,12,7,21)    =    179.958542     0.000000     0.001927   179.960469
	   84 D(7,4,9,8)      =    179.974355    -0.000000    -0.000177   179.974177
	   85 D(7,12,6,20)    =    179.923524     0.000000     0.001539   179.925064
	   86 D(8,1,2,10)     =      0.019955    -0.000000    -0.000686     0.019269
	   87 D(8,1,2,16)     =   -179.883288    -0.000001    -0.003365  -179.886654
	   88 D(8,9,3,17)     =      0.000000     0.000000     0.000000     0.000000
	   89 D(8,9,4,18)     =      0.078099    -0.000001    -0.003228     0.074871
	   90 D(8,11,5,10)    =     -0.017270     0.000000     0.000172    -0.017098
	   91 D(8,11,5,19)    =    179.996748     0.000000     0.000435   179.997183
	   92 D(9,3,6,12)     =     -0.084408     0.000001     0.002572    -0.081835
	   93 D(9,3,6,20)     =   -179.919148    -0.000001    -0.002259  -179.921407
	   94 D(9,4,7,12)     =      0.046601    -0.000000    -0.000680     0.045920
	   95 D(9,4,7,21)     =   -179.970359    -0.000000    -0.000793  -179.971152
	   96 D(9,8,1,15)     =      0.118384    -0.000001    -0.003061     0.115323
	   97 D(9,8,11,14)    =     -0.038219     0.000000     0.000958    -0.037260
	   98 D(10,2,1,15)    =    179.924984     0.000001     0.003055   179.928039
	   99 D(10,5,11,14)   =    179.997392    -0.000000    -0.000802   179.996590
	  100 D(11,5,10,13)   =   -179.989865     0.000000     0.000526  -179.989339
	  101 D(11,8,1,15)    =   -179.923403    -0.000000    -0.002044  -179.925447
	  102 D(12,6,3,17)    =    179.958231     0.000000     0.001070   179.959300
	  103 D(12,7,4,18)    =    179.944641     0.000001     0.002816   179.947457
	  104 D(13,10,2,16)   =     -0.111119     0.000001     0.003175    -0.107944
	  105 D(13,10,5,19)   =     -0.004300     0.000000     0.000331    -0.003969
	  106 D(14,11,5,19)   =      0.011410    -0.000000    -0.000540     0.010870
	  107 D(15,1,2,16)    =      0.021741     0.000000     0.000376     0.022117
	  108 D(17,3,6,20)    =      0.123490    -0.000001    -0.003762     0.119728
	  109 D(18,4,7,21)    =     -0.072319     0.000001     0.002704    -0.069615
	  110 D(20,6,12,22)   =     -0.240126     0.000001     0.004150    -0.235975
	  111 D(21,7,12,22)   =      0.122201    -0.000000    -0.000763     0.121438
	  112 R(3,14)         =      2.487200     0.213347     0.016826     2.504026
	 ---------------------------------------------------------------------------
	Successfully symmetrized geometry.
	 Forces used to impose fixed constraints are not included.
	  Forces zeroed: 62 

  ==> Convergence Check <==

  Measures of convergence in internal coordinates in au.
  Criteria marked as inactive (o), active & met (*), and active & unmet ( ).
  --------------------------------------------------------------------------------------------- ~
   Step     Total Energy     Delta E     MAX Force     RMS Force      MAX Disp      RMS Disp    ~
  --------------------------------------------------------------------------------------------- ~
    Convergence Criteria    1.00e-06 *    3.00e-04 *             o    1.20e-03 *             o  ~
  --------------------------------------------------------------------------------------------- ~
      1    -652.80971440   -6.53e+02      3.26e-02      1.07e-02 o    3.18e-02      9.45e-03 o  ~
  ---------------------------------------------------------------------------------------------

	Writing optimization data to binary file.
	Structure for next step:
	Cartesian Geometry (in Angstrom)
	    C    -1.3731736232   0.7818957459  -0.7677655819
	    C    -2.4443360986   1.3513772265  -0.1023955567
	    C     1.8412113996  -1.0150799599  -0.0364670259
	    C     0.8406719600  -0.3943990236  -2.1476608466
	    C    -1.4469319965   0.7326032798   2.0226566470
	    C     2.8911850453  -1.5701286154  -0.7375874850
	    C     1.9149274267  -0.9650707293  -2.7934475254
	    C    -0.3252986083   0.1804854817  -0.0520060718
	    C     0.7887377943  -0.4111935667  -0.7453320208
	    C    -2.4976266176   1.3356070864   1.3053786943
	    C    -0.3828892962   0.1673276610   1.3478498338
	    N     2.9044173515  -1.5340462795  -2.0825000737
	    O    -3.4800780315   1.8580315937   1.9203714562
	    F     0.6072823333  -0.4018507886   2.0543501962
	    H    -1.3587712531   0.8073493159  -1.8512726409
	    H    -3.2385448328   1.8063576818  -0.6852357659
	    H     1.8517582068  -1.0563193240   1.0389603959
	    H     0.0540094978   0.0596477954  -2.7343215442
	    H    -1.4532021187   0.7012036047   3.1071668757
	    H     3.7351848277  -2.0525087463  -0.2671194287
	    H     2.0250940624  -0.9904463870  -3.8677317791
	    H     3.6879508513  -1.9476315723  -2.5769260601
			--------------------------
			 OPTKING Finished Execution 
			--------------------------

    Structure for next step:
    Molecular point group: c1
    Full point group: C1

    Geometry (in Angstrom), charge = 0, multiplicity = 1:

    C           -1.370885038776     0.780673873281    -0.768850028092
    C           -2.442047514161     1.350155353892    -0.103480002908
    C            1.843499984009    -1.016301832477    -0.037551472093
    C            0.842960544421    -0.395620896184    -2.148745292771
    C           -1.444643412033     0.731381407227     2.021572200825
    C            2.893473629776    -1.571350487989    -0.738671931188
    C            1.917216011174    -0.966292601885    -2.794531971602
    C           -0.323010023832     0.179263609047    -0.053090517949
    C            0.791026378763    -0.412415439278    -0.746416466961
    C           -2.495338033202     1.334385213753     1.304294248136
    C           -0.380600711739     0.166105788417     1.346765387625
    N            2.906705935957    -1.535268152100    -2.083584519893
    O           -3.477789447086     1.856809721036     1.919287010063
    F            0.609570917734    -0.403072661259     2.053265750014
    H           -1.356482668610     0.806127443292    -1.852357087103
    H           -3.236256248382     1.805135809134    -0.686320212091
    H            1.854046791284    -1.057541196582     1.037875949691
    H            0.056298082242     0.058425922770    -2.735405990368
    H           -1.450913534267     0.699981732080     3.106082429525
    H            3.737473412134    -2.053730618891    -0.268203874813
    H            2.027382646843    -0.991668259610    -3.868816225265
    H            3.690239435702    -1.948853444903    -2.578010506247

gradient() will perform analytic gradient computation.

*** tstart() called on gpu-1-4.local
*** at Sun Nov 12 02:07:30 2017

    SCF Algorithm Type (re)set to DF.

*** tstart() called on gpu-1-4.local
*** at Sun Nov 12 02:07:30 2017

   => Loading Basis Set <=

    Name: AUG-CC-PVTZ
    Role: ORBITAL
    Keyword: BASIS
    atoms 1-11  entry C          line   221 file /cbio/jclab/home/chayas/anaconda/envs/py35/share/psi4/basis/aug-cc-pvtz.gbs 
    atoms 12    entry N          line   267 file /cbio/jclab/home/chayas/anaconda/envs/py35/share/psi4/basis/aug-cc-pvtz.gbs 
    atoms 13    entry O          line   313 file /cbio/jclab/home/chayas/anaconda/envs/py35/share/psi4/basis/aug-cc-pvtz.gbs 
    atoms 14    entry F          line   359 file /cbio/jclab/home/chayas/anaconda/envs/py35/share/psi4/basis/aug-cc-pvtz.gbs 
    atoms 15-22 entry H          line    34 file /cbio/jclab/home/chayas/anaconda/envs/py35/share/psi4/basis/aug-cc-pvtz.gbs 


         ---------------------------------------------------------
                                   SCF
            by Justin Turney, Rob Parrish, and Andy Simmonett
                              RHF Reference
                        8 Threads,   4768 MiB Core
         ---------------------------------------------------------

  ==> Geometry <==

    Molecular point group: c1
    Full point group: C1

    Geometry (in Angstrom), charge = 0, multiplicity = 1:

       Center              X                  Y                   Z               Mass       
    ------------   -----------------  -----------------  -----------------  -----------------
           C         -1.370885038776     0.780673873281    -0.768850028092    12.000000000000
           C         -2.442047514161     1.350155353892    -0.103480002908    12.000000000000
           C          1.843499984009    -1.016301832477    -0.037551472093    12.000000000000
           C          0.842960544421    -0.395620896184    -2.148745292771    12.000000000000
           C         -1.444643412033     0.731381407227     2.021572200825    12.000000000000
           C          2.893473629776    -1.571350487989    -0.738671931188    12.000000000000
           C          1.917216011174    -0.966292601885    -2.794531971602    12.000000000000
           C         -0.323010023832     0.179263609047    -0.053090517949    12.000000000000
           C          0.791026378763    -0.412415439278    -0.746416466961    12.000000000000
           C         -2.495338033202     1.334385213753     1.304294248136    12.000000000000
           C         -0.380600711739     0.166105788417     1.346765387625    12.000000000000
           N          2.906705935957    -1.535268152100    -2.083584519893    14.003074004780
           O         -3.477789447086     1.856809721036     1.919287010063    15.994914619560
           F          0.609570917734    -0.403072661259     2.053265750014    18.998403224000
           H         -1.356482668610     0.806127443292    -1.852357087103     1.007825032070
           H         -3.236256248382     1.805135809134    -0.686320212091     1.007825032070
           H          1.854046791284    -1.057541196582     1.037875949691     1.007825032070
           H          0.056298082242     0.058425922770    -2.735405990368     1.007825032070
           H         -1.450913534267     0.699981732080     3.106082429525     1.007825032070
           H          3.737473412134    -2.053730618891    -0.268203874813     1.007825032070
           H          2.027382646843    -0.991668259610    -3.868816225265     1.007825032070
           H          3.690239435702    -1.948853444903    -2.578010506247     1.007825032070

  Running in c1 symmetry.

  Rotational constants: A =      0.06285  B =      0.01377  C =      0.01129 [cm^-1]
  Rotational constants: A =   1884.10208  B =    412.78903  C =    338.60409 [MHz]
  Nuclear repulsion =  819.847107470172318

  Charge       = 0
  Multiplicity = 1
  Electrons    = 98
  Nalpha       = 49
  Nbeta        = 49

  ==> Algorithm <==

  SCF Algorithm Type is DF.
  DIIS enabled.
  MOM disabled.
  Fractional occupation disabled.
  Guess Type is READ.
  Energy threshold   = 1.00e-10
  Density threshold  = 1.00e-10
  Integral threshold = 0.00e+00

  ==> Primary Basis <==

  Basis Set: AUG-CC-PVTZ
    Blend: AUG-CC-PVTZ
    Number of shells: 268
    Number of basis function: 828
    Number of Cartesian functions: 970
    Spherical Harmonics?: true
    Max angular momentum: 3

   => Loading Basis Set <=

    Name: (AUG-CC-PVTZ AUX)
    Role: JKFIT
    Keyword: DF_BASIS_SCF
    atoms 1-11  entry C          line   161 file /cbio/jclab/home/chayas/anaconda/envs/py35/share/psi4/basis/aug-cc-pvtz-jkfit.gbs 
    atoms 12    entry N          line   223 file /cbio/jclab/home/chayas/anaconda/envs/py35/share/psi4/basis/aug-cc-pvtz-jkfit.gbs 
    atoms 13    entry O          line   285 file /cbio/jclab/home/chayas/anaconda/envs/py35/share/psi4/basis/aug-cc-pvtz-jkfit.gbs 
    atoms 14    entry F          line   347 file /cbio/jclab/home/chayas/anaconda/envs/py35/share/psi4/basis/aug-cc-pvtz-jkfit.gbs 
    atoms 15-22 entry H          line    69 file /cbio/jclab/home/chayas/anaconda/envs/py35/share/psi4/basis/aug-cc-pvtz-jkfit.gbs 

  Reading orbitals from file 180, no projection.

  ==> Pre-Iterations <==

   -------------------------------------------------------
    Irrep   Nso     Nmo     Nalpha   Nbeta   Ndocc  Nsocc
   -------------------------------------------------------
     A        828     828       0       0       0       0
   -------------------------------------------------------
    Total     828     828      49      49      49       0
   -------------------------------------------------------

  ==> Integral Setup <==

  ==> DFJK: Density-Fitted J/K Matrices <==

    J tasked:                  Yes
    K tasked:                  Yes
    wK tasked:                  No
    OpenMP threads:              8
    Integrals threads:           8
    Memory (MB):              3576
    Algorithm:                Disk
    Integral Cache:           NONE
    Schwarz Cutoff:          1E-12
    Fitting Condition:       1E-12

   => Auxiliary Basis Set <=

  Basis Set: (AUG-CC-PVTZ AUX)
    Blend: AUG-CC-PVTZ-JKFIT
    Number of shells: 532
    Number of basis function: 1824
    Number of Cartesian functions: 2274
    Spherical Harmonics?: true
    Max angular momentum: 4

  Minimum eigenvalue in the overlap matrix is 3.1392916868E-07.
  Using Symmetric Orthogonalization.

  SCF Guess: Orbitals guess was supplied from a previous computation.

  ==> Iterations <==

                           Total Energy        Delta E     RMS |[F,P]|

   @DF-RHF iter   0:  -650.22603097760475   -6.50226e+02   4.28112e-04 
   @DF-RHF iter   1:  -650.11200499844983    1.14026e-01   1.15481e-04 
   @DF-RHF iter   2:  -650.11261523735391   -6.10239e-04   6.82742e-05 DIIS
   @DF-RHF iter   3:  -650.11286188443921   -2.46647e-04   1.39470e-05 DIIS
   @DF-RHF iter   4:  -650.11288515622596   -2.32718e-05   7.30600e-06 DIIS
   @DF-RHF iter   5:  -650.11289852722575   -1.33710e-05   2.70630e-06 DIIS
   @DF-RHF iter   6:  -650.11290395242622   -5.42520e-06   1.95155e-06 DIIS
   @DF-RHF iter   7:  -650.11290502861880   -1.07619e-06   6.06374e-07 DIIS
   @DF-RHF iter   8:  -650.11290509919661   -7.05778e-08   2.06635e-07 DIIS
   @DF-RHF iter   9:  -650.11290510328320   -4.08659e-09   8.13968e-08 DIIS
   @DF-RHF iter  10:  -650.11290510391495   -6.31758e-10   2.54772e-08 DIIS
   @DF-RHF iter  11:  -650.11290510400829   -9.33369e-11   1.01807e-08 DIIS
   @DF-RHF iter  12:  -650.11290510402443   -1.61435e-11   4.06615e-09 DIIS
   @DF-RHF iter  13:  -650.11290510402830   -3.86535e-12   1.57970e-09 DIIS
   @DF-RHF iter  14:  -650.11290510401500    1.33014e-11   6.99352e-10 DIIS
   @DF-RHF iter  15:  -650.11290510403273   -1.77351e-11   2.47676e-10 DIIS
   @DF-RHF iter  16:  -650.11290510402898    3.75167e-12   1.08429e-10 DIIS
   @DF-RHF iter  17:  -650.11290510403012   -1.13687e-12   4.37705e-11 DIIS

  ==> Post-Iterations <==

    Orbital Energies (a.u.)
    -----------------------

    Doubly Occupied:                                                      

       1A    -26.320109     2A    -20.453311     3A    -15.685982  
       4A    -11.349292     5A    -11.344092     6A    -11.328733  
       7A    -11.308975     8A    -11.278971     9A    -11.267194  
      10A    -11.266535    11A    -11.242364    12A    -11.229890  
      13A    -11.201234    14A    -11.198968    15A     -1.645301  
      16A     -1.370965    17A     -1.279671    18A     -1.178171  
      19A     -1.118506    20A     -1.102606    21A     -1.012035  
      22A     -1.001655    23A     -0.932808    24A     -0.906491  
      25A     -0.841174    26A     -0.831237    27A     -0.815018  
      28A     -0.751572    29A     -0.725684    30A     -0.723970  
      31A     -0.707852    32A     -0.688612    33A     -0.680399  
      34A     -0.647139    35A     -0.643576    36A     -0.620493  
      37A     -0.611191    38A     -0.596219    39A     -0.558879  
      40A     -0.546298    41A     -0.526454    42A     -0.509695  
      43A     -0.494135    44A     -0.476735    45A     -0.413626  
      46A     -0.397076    47A     -0.362881    48A     -0.336648  
      49A     -0.248453  

    Virtual:                                                              

      50A     -0.004645    51A      0.013683    52A      0.025204  
      53A      0.026258    54A      0.039473    55A      0.044866  
      56A      0.049216    57A      0.059417    58A      0.062003  
      59A      0.063465    60A      0.070928    61A      0.073083  
      62A      0.082168    63A      0.084610    64A      0.086543  
      65A      0.088287    66A      0.097236    67A      0.105968  
      68A      0.108552    69A      0.112390    70A      0.120484  
      71A      0.121936    72A      0.123534    73A      0.130375  
      74A      0.132748    75A      0.138687    76A      0.141846  
      77A      0.145834    78A      0.147550    79A      0.148363  
      80A      0.154706    81A      0.158457    82A      0.160196  
      83A      0.169347    84A      0.169461    85A      0.176422  
      86A      0.181395    87A      0.182661    88A      0.186230  
      89A      0.192723    90A      0.193912    91A      0.199141  
      92A      0.200663    93A      0.203214    94A      0.212396  
      95A      0.213306    96A      0.220799    97A      0.231303  
      98A      0.234320    99A      0.237804   100A      0.243177  
     101A      0.245385   102A      0.249570   103A      0.254978  
     104A      0.260202   105A      0.263469   106A      0.266653  
     107A      0.267328   108A      0.271746   109A      0.273107  
     110A      0.275268   111A      0.284264   112A      0.291442  
     113A      0.292297   114A      0.297769   115A      0.301320  
     116A      0.306803   117A      0.310822   118A      0.313561  
     119A      0.315488   120A      0.318671   121A      0.333939  
     122A      0.339127   123A      0.340838   124A      0.346392  
     125A      0.350514   126A      0.355097   127A      0.357524  
     128A      0.362694   129A      0.364563   130A      0.367742  
     131A      0.368593   132A      0.377296   133A      0.380580  
     134A      0.385148   135A      0.390764   136A      0.398095  
     137A      0.401346   138A      0.404673   139A      0.406209  
     140A      0.415210   141A      0.422285   142A      0.423791  
     143A      0.429575   144A      0.431666   145A      0.437115  
     146A      0.439834   147A      0.442883   148A      0.448569  
     149A      0.449973   150A      0.454923   151A      0.456686  
     152A      0.461275   153A      0.461997   154A      0.466104  
     155A      0.468300   156A      0.468810   157A      0.468854  
     158A      0.474194   159A      0.478481   160A      0.485262  
     161A      0.490434   162A      0.491634   163A      0.494781  
     164A      0.500168   165A      0.506445   166A      0.509777  
     167A      0.520763   168A      0.522731   169A      0.526516  
     170A      0.530770   171A      0.530868   172A      0.539214  
     173A      0.540397   174A      0.543290   175A      0.552116  
     176A      0.553475   177A      0.558545   178A      0.561801  
     179A      0.564643   180A      0.571571   181A      0.582247  
     182A      0.585700   183A      0.590225   184A      0.594848  
     185A      0.607682   186A      0.612094   187A      0.620453  
     188A      0.622638   189A      0.629514   190A      0.637574  
     191A      0.637988   192A      0.644772   193A      0.646915  
     194A      0.654641   195A      0.666306   196A      0.676254  
     197A      0.679308   198A      0.679957   199A      0.687478  
     200A      0.689588   201A      0.694535   202A      0.700111  
     203A      0.711106   204A      0.714291   205A      0.714939  
     206A      0.723335   207A      0.727291   208A      0.733069  
     209A      0.736986   210A      0.748737   211A      0.751995  
     212A      0.753329   213A      0.762663   214A      0.765181  
     215A      0.769036   216A      0.779965   217A      0.790087  
     218A      0.790704   219A      0.799044   220A      0.808214  
     221A      0.818713   222A      0.819008   223A      0.825207  
     224A      0.835264   225A      0.838486   226A      0.843623  
     227A      0.851522   228A      0.851731   229A      0.857763  
     230A      0.858592   231A      0.862695   232A      0.868657  
     233A      0.872923   234A      0.877550   235A      0.884817  
     236A      0.894170   237A      0.898875   238A      0.905698  
     239A      0.906822   240A      0.911924   241A      0.920801  
     242A      0.925843   243A      0.927313   244A      0.929814  
     245A      0.930024   246A      0.933360   247A      0.940713  
     248A      0.943563   249A      0.945773   250A      0.947798  
     251A      0.954631   252A      0.955017   253A      0.958089  
     254A      0.962500   255A      0.964086   256A      0.971953  
     257A      0.984831   258A      0.988570   259A      0.990226  
     260A      0.992525   261A      1.003229   262A      1.008938  
[...]
	                 NBF =   828, NAUX =  1852
	 --------------------------------------------------------
	   CLASS    FOCC     OCC    AOCC    AVIR     VIR    FVIR
	   PAIRS       0      49      49     779     779       0
	 --------------------------------------------------------


         ------------------------------------------------------------
                                     CPHF                           
                                  Rob Parrish                       
         ------------------------------------------------------------

  ==> Geometry <==

    Molecular point group: c1
    Full point group: C1

    Geometry (in Angstrom), charge = 0, multiplicity = 1:

       Center              X                  Y                   Z               Mass       
    ------------   -----------------  -----------------  -----------------  -----------------
           C         -1.334710209803     0.799521592771    -0.740740978957    12.000000000000
           C         -2.388526784607     1.396298404026    -0.135159988570    12.000000000000
           C          1.942741775253    -1.022594753733    -0.080344850214    12.000000000000
           C          0.856011164285    -0.466620890266    -2.138708348607    12.000000000000
           C         -1.489237090005     0.729635865130     2.029395350413    12.000000000000
           C          2.975733414332    -1.536932770112    -0.796330331003    12.000000000000
           C          1.908326900179    -0.990594668384    -2.815969887464    12.000000000000
           C         -0.293942143936     0.116205209939    -0.031231240078    12.000000000000
           C          0.786680033241    -0.456218013883    -0.708418810645    12.000000000000
           C         -2.545777489427     1.401774359136     1.306739317798    12.000000000000
           C         -0.455810933230     0.147332349591     1.385579474104    12.000000000000
           N          2.965457318281    -1.527737285693    -2.153677102991    14.003074004780
           O         -3.503017850702     1.944716511193     1.873769887991    15.994914619560
           F          0.487976308034    -0.450094633439     2.158613946069    18.998403224000
           H         -1.290896952794     0.846859508906    -1.816086824354     1.007825032070
           H         -3.151134546125     1.894518210831    -0.716050703411     1.007825032070
           H          2.024342287614    -1.058533932272     0.988428908449     1.007825032070
           H          0.063036835229    -0.055410269641    -2.736976885821     1.007825032070
           H         -1.533215587665     0.699549950949     3.106185324986     1.007825032070
           H          3.843717825128    -1.968429265865    -0.324169350460     1.007825032070
           H          1.956242760460    -1.002522054895    -3.892536546561     1.007825032070
           H          3.739998432103    -1.911195076076    -2.666367305939     1.007825032070

  Nuclear repulsion =  813.038312319319061
  Reference energy  = -650.140110973046376

  ==> Basis Set <==

  Basis Set: AUG-CC-PVTZ
    Blend: AUG-CC-PVTZ
    Number of shells: 268
    Number of basis function: 828
    Number of Cartesian functions: 970
    Spherical Harmonics?: true
    Max angular momentum: 3

  ==> CGRSolver (by Rob Parrish) <==

   Number of roots    =         1
   Preconditioning    =    JACOBI
   Convergence cutoff =     1E-06
   Maximum iterations =       100

  ==> CPHFRHamiltonian (by Rob Parrish) <== 

  ==> DFJK: Density-Fitted J/K Matrices <==

    J tasked:                  Yes
    K tasked:                  Yes
    wK tasked:                  No
    OpenMP threads:              8
    Integrals threads:           8
    Memory (MB):              3576
    Algorithm:                Disk
    Integral Cache:           NONE
    Schwarz Cutoff:          1E-12
    Fitting Condition:       1E-12

   => Auxiliary Basis Set <=

  Basis Set: (AUG-CC-PVTZ AUX)
    Blend: AUG-CC-PVTZ-JKFIT
    Number of shells: 532
    Number of basis function: 1824
    Number of Cartesian functions: 2274
    Spherical Harmonics?: true
    Max angular momentum: 4

  ==> CPHF Iterations <==

  => Iterations <=

             Iter  Converged  Remaining    Residual
  CGR           1          0          1   1.482E-01
  CGR           2          0          1   5.346E-02
  CGR           3          0          1   2.671E-02
  CGR           4          0          1   8.243E-03
  CGR           5          0          1   2.855E-03
  CGR           6          0          1   1.298E-03
  CGR           7          0          1   5.814E-04
  CGR           8          0          1   2.603E-04
  CGR           9          0          1   1.051E-04
  CGR          10          0          1   3.730E-05
  CGR          11          0          1   1.436E-05
  CGR          12          0          1   4.062E-06
  CGR          13          0          1   1.731E-06
  CGR          14          1          0   5.843E-07

    CGRSolver converged.

  ==> DFCorrGrad: Density-Fitted Correlated Gradients <==

    OpenMP threads:              8
    Integrals threads:           8
    Memory (MB):              3576
    Schwarz Cutoff:          0E+00
    Fitting Condition:       1E-12

   => Auxiliary Basis Set <=

  Basis Set: (AUG-CC-PVTZ AUX)
    Blend: AUG-CC-PVTZ-JKFIT
    Number of shells: 532
    Number of basis function: 1824
    Number of Cartesian functions: 2274
    Spherical Harmonics?: true
    Max angular momentum: 4

	-----------------------------------------------------------
	 ==================> DF-MP2 Energies <==================== 
	-----------------------------------------------------------
	 Reference Energy          =    -650.1401109730463759 [Eh]
	 Singles Energy            =      -0.0000000000000001 [Eh]
	 Same-Spin Energy          =      -0.6720078651732583 [Eh]
	 Opposite-Spin Energy      =      -2.0235516982621102 [Eh]
	 Correlation Energy        =      -2.6955595634353684 [Eh]
	 Total Energy              =    -652.8356705364817572 [Eh]
	-----------------------------------------------------------
	 ================> DF-SCS-MP2 Energies <================== 
	-----------------------------------------------------------
	 SCS Same-Spin Scale       =       0.3333333333333333 [-]
	 SCS Opposite-Spin Scale   =       1.2000000000000000 [-]
	 SCS Same-Spin Energy      =      -0.2240026217244194 [Eh]
	 SCS Opposite-Spin Energy  =      -2.4282620379145321 [Eh]
	 SCS Correlation Energy    =      -2.6522646596389516 [Eh]
	 SCS Total Energy          =    -652.7923756326853209 [Eh]
	-----------------------------------------------------------


  -Total Gradient:
     Atom            X                  Y                   Z
    ------   -----------------  -----------------  -----------------
       1        0.001816582205     0.003478902696     0.000105668188
       2        0.000020109708    -0.000277574733    -0.000040230871
       3        0.001521100662     0.002612121267     0.000014815022
       4        0.000296389166     0.000371253512    -0.000062126916
       5        0.000225525941    -0.000213171557     0.000281453611
       6       -0.000043058247     0.000010847026    -0.000291358855
       7       -0.000432180004     0.000077174899    -0.000296870990
       8       -0.001429217924    -0.003386740330    -0.000304796148
       9       -0.002678695084    -0.003990829100     0.000192273077
      10        0.000014457949    -0.000008540132    -0.000097543827
      11       -0.000331422020     0.000079330538    -0.000241464741
      12        0.000508131350     0.000166919755     0.000327452240
      13       -0.000197887851     0.000362867907     0.000023138956
      14        0.000738842951     0.000566804865     0.000283298228
      15       -0.000071994542     0.000241671294    -0.000011591290
      16       -0.000641083483    -0.000164471312    -0.000218964287
      17        0.000300492576     0.000090424903     0.000169562967
      18        0.000083397038     0.000455264159    -0.000103496939
      19       -0.000006596817     0.000018812812     0.000057308138
      20        0.000211453621    -0.000502053077     0.000289135025
      21       -0.000069872034     0.000023939411    -0.000084672664
      22        0.000165524826    -0.000012954796     0.000009012089


*** tstop() called on gpu-1-4.local at Sun Nov 12 10:56:43 2017
Module time:
	user time   =    5577.74 seconds =      92.96 minutes
	system time =     105.84 seconds =       1.76 minutes
	total time  =       2692 seconds =      44.87 minutes
Total time:
	user time   =   70183.02 seconds =    1169.72 minutes
	system time =    1221.46 seconds =      20.36 minutes
	total time  =      35798 seconds =     596.63 minutes

			-----------------------------------------
			 OPTKING 2.0: for geometry optimizations 
			  - R.A. King,  Bethel University        
			-----------------------------------------

	Previous internal coordinate definitions found.
	---Fragment 1 Geometry and Gradient---
	 C          -2.5222367633        1.5108768477       -1.3997975856
	 C          -4.5136614840        2.6386215834       -0.2554153625
	 C           3.6712499021       -1.9324240295       -0.1518297631
	 C           1.6176266672       -0.8817856905       -4.0415730570
	 C          -2.8142502470        1.3788119618        3.8350014276
	 C           5.6233211976       -2.9043820202       -1.5048462369
	 C           3.6062152134       -1.8719526319       -5.3214118858
	 C          -0.5554701510        0.2195960220       -0.0590184905
	 C           1.4866098170       -0.8621271031       -1.3387175395
	 C          -4.8108222503        2.6489696389        2.4693794377
	 C          -0.8613578322        0.2784177912        2.6183657414
	 N           5.6039021903       -2.8870050730       -4.0698599033
	 O          -6.6197443764        3.6749816123        3.5409119244
	 F           0.9221415815       -0.8505555911        4.0791891847
	 H          -2.4394417066        1.6003325449       -3.4319067316
	 H          -5.9547813001        3.5801205722       -1.3531397267
	 H           3.8254525228       -2.0003392344        1.8678599388
	 H           0.1191223549       -0.1047102346       -5.1721367462
	 H          -2.8973575634        1.3219578236        5.8698395822
	 H           7.2635740216       -3.7197922244       -0.6125912930
	 H           3.6967630667       -1.8944921259       -7.3558280352
	 H           7.0675727741       -3.6116352803       -5.0387039779
	             0.0018165822        0.0034789027        0.0001056682
	             0.0000201097       -0.0002775747       -0.0000402309
	             0.0015211007        0.0026121213        0.0000148150
	             0.0002963892        0.0003712535       -0.0000621269
	             0.0002255259       -0.0002131716        0.0002814536
	            -0.0000430582        0.0000108470       -0.0002913589
	            -0.0004321800        0.0000771749       -0.0002968710
	            -0.0014292179       -0.0033867403       -0.0003047961
	            -0.0026786951       -0.0039908291        0.0001922731
	             0.0000144579       -0.0000085401       -0.0000975438
	            -0.0003314220        0.0000793305       -0.0002414647
	             0.0005081314        0.0001669198        0.0003274522
	            -0.0001978879        0.0003628679        0.0000231390
	             0.0007388430        0.0005668049        0.0002832982
	            -0.0000719945        0.0002416713       -0.0000115913
	            -0.0006410835       -0.0001644713       -0.0002189643
	             0.0003004926        0.0000904249        0.0001695630
	             0.0000833970        0.0004552642       -0.0001034969
	            -0.0000065968        0.0000188128        0.0000573081
	             0.0002114536       -0.0005020531        0.0002891350
	            -0.0000698720        0.0000239394       -0.0000846727
	             0.0001655248       -0.0000129548        0.0000090121

	---Fragment 1 Intrafragment Coordinates---
	 - Coordinate -           - BOHR/RAD -       - ANG/DEG -
	 R(1,2)           =         2.558748	       1.354031
	 R(1,8)           =         2.708000	       1.433012
	 R(1,15)          =         2.035762	       1.077279
	 R(2,10)          =         2.740970	       1.450459
	 R(2,16)          =         2.041628	       1.080383
	 R(3,6)           =         2.566308	       1.358032
	 R(3,9)           =         2.706823	       1.432389
	 R(3,17)          =         2.026706	       1.072487
	 R(4,7)           =         2.563767	       1.356687
	 R(4,9)           =         2.706100	       1.432007
	 R(4,18)          =         2.031634	       1.075094
	 R(5,10)          =         2.732128	       1.445780
	 R(5,11)          =         2.550462	       1.349647
	 R(5,19)          =         2.037328	       1.078108
	 R(6,12)          =         2.565146	       1.357417
	 R(6,20)          =         2.037509	       1.078203
	 R(7,12)          =         2.566606	       1.358189
	 R(7,21)          =         2.036555	       1.077698
	 R(8,9)           =         2.641561	       1.397854
	 R(8,11)          =         2.695443	       1.426367
	 R(10,13)         =         2.339462	       1.237990
	 R(11,14)         =         2.566994	       1.358395
	 R(12,22)         =         1.898968	       1.004891
	 B(1,2,10)        =         2.130157	     122.049012
	 B(1,2,16)        =         2.108473	     120.806613
	 B(1,8,9)         =         2.113980	     121.122139
	 B(1,8,11)        =         1.981194	     113.514058
	 B(2,1,8)         =         2.157927	     123.640107
	 B(2,1,15)        =         2.047358	     117.304960
	 B(2,10,5)        =         1.999736	     114.576430
	 B(2,10,13)       =         2.142192	     122.738546
	 B(3,6,12)        =         2.116327	     121.256592
	 B(3,6,20)        =         2.132986	     122.211079
	 B(3,9,4)         =         1.977960	     113.328755
	 B(3,9,8)         =         2.181475	     124.989312
	 B(4,7,12)        =         2.109513	     120.866212
	 B(4,7,21)        =         2.138194	     122.509472
	 B(4,9,8)         =         2.122654	     121.619102
	 B(5,10,13)       =         2.141235	     122.683734
	 B(5,11,8)        =         2.177472	     124.759934
	 B(5,11,14)       =         2.037878	     116.761805
	 B(6,3,9)         =         2.132338	     122.173985
	 B(6,3,17)        =         2.042979	     117.054096
	 B(6,12,7)        =         2.089984	     119.747286
	 B(6,12,22)       =         2.096416	     120.115763
	 B(7,4,9)         =         2.140002	     122.613069
	 B(7,4,18)        =         2.028663	     116.233846
	 B(7,12,22)       =         2.096762	     120.135607
	 B(8,1,15)        =         2.077897	     119.054725
	 B(8,11,14)       =         2.067833	     118.478114
	 B(9,3,17)        =         2.107865	     120.771772
	 B(9,4,18)        =         2.114517	     121.152900
	 B(9,8,11)        =         2.186910	     125.300720
	 B(10,2,16)       =         2.044551	     117.144153
	 B(10,5,11)       =         2.119638	     121.446308
	 B(10,5,19)       =         2.074178	     118.841668
	 B(11,5,19)       =         2.089365	     119.711774
	 B(12,6,20)       =         2.033867	     116.531992
	 B(12,7,21)       =         2.035473	     116.624035
	 D(1,2,10,5)      =         0.005474	       0.313647
	 D(1,2,10,13)     =         3.140028	     179.910344
	 D(1,8,9,3)       =         3.011709	     172.558202
	 D(1,8,9,4)       =        -0.076155	      -4.363367
	 D(1,8,11,5)      =         0.022828	       1.307928
	 D(1,8,11,14)     =        -3.121282	    -178.836286
	 D(2,1,8,9)       =        -3.116287	    -178.550092
	 D(2,1,8,11)      =        -0.022537	      -1.291292
	 D(2,10,5,11)     =        -0.005442	      -0.311802
	 D(2,10,5,19)     =         3.132968	     179.505864
	 D(3,6,12,7)      =         0.005018	       0.287500
	 D(3,6,12,22)     =         3.139260	     179.866344
	 D(3,9,4,7)       =         0.022451	       1.286340
	 D(3,9,4,18)      =        -3.121977	    -178.876090
	 D(3,9,8,11)      =        -0.076125	      -4.361617
	 D(4,7,12,6)      =        -0.005202	      -0.298080
	 D(4,7,12,22)     =        -3.139443	    -179.876839
	 D(4,9,3,6)       =        -0.022543	      -1.291615
	 D(4,9,3,17)      =         3.121564	     178.852430
	 D(4,9,8,11)      =         3.119197	     178.716814
	 D(5,10,2,16)     =        -3.133151	    -179.516316
	 D(5,11,8,9)      =         3.114234	     178.432478
	 D(6,3,9,8)       =        -3.114313	    -178.436973
	 D(6,12,7,21)     =         3.133106	     179.513766
	 D(7,4,9,8)       =         3.116112	     178.540039
	 D(7,12,6,20)     =        -3.132966	    -179.505711
	 D(8,1,2,10)      =         0.009374	       0.537102
	 D(8,1,2,16)      =        -3.135293	    -179.639064
	 D(8,9,3,17)      =         0.029794	       1.707072
	 D(8,9,4,18)      =        -0.028316	      -1.622391
	 D(8,11,5,10)     =        -0.009598	      -0.549899
	 D(8,11,5,19)     =         3.135205	     179.633994
	 D(9,3,6,12)      =         0.009968	       0.571144
	 D(9,3,6,20)      =        -3.135441	    -179.647522
	 D(9,4,7,12)      =        -0.009629	      -0.551716
	 D(9,4,7,21)      =         3.135445	     179.647741
	 D(9,8,1,15)      =         0.028284	       1.620548
	 D(9,8,11,14)     =        -0.029875	      -1.711736
	 D(10,2,1,15)     =        -3.135148	    -179.630769
	 D(10,5,11,14)    =         3.134473	     179.592072
	 D(11,5,10,13)    =        -3.140000	    -179.908746
	 D(11,8,1,15)     =         3.122034	     178.879348
	 D(12,6,3,17)     =        -3.134050	    -179.567828
	 D(12,7,4,18)     =         3.134668	     179.603252
	 D(13,10,2,16)    =         0.001403	       0.080380
	 D(13,10,5,19)    =        -0.001590	      -0.091080
	 D(14,11,5,19)    =        -0.003910	      -0.224035
	 D(15,1,2,16)     =         0.003370	       0.193065
	 D(17,3,6,20)     =         0.003726	       0.213506
	 D(18,4,7,21)     =        -0.003443	      -0.197291
	 D(20,6,12,22)    =         0.001276	       0.073133
	 D(21,7,12,22)    =        -0.001134	      -0.064992
	 R(3,14)          =         5.160383	       2.730757

	Current energy   :      -652.8356705365

	Energy change for the previous step:
		Projected    :        -0.2896494568
		Actual       :         0.0003013580

	Performing BFGS update.
	Previous computed or guess Hessian on step 1.
	Steps to be used in Hessian update: 10 9
	Adding user-defined constraint: Fragment 1; Coordinate 62:
		Value =     3.011709; Fixed value    =    -3.141580
		Force =    -4.614967; Force constant =     0.750000
	Removing off-diagonal coupling between coordinate 62 and others.
	Taking RFO optimization step.
	Going to follow RFO solution 1.
	Using RFO vector 1.

	Determining step-restricting scale parameter for RS-RFO.
	Maximum step size allowed    0.10000

	 Iter      |step|        alpha        rfo_root  
	------------------------------------------------
	    0    19.27542       1.00000           1
	    1     8.41063       1.76250           1
	    2     3.21390       2.79369           1
	    3     1.08078       3.79574           1
	    4     0.50164       4.55685           1
	    5     0.33526       5.71327           1
	    6     0.24815      10.03709           1
	    7     0.17179      24.47637           1
	    8     0.12755      48.68109           1
	    9     0.10676      72.42403           1
	   10     0.10060      82.55571           1
	   11     0.10001      83.63233           1
	------------------------------------------------
	Norm of target step-size    0.10001
	Projected energy change by RFO approximation:        -0.2965611517

	Back-transformation to cartesian coordinates...
	The INTCO_EXCEPTion handler:
	TORS::compute_val: unable to compute torsion value
	Dynamic level is 0.
	exc.g_really_quit() is 0.

  **** Optimization has failed! (in 11 steps) ****
			--------------------------
			 OPTKING Finished Execution 
			--------------------------
	Cleaning optimization helper files.

*** Psi4 exiting successfully. Buy a developer a beer!
