
    -----------------------------------------------------------------------
          Psi4: An Open-Source Ab Initio Electronic Structure Package
                               Psi4 1.1 release

                         Git: Rev {HEAD} add49b9 


    R. M. Parrish, L. A. Burns, D. G. A. Smith, A. C. Simmonett,
    A. E. DePrince III, E. G. Hohenstein, U. Bozkaya, A. Yu. Sokolov,
    R. Di Remigio, R. M. Richard, J. F. Gonthier, A. M. James,
    H. R. McAlexander, A. Kumar, M. Saitow, X. Wang, B. P. Pritchard,
    P. Verma, H. F. Schaefer III, K. Patkowski, R. A. King, E. F. Valeev,
    F. A. Evangelista, J. M. Turney, T. D. Crawford, and C. D. Sherrill,
    J. Chem. Theory Comput. in press (2017).
    (doi: 10.1021/acs.jctc.7b00174)

    -----------------------------------------------------------------------


    Psi4 started on: Saturday, 11 November 2017 06:14PM

    Process ID:   3012
    PSIDATADIR: /cbio/jclab/home/chayas/anaconda/envs/py35/share/psi4
    Memory:     500.0 MiB
    Threads:    8
    
  ==> Input File <==

--------------------------------------------------------------------------

memory 5 Gb

molecule phepyrFOH_anion {
  symmetry C1
  -1 1 
  C      1.885   -1.036   -0.112
  C      0.807   -0.463   0.561
  C      4.518   -3.472   0.284
  C      4.634   -1.548   -1.154
  C      1.800   -1.079   2.676
  C      5.589   -3.998   -0.422
  C      5.700   -2.159   -1.795
  C      2.921   -1.631   0.608
  C      4.038   -2.224   -0.095
  C      0.764   -0.484   1.955
  C      2.878   -1.652   2.002
  N      6.194   -3.371   -1.455
  O      -0.227   0.043   2.574
  F      3.866   -2.220   2.709
  H      1.904   -1.013   -1.200
  H      0.011   -0.007   -0.025
  H      4.078   -4.031   1.105
  H      4.287   -0.572   -1.477
  H      1.791   -1.109   3.764
  H      5.999   -4.969   -0.166
  H      6.200   -1.673   -2.626
  units Angstrom
}

dih_string = "1 8 9 3 225"
set optking fixed_dihedral = $dih_string

optimize('MP2/aug-cc-PVTZ')
--------------------------------------------------------------------------

  Memory set to   4.657 GiB by Python driver.
gradient() will perform analytic gradient computation.

*** tstart() called on gpu-2-14.local
*** at Sat Nov 11 18:14:50 2017

    SCF Algorithm Type (re)set to DF.

*** tstart() called on gpu-2-14.local
*** at Sat Nov 11 18:14:50 2017

   => Loading Basis Set <=

    Name: AUG-CC-PVTZ
    Role: ORBITAL
    Keyword: BASIS
    atoms 1-11  entry C          line   221 file /cbio/jclab/home/chayas/anaconda/envs/py35/share/psi4/basis/aug-cc-pvtz.gbs 
    atoms 12    entry N          line   267 file /cbio/jclab/home/chayas/anaconda/envs/py35/share/psi4/basis/aug-cc-pvtz.gbs 
    atoms 13    entry O          line   313 file /cbio/jclab/home/chayas/anaconda/envs/py35/share/psi4/basis/aug-cc-pvtz.gbs 
    atoms 14    entry F          line   359 file /cbio/jclab/home/chayas/anaconda/envs/py35/share/psi4/basis/aug-cc-pvtz.gbs 
    atoms 15-21 entry H          line    34 file /cbio/jclab/home/chayas/anaconda/envs/py35/share/psi4/basis/aug-cc-pvtz.gbs 


         ---------------------------------------------------------
                                   SCF
            by Justin Turney, Rob Parrish, and Andy Simmonett
                              RHF Reference
                        8 Threads,   4768 MiB Core
         ---------------------------------------------------------

  ==> Geometry <==

    Molecular point group: c1
    Full point group: C1

    Geometry (in Angstrom), charge = -1, multiplicity = 1:

       Center              X                  Y                   Z               Mass       
    ------------   -----------------  -----------------  -----------------  -----------------
           C         -1.345077986828     0.767358594134    -0.780590486300    12.000000000000
           C         -2.423077986828     1.340358594134    -0.107590486300    12.000000000000
           C          1.287922013172    -1.668641405866    -0.384590486300    12.000000000000
           C          1.403922013172     0.255358594134    -1.822590486300    12.000000000000
           C         -1.430077986828     0.724358594134     2.007409513700    12.000000000000
           C          2.358922013172    -2.194641405866    -1.090590486300    12.000000000000
           C          2.469922013172    -0.355641405866    -2.463590486300    12.000000000000
           C         -0.309077986828     0.172358594134    -0.060590486300    12.000000000000
           C          0.807922013172    -0.420641405866    -0.763590486300    12.000000000000
           C         -2.466077986828     1.319358594134     1.286409513700    12.000000000000
           C         -0.352077986828     0.151358594134     1.333409513700    12.000000000000
           N          2.963922013172    -1.567641405866    -2.123590486300    14.003074004780
           O         -3.457077986828     1.846358594134     1.905409513700    15.994914619560
           F          0.635922013172    -0.416641405866     2.040409513700    18.998403224000
           H         -1.326077986828     0.790358594134    -1.868590486300     1.007825032070
           H         -3.219077986828     1.796358594134    -0.693590486300     1.007825032070
           H          0.847922013172    -2.227641405866     0.436409513700     1.007825032070
           H          1.056922013172     1.231358594134    -2.145590486300     1.007825032070
           H         -1.439077986828     0.694358594134     3.095409513700     1.007825032070
           H          2.768922013172    -3.165641405866    -0.834590486300     1.007825032070
           H          2.969922013172     0.130358594134    -3.294590486300     1.007825032070

  Running in c1 symmetry.

  Rotational constants: A =      0.06333  B =      0.01367  C =      0.01176 [cm^-1]
  Rotational constants: A =   1898.47717  B =    409.70516  C =    352.41838 [MHz]
  Nuclear repulsion =  802.833793341380556

  Charge       = -1
  Multiplicity = 1
  Electrons    = 98
  Nalpha       = 49
  Nbeta        = 49

  ==> Algorithm <==

  SCF Algorithm Type is DF.
  DIIS enabled.
  MOM disabled.
  Fractional occupation disabled.
  Guess Type is SAD.
  Energy threshold   = 1.00e-10
  Density threshold  = 1.00e-10
  Integral threshold = 0.00e+00

  ==> Primary Basis <==

  Basis Set: AUG-CC-PVTZ
    Blend: AUG-CC-PVTZ
    Number of shells: 259
    Number of basis function: 805
    Number of Cartesian functions: 945
    Spherical Harmonics?: true
    Max angular momentum: 3

   => Loading Basis Set <=

    Name: (AUG-CC-PVTZ AUX)
    Role: JKFIT
    Keyword: DF_BASIS_SCF
    atoms 1-11  entry C          line   161 file /cbio/jclab/home/chayas/anaconda/envs/py35/share/psi4/basis/aug-cc-pvtz-jkfit.gbs 
    atoms 12    entry N          line   223 file /cbio/jclab/home/chayas/anaconda/envs/py35/share/psi4/basis/aug-cc-pvtz-jkfit.gbs 
    atoms 13    entry O          line   285 file /cbio/jclab/home/chayas/anaconda/envs/py35/share/psi4/basis/aug-cc-pvtz-jkfit.gbs 
    atoms 14    entry F          line   347 file /cbio/jclab/home/chayas/anaconda/envs/py35/share/psi4/basis/aug-cc-pvtz-jkfit.gbs 
    atoms 15-21 entry H          line    69 file /cbio/jclab/home/chayas/anaconda/envs/py35/share/psi4/basis/aug-cc-pvtz-jkfit.gbs 

  ==> Pre-Iterations <==

   -------------------------------------------------------
    Irrep   Nso     Nmo     Nalpha   Nbeta   Ndocc  Nsocc
   -------------------------------------------------------
     A        805     805       0       0       0       0
   -------------------------------------------------------
    Total     805     805      49      49      49       0
   -------------------------------------------------------

  ==> Integral Setup <==

  ==> DFJK: Density-Fitted J/K Matrices <==

    J tasked:                  Yes
    K tasked:                  Yes
    wK tasked:                  No
    OpenMP threads:              8
    Integrals threads:           8
    Memory (MB):              3576
    Algorithm:                Disk
    Integral Cache:           NONE
    Schwarz Cutoff:          1E-12
    Fitting Condition:       1E-12

   => Auxiliary Basis Set <=

  Basis Set: (AUG-CC-PVTZ AUX)
    Blend: AUG-CC-PVTZ-JKFIT
    Number of shells: 518
    Number of basis function: 1778
    Number of Cartesian functions: 2219
    Spherical Harmonics?: true
    Max angular momentum: 4

  Minimum eigenvalue in the overlap matrix is 7.9871202657E-07.
  Using Symmetric Orthogonalization.

  SCF Guess: Superposition of Atomic Densities via on-the-fly atomic UHF.

  ==> Iterations <==

                           Total Energy        Delta E     RMS |[F,P]|

   @DF-RHF iter   0:  -661.74414132194056   -6.61744e+02   2.19144e-02 
   @DF-RHF iter   1:  -649.02318379673500    1.27210e+01   3.08792e-03 
   @DF-RHF iter   2:  -649.38607197787587   -3.62888e-01   2.25957e-03 DIIS
   @DF-RHF iter   3:  -649.58281742030806   -1.96745e-01   5.84451e-04 DIIS
   @DF-RHF iter   4:  -649.60544994980842   -2.26325e-02   2.22571e-04 DIIS
   @DF-RHF iter   5:  -649.60976070522327   -4.31076e-03   4.47938e-05 DIIS
   @DF-RHF iter   6:  -649.61035783218097   -5.97127e-04   2.65058e-05 DIIS
   @DF-RHF iter   7:  -649.61045932072648   -1.01489e-04   9.93020e-06 DIIS
   @DF-RHF iter   8:  -649.61047213746986   -1.28167e-05   2.22617e-06 DIIS
   @DF-RHF iter   9:  -649.61047374072234   -1.60325e-06   1.10490e-06 DIIS
   @DF-RHF iter  10:  -649.61047404128260   -3.00560e-07   6.48607e-07 DIIS
   @DF-RHF iter  11:  -649.61047412359380   -8.23112e-08   2.16480e-07 DIIS
   @DF-RHF iter  12:  -649.61047413452638   -1.09326e-08   1.15218e-07 DIIS
   @DF-RHF iter  13:  -649.61047413714596   -2.61957e-09   3.79562e-08 DIIS
   @DF-RHF iter  14:  -649.61047413760832   -4.62364e-10   1.95659e-08 DIIS
   @DF-RHF iter  15:  -649.61047413766312   -5.47971e-11   5.26170e-09 DIIS
   @DF-RHF iter  16:  -649.61047413766880   -5.68434e-12   2.34684e-09 DIIS
   @DF-RHF iter  17:  -649.61047413765937    9.43601e-12   1.08239e-09 DIIS
   @DF-RHF iter  18:  -649.61047413768802   -2.86491e-11   5.68953e-10 DIIS
   @DF-RHF iter  19:  -649.61047413769040   -2.38742e-12   2.59257e-10 DIIS
   @DF-RHF iter  20:  -649.61047413767437    1.60298e-11   6.99341e-11 DIIS

  ==> Post-Iterations <==

    Orbital Energies (a.u.)
    -----------------------

    Doubly Occupied:                                                      

       1A    -26.188615     2A    -20.302394     3A    -15.454920  
       4A    -11.191973     5A    -11.169859     6A    -11.168373  
       7A    -11.147335     8A    -11.124135     9A    -11.124096  
      10A    -11.121726    11A    -11.109838    12A    -11.084066  
      13A    -11.065624    14A    -11.064852    15A     -1.508789  
      16A     -1.141939    17A     -1.134134    18A     -1.025429  
      19A     -0.964941    20A     -0.925822    21A     -0.874461  
      22A     -0.848647    23A     -0.750696    24A     -0.739054  
      25A     -0.703088    26A     -0.676785    27A     -0.607877  
      28A     -0.584590    29A     -0.577520    30A     -0.564741  
      31A     -0.548274    32A     -0.536527    33A     -0.501295  
      34A     -0.490387    35A     -0.471631    36A     -0.463216  
      37A     -0.433548    38A     -0.415178    39A     -0.413019  
      40A     -0.384500    41A     -0.377165    42A     -0.357588  
      43A     -0.311115    44A     -0.308047    45A     -0.252346  
      46A     -0.243363    47A     -0.221407    48A     -0.201218  
      49A     -0.116079  

    Virtual:                                                              

      50A      0.098334    51A      0.100591    52A      0.115113  
      53A      0.120363    54A      0.123896    55A      0.128196  
      56A      0.132101    57A      0.154680    58A      0.166627  
      59A      0.173388    60A      0.179183    61A      0.183583  
      62A      0.186594    63A      0.187230    64A      0.189643  
      65A      0.196913    66A      0.198727    67A      0.204714  
      68A      0.206709    69A      0.212926    70A      0.213671  
      71A      0.218163    72A      0.221489    73A      0.226301  
      74A      0.229152    75A      0.231405    76A      0.235037  
      77A      0.237952    78A      0.241284    79A      0.247172  
      80A      0.254100    81A      0.256374    82A      0.260087  
      83A      0.263828    84A      0.266962    85A      0.275947  
      86A      0.276365    87A      0.288124    88A      0.293287  
      89A      0.298338    90A      0.312146    91A      0.313965  
      92A      0.320240    93A      0.321314    94A      0.322763  
      95A      0.327188    96A      0.329736    97A      0.332509  
      98A      0.333530    99A      0.336104   100A      0.345672  
     101A      0.349486   102A      0.352121   103A      0.362382  
     104A      0.364709   105A      0.366600   106A      0.373328  
     107A      0.381406   108A      0.383711   109A      0.385910  
     110A      0.391281   111A      0.399746   112A      0.403915  
     113A      0.408730   114A      0.409986   115A      0.414961  
     116A      0.419539   117A      0.420793   118A      0.423504  
     119A      0.430923   120A      0.437873   121A      0.440028  
     122A      0.446278   123A      0.452922   124A      0.458576  
     125A      0.460928   126A      0.467873   127A      0.472343  
     128A      0.474385   129A      0.481942   130A      0.486723  
     131A      0.492317   132A      0.501259   133A      0.507059  
     134A      0.510688   135A      0.514924   136A      0.518507  
     137A      0.532827   138A      0.535634   139A      0.539728  
     140A      0.543010   141A      0.548937   142A      0.558217  
     143A      0.558880   144A      0.562827   145A      0.564225  
     146A      0.564879   147A      0.573685   148A      0.575117  
     149A      0.578606   150A      0.584241   151A      0.586400  
     152A      0.587631   153A      0.596527   154A      0.597556  
     155A      0.600155   156A      0.602270   157A      0.603579  
     158A      0.607490   159A      0.610655   160A      0.620294  
     161A      0.622893   162A      0.626453   163A      0.631330  
     164A      0.632851   165A      0.634359   166A      0.638709  
     167A      0.644555   168A      0.646197   169A      0.654378  
     170A      0.656590   171A      0.659091   172A      0.666841  
     173A      0.677624   174A      0.682510   175A      0.686911  
     176A      0.695374   177A      0.698944   178A      0.702915  
     179A      0.706965   180A      0.710090   181A      0.713901  
     182A      0.716584   183A      0.730410   184A      0.731647  
     185A      0.734537   186A      0.750076   187A      0.753918  
     188A      0.759754   189A      0.770065   190A      0.773944  
     191A      0.784692   192A      0.791563   193A      0.797034  
     194A      0.802216   195A      0.805216   196A      0.812391  
     197A      0.814373   198A      0.819801   199A      0.824921  
     200A      0.831755   201A      0.840673   202A      0.848086  
     203A      0.854212   204A      0.857954   205A      0.859946  
     206A      0.863284   207A      0.867732   208A      0.872771  
     209A      0.877529   210A      0.881707   211A      0.882311  
     212A      0.889088   213A      0.902503   214A      0.911784  
     215A      0.917196   216A      0.923179   217A      0.933320  
     218A      0.945500   219A      0.949133   220A      0.955076  
     221A      0.965764   222A      0.976103   223A      0.978703  
     224A      0.981704   225A      0.983191   226A      0.985713  
     227A      0.994679   228A      1.000035   229A      1.003731  
     230A      1.007727   231A      1.013103   232A      1.016301  
     233A      1.017526   234A      1.027754   235A      1.034081  
     236A      1.038798   237A      1.041814   238A      1.044473  
     239A      1.052410   240A      1.055264   241A      1.060881  
     242A      1.063480   243A      1.071249   244A      1.077426  
     245A      1.080842   246A      1.084466   247A      1.089750  
     248A      1.093505   249A      1.096631   250A      1.101854  
     251A      1.108283   252A      1.112462   253A      1.117321  
     254A      1.124609   255A      1.129630   256A      1.133654  
     257A      1.137932   258A      1.143717   259A      1.144877  
     260A      1.149248   261A      1.152915   262A      1.159798  
     263A      1.167561   264A      1.169469   265A      1.175829  
     266A      1.177489   267A      1.178912   268A      1.184312  
     269A      1.189219   270A      1.192507   271A      1.196713  
     272A      1.200456   273A      1.203607   274A      1.217236  
     275A      1.221269   276A      1.225241   277A      1.228249  
     278A      1.230570   279A      1.238658   280A      1.250166  
     281A      1.255297   282A      1.256823   283A      1.264031  
     284A      1.267034   285A      1.275281   286A      1.281155  
     287A      1.284923   288A      1.292136   289A      1.294003  
     290A      1.297325   291A      1.305514   292A      1.311557  
     293A      1.314041   294A      1.318376   295A      1.321724  
     296A      1.326472   297A      1.333068   298A      1.333537  
     299A      1.339194   300A      1.350878   301A      1.353015  
     302A      1.365986   303A      1.369615   304A      1.374282  
     305A      1.383347   306A      1.385821   307A      1.392663  
     308A      1.395417   309A      1.403874   310A      1.408541  
     311A      1.417102   312A      1.424028   313A      1.430850  
     314A      1.436065   315A      1.440869   316A      1.456798  
     317A      1.462833   318A      1.468135   319A      1.473874  
     320A      1.486521   321A      1.491805   322A      1.493595  
     323A      1.504845   324A      1.507658   325A      1.510069  
     326A      1.521499   327A      1.525714   328A      1.533790  
     329A      1.548113   330A      1.558824   331A      1.567037  
     332A      1.573180   333A      1.581134   334A      1.592423  
     335A      1.599114   336A      1.600794   337A      1.607692  
     338A      1.614442   339A      1.627904   340A      1.629983  
     341A      1.641300   342A      1.652757   343A      1.657760  
     344A      1.669159   345A      1.685426   346A      1.689054  
     347A      1.692711   348A      1.703204   349A      1.710575  
     350A      1.722840   351A      1.730231   352A      1.738115  
     353A      1.745639   354A      1.750302   355A      1.758736  
     356A      1.763000   357A      1.772307   358A      1.774749  
     359A      1.786079   360A      1.801666   361A      1.814114  
     362A      1.818680   363A      1.822193   364A      1.824024  
     365A      1.832933   366A      1.840857   367A      1.847086  
     368A      1.848754   369A      1.854413   370A      1.856175  
     371A      1.862545   372A      1.889632   373A      1.901663  
     374A      1.906074   375A      1.908785   376A      1.913663  
     377A      1.927561   378A      1.933159   379A      1.936777  
     380A      1.943519   381A      1.948272   382A      1.960864  
     383A      1.980068   384A      1.987273   385A      2.007076  
     386A      2.007169   387A      2.012083   388A      2.015516  
     389A      2.026653   390A      2.027370   391A      2.043192  
     392A      2.047184   393A      2.056657   394A      2.066743  
     395A      2.078444   396A      2.079560   397A      2.085961  
     398A      2.088453   399A      2.096983   400A      2.106013  
     401A      2.116679   402A      2.124242   403A      2.128270  
     404A      2.132436   405A      2.144702   406A      2.148073  
     407A      2.154915   408A      2.165517   409A      2.173324  
     410A      2.175311   411A      2.177445   412A      2.189086  
     413A      2.202592   414A      2.204953   415A      2.214401  
     416A      2.227832   417A      2.235773   418A      2.246010  
     419A      2.257156   420A      2.260270   421A      2.266825  
     422A      2.274413   423A      2.285325   424A      2.287448  
     425A      2.304481   426A      2.320377   427A      2.323491  
     428A      2.326679   429A      2.333681   430A      2.342143  
     431A      2.352452   432A      2.363553   433A      2.375647  
     434A      2.390429   435A      2.396674   436A      2.404032  
     437A      2.412580   438A      2.417532   439A      2.429951  
     440A      2.433432   441A      2.449032   442A      2.459983  
     443A      2.468607   444A      2.474747   445A      2.489253  
     446A      2.496279   447A      2.505559   448A      2.519136  
     449A      2.522638   450A      2.537507   451A      2.546060  
     452A      2.564925   453A      2.577032   454A      2.585701  
     455A      2.593921   456A      2.608594   457A      2.620439  
     458A      2.634949   459A      2.638585   460A      2.651560  
     461A      2.668677   462A      2.670718   463A      2.678889  
     464A      2.685221   465A      2.697131   466A      2.707017  
     467A      2.718459   468A      2.737744   469A      2.747699  
     470A      2.756738   471A      2.770450   472A      2.806584  
     473A      2.817733   474A      2.843513   475A      2.850416  
     476A      2.869798   477A      2.875979   478A      2.880114  
     479A      2.890926   480A      2.902592   481A      2.916254  
     482A      2.929733   483A      2.948888   484A      2.963284  
     485A      2.992446   486A      3.004307   487A      3.020581  
     488A      3.032546   489A      3.069810   490A      3.090799  
     491A      3.098368   492A      3.111657   493A      3.143838  
     494A      3.159032   495A      3.179454   496A      3.191678  
     497A      3.217762   498A      3.227101   499A      3.233610  
     500A      3.255969   501A      3.275677   502A      3.293318  
     503A      3.295070   504A      3.312018   505A      3.322478  
     506A      3.329245   507A      3.347443   508A      3.351999  
     509A      3.370041   510A      3.378211   511A      3.402672  
     512A      3.425301   513A      3.432033   514A      3.439651  
     515A      3.456453   516A      3.469319   517A      3.476528  
     518A      3.485363   519A      3.500442   520A      3.503610  
     521A      3.512931   522A      3.519441   523A      3.526639  
     524A      3.542184   525A      3.550796   526A      3.566227  
     527A      3.572205   528A      3.581681   529A      3.597617  
     530A      3.599439   531A      3.607174   532A      3.613422  
     533A      3.626431   534A      3.636900   535A      3.639331  
     536A      3.650611   537A      3.660838   538A      3.675338  
     539A      3.679255   540A      3.686629   541A      3.692082  
     542A      3.704961   543A      3.708074   544A      3.714887  
     545A      3.722144   546A      3.733498   547A      3.742140  
     548A      3.750974   549A      3.764198   550A      3.777587  
     551A      3.780064   552A      3.784951   553A      3.794212  
     554A      3.800547   555A      3.817413   556A      3.822967  
     557A      3.832241   558A      3.844258   559A      3.846849  
     560A      3.864506   561A      3.871748   562A      3.884004  
     563A      3.895797   564A      3.901047   565A      3.910339  
     566A      3.918323   567A      3.925025   568A      3.929723  
     569A      3.941189   570A      3.950123   571A      3.956187  
     572A      3.970165   573A      3.973785   574A      3.989859  
     575A      4.000451   576A      4.009228   577A      4.017213  
     578A      4.028130   579A      4.034426   580A      4.038992  
     581A      4.049244   582A      4.057789   583A      4.067230  
     584A      4.072154   585A      4.076236   586A      4.092523  
     587A      4.096702   588A      4.111683   589A      4.118864  
     590A      4.120377   591A      4.134587   592A      4.137867  
     593A      4.151113   594A      4.162396   595A      4.166882  
     596A      4.174000   597A      4.179889   598A      4.189138  
     599A      4.196390   600A      4.215480   601A      4.229481  
     602A      4.231317   603A      4.233378   604A      4.242039  
     605A      4.248398   606A      4.268260   607A      4.277159  
     608A      4.286860   609A      4.302186   610A      4.316897  
     611A      4.318189   612A      4.326953   613A      4.338404  
     614A      4.357023   615A      4.361910   616A      4.366394  
     617A      4.380737   618A      4.403112   619A      4.410724  
     620A      4.415275   621A      4.427985   622A      4.437272  
     623A      4.441367   624A      4.445489   625A      4.463092  
     626A      4.471732   627A      4.482530   628A      4.488511  
     629A      4.492070   630A      4.499052   631A      4.515225  
     632A      4.516750   633A      4.518433   634A      4.523254  
     635A      4.536137   636A      4.547379   637A      4.554866  
     638A      4.560200   639A      4.572684   640A      4.591155  
     641A      4.599524   642A      4.613592   643A      4.630643  
     644A      4.644947   645A      4.651215   646A      4.671317  
     647A      4.674461   648A      4.696054   649A      4.712363  
     650A      4.717282   651A      4.725903   652A      4.744954  
     653A      4.754208   654A      4.766425   655A      4.778791  
     656A      4.792706   657A      4.799244   658A      4.811667  
     659A      4.837271   660A      4.842332   661A      4.861008  
     662A      4.889993   663A      4.898041   664A      4.906853  
     665A      4.929161   666A      4.935118   667A      4.941510  
     668A      4.972482   669A      4.986399   670A      4.997738  
     671A      5.003354   672A      5.030690   673A      5.040775  
     674A      5.058628   675A      5.076608   676A      5.087714  
     677A      5.101478   678A      5.103269   679A      5.116465  
     680A      5.128891   681A      5.136299   682A      5.157391  
     683A      5.165540   684A      5.176537   685A      5.187476  
     686A      5.201967   687A      5.210852   688A      5.233215  
     689A      5.243371   690A      5.252385   691A      5.270206  
     692A      5.273108   693A      5.277608   694A      5.299768  
     695A      5.304926   696A      5.309873   697A      5.315189  
     698A      5.330559   699A      5.353299   700A      5.360807  
     701A      5.374211   702A      5.379683   703A      5.412259  
     704A      5.432745   705A      5.450318   706A      5.469023  
     707A      5.477640   708A      5.482094   709A      5.511582  
     710A      5.521822   711A      5.527627   712A      5.557187  
     713A      5.561408   714A      5.585081   715A      5.591586  
     716A      5.638705   717A      5.652115   718A      5.665888  
     719A      5.683081   720A      5.710288   721A      5.735952  
     722A      5.767673   723A      5.777582   724A      5.811268  
     725A      5.848100   726A      5.863397   727A      5.876795  
     728A      5.905720   729A      5.914495   730A      5.927385  
     731A      5.959031   732A      5.981567   733A      5.997625  
     734A      6.017126   735A      6.042132   736A      6.096270  
     737A      6.129578   738A      6.178794   739A      6.190716  
     740A      6.253182   741A      6.304905   742A      6.315930  
     743A      6.352896   744A      6.388282   745A      6.422073  
     746A      6.440752   747A      6.484860   748A      6.525214  
     749A      6.556457   750A      6.614957   751A      6.621526  
     752A      6.657112   753A      6.709125   754A      6.798033  
     755A      6.811168   756A      6.832224   757A      6.837490  
     758A      6.895096   759A      6.897153   760A      6.974852  
     761A      6.983937   762A      7.007385   763A      7.041889  
     764A      7.100414   765A      7.169565   766A      7.186874  
     767A      7.191364   768A      7.297378   769A      7.331315  
     770A      7.353832   771A      7.531348   772A      7.593454  
     773A      7.608439   774A      7.642149   775A      7.916258  
     776A      7.937208   777A      8.019089   778A      8.141191  
     779A      8.212938   780A      9.181838   781A      9.200859  
     782A      9.403917   783A      9.425502   784A      9.549540  
     785A      9.659178   786A      9.690582   787A      9.744759  
     788A      9.777066   789A      9.855047   790A     10.170714  
     791A     10.224604   792A     15.648416   793A     16.040330  
     794A     16.386357   795A     16.689769   796A     16.842342  
     797A     16.950897   798A     18.564070   799A     18.822787  
     800A     19.383183   801A     19.965192   802A     20.329249  
     803A     20.393854   804A     20.561527   805A     21.909364  

    Final Occupation by Irrep:
              A 
    DOCC [    49 ]

  Energy converged.

  @DF-RHF Final Energy:  -649.61047413767437

   => Energetics <=

    Nuclear Repulsion Energy =            802.8337933413805558
    One-Electron Energy =               -2494.9040984304178892
    Two-Electron Energy =                1042.4598309513630738
    DFT Exchange-Correlation Energy =       0.0000000000000000
    Empirical Dispersion Energy =           0.0000000000000000
    PCM Polarization Energy =               0.0000000000000000
    EFP Energy =                            0.0000000000000000
    Total Energy =                       -649.6104741376743732



Properties will be evaluated at   0.000000,   0.000000,   0.000000 Bohr

Properties computed using the SCF density matrix

  Nuclear Dipole Moment: (a.u.)
     X:     0.9306      Y:    -0.2971      Z:    -6.8829

  Electronic Dipole Moment: (a.u.)
     X:     1.6856      Y:    -1.1065      Z:     5.1453

  Dipole Moment: (a.u.)
     X:     2.6161      Y:    -1.4036      Z:    -1.7376     Total:     3.4400

  Dipole Moment: (Debye)
     X:     6.6495      Y:    -3.5675      Z:    -4.4165     Total:     8.7435


*** tstop() called on gpu-2-14.local at Sat Nov 11 18:22:33 2017
Module time:
	user time   =    1133.04 seconds =      18.88 minutes
	system time =      49.78 seconds =       0.83 minutes
	total time  =        463 seconds =       7.72 minutes
Total time:
	user time   =    1133.04 seconds =      18.88 minutes
	system time =      49.78 seconds =       0.83 minutes
	total time  =        463 seconds =       7.72 minutes

  //>>>>>>>>>>>>>>>>>>>>>>>>>>>>>>>>>>>//
  //               DFMP2               //
  //<<<<<<<<<<<<<<<<<<<<<<<<<<<<<<<<<<<//

   => Loading Basis Set <=

    Name: (AUG-CC-PVTZ AUX)
    Role: RIFIT
    Keyword: DF_BASIS_MP2
    atoms 1-11  entry C          line   147 file /cbio/jclab/home/chayas/anaconda/envs/py35/share/psi4/basis/aug-cc-pvtz-ri.gbs 
    atoms 12    entry N          line   205 file /cbio/jclab/home/chayas/anaconda/envs/py35/share/psi4/basis/aug-cc-pvtz-ri.gbs 
    atoms 13    entry O          line   263 file /cbio/jclab/home/chayas/anaconda/envs/py35/share/psi4/basis/aug-cc-pvtz-ri.gbs 
    atoms 14    entry F          line   321 file /cbio/jclab/home/chayas/anaconda/envs/py35/share/psi4/basis/aug-cc-pvtz-ri.gbs 
    atoms 15-21 entry H          line    29 file /cbio/jclab/home/chayas/anaconda/envs/py35/share/psi4/basis/aug-cc-pvtz-ri.gbs 

	 --------------------------------------------------------
	                          DF-MP2                         
	      2nd-Order Density-Fitted Moller-Plesset Theory     
	              RMP2 Wavefunction,   8 Threads             
	                                                         
	        Rob Parrish, Justin Turney, Andy Simmonett,      
	           Ed Hohenstein, and C. David Sherrill          
	 --------------------------------------------------------

   => Auxiliary Basis Set <=

  Basis Set: (AUG-CC-PVTZ AUX)
    Blend: AUG-CC-PVTZ-RI
    Number of shells: 490
    Number of basis function: 1806
    Number of Cartesian functions: 2289
    Spherical Harmonics?: true
    Max angular momentum: 4

	 --------------------------------------------------------
	                 NBF =   805, NAUX =  1806
	 --------------------------------------------------------
	   CLASS    FOCC     OCC    AOCC    AVIR     VIR    FVIR
	   PAIRS       0      49      49     756     756       0
	 --------------------------------------------------------


         ------------------------------------------------------------
                                     CPHF                           
                                  Rob Parrish                       
         ------------------------------------------------------------

  ==> Geometry <==

    Molecular point group: c1
    Full point group: C1

    Geometry (in Angstrom), charge = -1, multiplicity = 1:

       Center              X                  Y                   Z               Mass       
    ------------   -----------------  -----------------  -----------------  -----------------
           C         -1.345077986828     0.767358594134    -0.780590486300    12.000000000000
           C         -2.423077986828     1.340358594134    -0.107590486300    12.000000000000
           C          1.287922013172    -1.668641405866    -0.384590486300    12.000000000000
           C          1.403922013172     0.255358594134    -1.822590486300    12.000000000000
           C         -1.430077986828     0.724358594134     2.007409513700    12.000000000000
           C          2.358922013172    -2.194641405866    -1.090590486300    12.000000000000
           C          2.469922013172    -0.355641405866    -2.463590486300    12.000000000000
           C         -0.309077986828     0.172358594134    -0.060590486300    12.000000000000
           C          0.807922013172    -0.420641405866    -0.763590486300    12.000000000000
           C         -2.466077986828     1.319358594134     1.286409513700    12.000000000000
           C         -0.352077986828     0.151358594134     1.333409513700    12.000000000000
           N          2.963922013172    -1.567641405866    -2.123590486300    14.003074004780
           O         -3.457077986828     1.846358594134     1.905409513700    15.994914619560
           F          0.635922013172    -0.416641405866     2.040409513700    18.998403224000
           H         -1.326077986828     0.790358594134    -1.868590486300     1.007825032070
           H         -3.219077986828     1.796358594134    -0.693590486300     1.007825032070
           H          0.847922013172    -2.227641405866     0.436409513700     1.007825032070
           H          1.056922013172     1.231358594134    -2.145590486300     1.007825032070
           H         -1.439077986828     0.694358594134     3.095409513700     1.007825032070
           H          2.768922013172    -3.165641405866    -0.834590486300     1.007825032070
           H          2.969922013172     0.130358594134    -3.294590486300     1.007825032070

  Nuclear repulsion =  802.833793341380556
  Reference energy  = -649.610474137674373

  ==> Basis Set <==

  Basis Set: AUG-CC-PVTZ
    Blend: AUG-CC-PVTZ
    Number of shells: 259
    Number of basis function: 805
    Number of Cartesian functions: 945
    Spherical Harmonics?: true
    Max angular momentum: 3

  ==> CGRSolver (by Rob Parrish) <==

   Number of roots    =         1
   Preconditioning    =    JACOBI
   Convergence cutoff =     1E-06
   Maximum iterations =       100

  ==> CPHFRHamiltonian (by Rob Parrish) <== 

  ==> DFJK: Density-Fitted J/K Matrices <==

    J tasked:                  Yes
    K tasked:                  Yes
    wK tasked:                  No
    OpenMP threads:              8
    Integrals threads:           8
    Memory (MB):              3576
    Algorithm:                Disk
    Integral Cache:           NONE
    Schwarz Cutoff:          1E-12
    Fitting Condition:       1E-12

   => Auxiliary Basis Set <=

  Basis Set: (AUG-CC-PVTZ AUX)
    Blend: AUG-CC-PVTZ-JKFIT
    Number of shells: 518
    Number of basis function: 1778
    Number of Cartesian functions: 2219
    Spherical Harmonics?: true
    Max angular momentum: 4

  ==> CPHF Iterations <==

  => Iterations <=

             Iter  Converged  Remaining    Residual
  CGR           1          0          1   1.313E-01
  CGR           2          0          1   4.819E-02
  CGR           3          0          1   2.864E-02
  CGR           4          0          1   1.076E-02
  CGR           5          0          1   4.947E-03
  CGR           6          0          1   2.517E-03
  CGR           7          0          1   9.872E-04
  CGR           8          0          1   3.771E-04
  CGR           9          0          1   1.221E-04
  CGR          10          0          1   3.572E-05
  CGR          11          0          1   1.384E-05
  CGR          12          0          1   3.996E-06
  CGR          13          0          1   1.737E-06
  CGR          14          1          0   8.577E-07

    CGRSolver converged.

  ==> DFCorrGrad: Density-Fitted Correlated Gradients <==

    OpenMP threads:              8
    Integrals threads:           8
    Memory (MB):              3576
    Schwarz Cutoff:          0E+00
    Fitting Condition:       1E-12

   => Auxiliary Basis Set <=

  Basis Set: (AUG-CC-PVTZ AUX)
    Blend: AUG-CC-PVTZ-JKFIT
    Number of shells: 518
    Number of basis function: 1778
    Number of Cartesian functions: 2219
    Spherical Harmonics?: true
    Max angular momentum: 4

	-----------------------------------------------------------
	 ==================> DF-MP2 Energies <==================== 
	-----------------------------------------------------------
	 Reference Energy          =    -649.6104741376743732 [Eh]
	 Singles Energy            =      -0.0000000000000005 [Eh]
	 Same-Spin Energy          =      -0.6862646790511491 [Eh]
	 Opposite-Spin Energy      =      -2.0262851981638779 [Eh]
	 Correlation Energy        =      -2.7125498772150274 [Eh]
	 Total Energy              =    -652.3230240148893699 [Eh]
	-----------------------------------------------------------
	 ================> DF-SCS-MP2 Energies <================== 
	-----------------------------------------------------------
	 SCS Same-Spin Scale       =       0.3333333333333333 [-]
	 SCS Opposite-Spin Scale   =       1.2000000000000000 [-]
	 SCS Same-Spin Energy      =      -0.2287548930170497 [Eh]
	 SCS Opposite-Spin Energy  =      -2.4315422377966533 [Eh]
	 SCS Correlation Energy    =      -2.6602971308137033 [Eh]
	 SCS Total Energy          =    -652.2707712684880335 [Eh]
	-----------------------------------------------------------


  -Total Gradient:
     Atom            X                  Y                   Z
    ------   -----------------  -----------------  -----------------
       1        0.017026261658    -0.014841053604    -0.011780417042
       2       -0.022269501541     0.011099613438     0.040669529496
       3       -0.014332688341     0.006389695295     0.006471133761
       4       -0.009577565162     0.009440796529     0.007979321368
       5       -0.044373661233     0.024228963223    -0.001707411313
       6       -0.004952213553    -0.004605940635     0.006948791870
       7       -0.003784233025     0.010387276129    -0.000275753834
       8       -0.019545741185     0.010626055736     0.006403860864
       9        0.016000386793    -0.009052822100    -0.011526038941
      10        0.047864068538    -0.025915615113    -0.029208493756
      11        0.044950843263    -0.018350055208     0.002339155678
      12        0.007528549819    -0.005176226880    -0.004572330522
      13       -0.002315281061     0.001448431160     0.000329794866
      14       -0.011897333403     0.004848271354    -0.005488115539
      15       -0.002953918983     0.002675858758    -0.004706120865
      16       -0.001660724699     0.001955259560    -0.008832728247
      17       -0.000646047882    -0.004943023784     0.005069354033
      18       -0.000349349783     0.003665132135    -0.003977391975
      19        0.003423741317    -0.002812240529     0.007036762377
      20        0.001106542076    -0.001224073430     0.000235171393
      21        0.000757866385     0.000155697972    -0.001408073663


*** tstop() called on gpu-2-14.local at Sat Nov 11 18:55:57 2017
Module time:
	user time   =    5319.43 seconds =      88.66 minutes
	system time =     108.53 seconds =       1.81 minutes
	total time  =       2467 seconds =      41.12 minutes
Total time:
	user time   =    5319.43 seconds =      88.66 minutes
	system time =     108.53 seconds =       1.81 minutes
	total time  =       2467 seconds =      41.12 minutes

			-----------------------------------------
			 OPTKING 2.0: for geometry optimizations 
			  - R.A. King,  Bethel University        
			-----------------------------------------

	Internal coordinates to be generated automatically.
	Detected frag 1 with atoms:  1 2 3 4 5 6 7 8 9 10 11 12 13 14 15 16 17 18 19 20
	 21
	---Fragment 1 Bond Connectivity---
	 1 : 2 8 15
	 2 : 1 10 16
	 3 : 6 9 17
	 4 : 7 9 18
	 5 : 10 11 19
	 6 : 3 12 20
	 7 : 4 12 21
	 8 : 1 9 11
	 9 : 3 4 8
	 10 : 2 5 13
	 11 : 5 8 14
	 12 : 6 7
	 13 : 10
	 14 : 11
	 15 : 1
	 16 : 2
	 17 : 3
	 18 : 4
	 19 : 5
	 20 : 6
	 21 : 7

	Assuming in current code that numbering for constraints corresponds to unified fragment.
	Fixed dihedral atom list: 
	     1     8     9     3
	---Fragment 1 Geometry and Gradient---
	 C          -2.5418290225        1.4500975886       -1.4751022410
	 C          -4.5789537937        2.5329106628       -0.2033165536
	 C           2.4338198854       -3.1532752711       -0.7267706924
	 C           2.6530281168        0.4825578086       -3.4441968715
	 C          -2.7024557438        1.3688393649        3.7934542174
	 C           4.4577165737       -4.1472712170       -2.0609173422
	 C           4.6674761745       -0.6720648586       -4.6555113227
	 C          -0.5840727488        0.3257105396       -0.1144994254
	 C           1.5267513416       -0.7948970572       -1.4429768968
	 C          -4.6602120174        2.4932264140        2.4309616756
	 C          -0.6653309725        0.2860262908        2.5197788039
	 N           5.6010008841       -2.9624129317       -4.0130044375
	 O          -6.5329306151        3.4891120860        3.6007021519
	 F           1.2017184468       -0.7873381527        3.8558151798
	 H          -2.5059242260        1.4935612897       -3.5311242736
	 H          -6.0831757955        3.3946257794       -1.3106960675
	 H           1.6023403869       -4.2096321794        0.8246944627
	 H           1.9972931487        2.3269305143       -4.0545784124
	 H          -2.7194632790        1.3121475809        5.8494762500
	 H           5.2325042882       -5.9821952920       -1.5771474522
	 H           5.6123392409        0.2463420420       -6.2258737391
	             0.0170262617       -0.0148410536       -0.0117804170
	            -0.0222695015        0.0110996134        0.0406695295
	            -0.0143326883        0.0063896953        0.0064711338
	            -0.0095775652        0.0094407965        0.0079793214
	            -0.0443736612        0.0242289632       -0.0017074113
	            -0.0049522136       -0.0046059406        0.0069487919
	            -0.0037842330        0.0103872761       -0.0002757538
	            -0.0195457412        0.0106260557        0.0064038609
	             0.0160003868       -0.0090528221       -0.0115260389
	             0.0478640685       -0.0259156151       -0.0292084938
	             0.0449508433       -0.0183500552        0.0023391557
	             0.0075285498       -0.0051762269       -0.0045723305
	            -0.0023152811        0.0014484312        0.0003297949
	            -0.0118973334        0.0048482714       -0.0054881155
	            -0.0029539190        0.0026758588       -0.0047061209
	            -0.0016607247        0.0019552596       -0.0088327282
	            -0.0006460479       -0.0049430238        0.0050693540
	            -0.0003493498        0.0036651321       -0.0039773920
	             0.0034237413       -0.0028122405        0.0070367624
	             0.0011065421       -0.0012240734        0.0002351714
	             0.0007578664        0.0001556980       -0.0014080737

	Previous optimization step data not found.  Starting new optimization.

	---Fragment 1 Intrafragment Coordinates---
	 - Coordinate -           - BOHR/RAD -       - ANG/DEG -
	 R(1,2)           =         2.634350	       1.394038
	 R(1,8)           =         2.635962	       1.394891
	 R(1,15)          =         2.056795	       1.088409
	 R(2,10)          =         2.635830	       1.394821
	 R(2,16)          =         2.057067	       1.088553
	 R(3,6)           =         2.619949	       1.386417
	 R(3,9)           =         2.626342	       1.389800
	 R(3,17)          =         2.052874	       1.086334
	 R(4,7)           =         2.618862	       1.385842
	 R(4,9)           =         2.627788	       1.390566
	 R(4,18)          =         2.050430	       1.085041
	 R(5,10)          =         2.636938	       1.395407
	 R(5,11)          =         2.635263	       1.394521
	 R(5,19)          =         2.056874	       1.088451
	 R(6,12)          =         2.553749	       1.351386
	 R(6,20)          =         2.049701	       1.084655
	 R(7,12)          =         2.555382	       1.352250
	 R(7,21)          =         2.049945	       1.084784
	 R(8,9)           =         2.734263	       1.446909
	 R(8,11)          =         2.635830	       1.394821
	 R(10,13)         =         2.422221	       1.281784
	 R(11,14)         =         2.534359	       1.341125
	 B(1,2,10)        =         2.094553	     120.009056
	 B(1,2,16)        =         2.068903	     118.539404
	 B(1,8,9)         =         2.091392	     119.827938
	 B(1,8,11)        =         2.093692	     119.959722
	 B(2,1,8)         =         2.094940	     120.031219
	 B(2,1,15)        =         2.079908	     119.169966
	 B(2,10,5)        =         2.094306	     119.994870
	 B(2,10,13)       =         2.094719	     120.018581
	 B(3,6,12)        =         2.164051	     123.990997
	 B(3,6,20)        =         2.107675	     120.760872
	 B(3,9,4)         =         2.089994	     119.747837
	 B(3,9,8)         =         2.096883	     120.142539
	 B(4,7,12)        =         2.165023	     124.046695
	 B(4,7,21)        =         2.107545	     120.753452
	 B(4,9,8)         =         2.096307	     120.109546
	 B(5,10,13)       =         2.094160	     119.986548
	 B(5,11,8)        =         2.095181	     120.045019
	 B(5,11,14)       =         2.081414	     119.256220
	 B(6,3,9)         =         2.058522	     117.944644
	 B(6,3,17)        =         2.097292	     120.165996
	 B(6,12,7)        =         2.031406	     116.390995
	 B(7,4,9)         =         2.057373	     117.878788
	 B(7,4,18)        =         2.100046	     120.323796
	 B(8,1,15)        =         2.108336	     120.798746
	 B(8,11,14)       =         2.106591	     120.698759
	 B(9,3,17)        =         2.127370	     121.889332
	 B(9,4,18)        =         2.125764	     121.797280
	 B(9,8,11)        =         2.098101	     120.212327
	 B(10,2,16)       =         2.119728	     121.451467
	 B(10,5,11)       =         2.093699	     119.960108
	 B(10,5,19)       =         2.120101	     121.472852
	 B(11,5,19)       =         2.069385	     118.567038
	 B(12,6,20)       =         2.011459	     115.248094
	 B(12,7,21)       =         2.010617	     115.199851
	 D(1,2,10,5)      =        -0.000325	      -0.018609
	 D(1,2,10,13)     =         3.141392	     179.988520
	 D(1,8,9,3)       =        -2.356300	    -135.006021
	 D(1,8,9,4)       =         0.783527	      44.892812
	 D(1,8,11,5)      =         0.000325	       0.018608
	 D(1,8,11,14)     =        -3.141528	    -179.996269
	 D(2,1,8,9)       =        -3.141211	    -179.978157
	 D(2,1,8,11)      =        -0.000348	      -0.019945
	 D(2,10,5,11)     =         0.000301	       0.017261
	 D(2,10,5,19)     =        -3.141543	    -179.997173
	 D(3,6,12,7)      =        -0.000213	      -0.012231
	 D(3,9,4,7)       =        -0.001155	      -0.066203
	 D(3,9,4,18)      =        -3.140415	    -179.932515
	 D(3,9,8,11)      =         0.786024	      45.035873
	 D(4,7,12,6)      =        -0.000712	      -0.040812
	 D(4,9,3,6)       =         0.000326	       0.018701
	 D(4,9,3,17)      =        -3.140207	    -179.920631
	 D(4,9,8,11)      =        -2.357334	    -135.065294
	 D(5,10,2,16)     =         3.139529	     179.881752
	 D(5,11,8,9)      =         3.141185	     179.976658
	 D(6,3,9,8)       =         3.140160	     179.917901
	 D(6,12,7,21)     =         3.141186	     179.976692
	 D(7,4,9,8)       =        -3.140989	    -179.965437
	 D(7,12,6,20)     =         3.140151	     179.917374
	 D(8,1,2,10)      =         0.000348	       0.019955
	 D(8,1,2,16)      =        -3.139556	    -179.883288
	 D(8,9,3,17)      =        -0.000374	      -0.021431
	 D(8,9,4,18)      =         0.002937	       0.168251
	 D(8,11,5,10)     =        -0.000301	      -0.017270
	 D(8,11,5,19)     =         3.141536	     179.996748
	 D(9,3,6,12)      =         0.000391	       0.022407
	 D(9,3,6,20)      =        -3.139908	    -179.903498
	 D(9,4,7,12)      =         0.001398	       0.080125
	 D(9,4,7,21)      =        -3.140516	    -179.938304
	 D(9,8,1,15)      =         0.002066	       0.118384
	 D(9,8,11,14)     =        -0.000667	      -0.038219
	 D(10,2,1,15)     =         3.140283	     179.924984
	 D(10,5,11,14)    =         3.141547	     179.997392
	 D(11,5,10,13)    =        -3.141416	    -179.989865
	 D(11,8,1,15)     =        -3.140256	    -179.923403
	 D(12,6,3,17)     =         3.140944	     179.962828
	 D(12,7,4,18)     =         3.140694	     179.948492
	 D(13,10,2,16)    =        -0.001939	      -0.111119
	 D(13,10,5,19)    =        -0.000075	      -0.004300
	 D(14,11,5,19)    =         0.000199	       0.011410
	 D(15,1,2,16)     =         0.000379	       0.021741
	 D(17,3,6,20)     =         0.000644	       0.036922
	 D(18,4,7,21)     =        -0.001221	      -0.069938
	 R(3,14)          =         5.302436	       2.805928

	Current energy   :      -652.3230240149

	Generating empirical Hessian (Schlegel '84) for each fragment.
	Adding user-defined constraint: Fragment 1; Coordinate 59:
		Value =    -2.356300; Fixed value    =    -2.356194
		Force =     0.000053; Force constant =     0.500000
	Removing off-diagonal coupling between coordinate 59 and others.
	Taking RFO optimization step.
	Going to follow RFO solution 1.
	Using RFO vector 1.

	Determining step-restricting scale parameter for RS-RFO.
	Maximum step size allowed    0.10000

	 Iter      |step|        alpha        rfo_root  
	------------------------------------------------
	    0     0.27506       1.00000           1
	    1     0.20543       4.77512           1
	    2     0.15112      16.35821           1
	    3     0.11828      35.33110           1
	    4     0.10368      51.22410           1
	    5     0.10020      56.19890           1
	    6     0.10000      56.50624           1
	------------------------------------------------
	Norm of target step-size    0.10000
	Projected energy change by RFO approximation:        -0.0070796231

	Back-transformation to cartesian coordinates...
	Could not converge backtransformation.
	Using first guess instead.

	--- Internal Coordinate Step in ANG or DEG, aJ/ANG or AJ/DEG ---
	 ---------------------------------------------------------------------------
	   Coordinate                Previous        Force       Change         New 
	   ----------                --------       ------       ------       ------
	    1 R(1,2)          =      1.394038    -0.065667    -0.004802     1.389236
	    2 R(1,8)          =      1.394891     0.039292     0.002722     1.397613
	    3 R(1,15)         =      1.088409    -0.038800    -0.003316     1.085093
	    4 R(2,10)         =      1.394821     0.220342     0.016847     1.411669
	    5 R(2,16)         =      1.088553    -0.055928    -0.004780     1.083773
	    6 R(3,6)          =      1.386417    -0.003937    -0.000287     1.386130
	    7 R(3,9)          =      1.389800     0.030805     0.002571     1.392371
	    8 R(3,17)         =      1.086334    -0.054676    -0.004662     1.081672
	    9 R(4,7)          =      1.385842     0.000603     0.000030     1.385872
	   10 R(4,9)          =      1.390566     0.026241     0.002299     1.392864
	   11 R(4,18)         =      1.085041    -0.037836    -0.003211     1.081830
	   12 R(5,10)         =      1.395407     0.204332     0.015767     1.411175
	   13 R(5,11)         =      1.394521    -0.124307    -0.009184     1.385337
	   14 R(5,19)         =      1.088451    -0.058355    -0.004955     1.083496
	   15 R(6,12)         =      1.351386    -0.094805    -0.006593     1.344792
	   16 R(6,20)         =      1.084655    -0.012932    -0.001091     1.083564
	   17 R(7,12)         =      1.352250    -0.107242    -0.007465     1.344784
	   18 R(7,21)         =      1.084784    -0.012339    -0.001049     1.083735
	   19 R(8,9)          =      1.446909     0.069016     0.005681     1.452591
	   20 R(8,11)         =      1.394821    -0.015366    -0.001348     1.393473
	   21 R(10,13)        =      1.281784    -0.020966    -0.001180     1.280605
	   22 R(11,14)        =      1.341125     0.110493     0.007380     1.348506
	   23 B(1,2,10)       =    120.009056     0.000559     0.716197   120.725253
	   24 B(1,2,16)       =    118.539404     0.000203     0.286158   118.825562
	   25 B(1,8,9)        =    119.827938     0.000718     0.874455   120.702393
	   26 B(1,8,11)       =    119.959722    -0.001062    -1.344216   118.615506
	   27 B(2,1,8)        =    120.031219     0.000692     0.787838   120.819057
	   28 B(2,1,15)       =    119.169966    -0.000040     0.015578   119.185544
	   29 B(2,10,5)       =    119.994870    -0.001819    -2.000300   117.994570
	   30 B(2,10,13)      =    120.018581     0.001005     1.112204   121.130785
	   31 B(3,6,12)       =    123.990997     0.000180     0.181266   124.172263
	   32 B(3,6,20)       =    120.760872    -0.000126    -0.138562   120.622310
	   33 B(3,9,4)        =    119.747837    -0.001334    -1.490881   118.256956
	   34 B(3,9,8)        =    120.142539     0.000665     0.750424   120.892964
	   35 B(4,7,12)       =    124.046695     0.000121     0.106721   124.153416
	   36 B(4,7,21)       =    120.753452    -0.000097    -0.102128   120.651324
	   37 B(4,9,8)        =    120.109546     0.000669     0.740219   120.849766
	   38 B(5,10,13)      =    119.986548     0.000814     0.888085   120.874633
	   39 B(5,11,8)       =    120.045019     0.001209     1.324769   121.369788
	   40 B(5,11,14)      =    119.256220    -0.000114    -0.108919   119.147301
	   41 B(6,3,9)        =    117.944644     0.000544     0.684897   118.629541
	   42 B(6,3,17)       =    120.165996    -0.000079    -0.084802   120.081194
	   43 B(6,12,7)       =    116.390995    -0.000127    -0.251144   116.139851
	   44 B(7,4,9)        =    117.878788     0.000616     0.769164   118.647952
	   45 B(7,4,18)       =    120.323796    -0.000103    -0.109889   120.213907
	   46 B(8,1,15)       =    120.798746    -0.000651    -0.803634   119.995112
	   47 B(8,11,14)      =    120.698759    -0.001095    -1.215964   119.482795
	   48 B(9,3,17)       =    121.889332    -0.000464    -0.600157   121.289175
	   49 B(9,4,18)       =    121.797280    -0.000514    -0.659352   121.137928
	   50 B(9,8,11)       =    120.212327     0.000344     0.469752   120.682079
	   51 B(10,2,16)      =    121.451467    -0.000762    -1.002366   120.449101
	   52 B(10,5,11)      =    119.960108     0.000422     0.515598   120.475706
	   53 B(10,5,19)      =    121.472852    -0.000548    -0.704343   120.768509
	   54 B(11,5,19)      =    118.567038     0.000127     0.188747   118.755784
	   55 B(12,6,20)      =    115.248094    -0.000054    -0.042812   115.205281
	   56 B(12,7,21)      =    115.199851    -0.000024    -0.004629   115.195222
	   57 D(1,2,10,5)     =     -0.018609    -0.000007    -0.062325    -0.080934
	   58 D(1,2,10,13)    =    179.988520    -0.000004    -0.029797   179.958723
	   59 D(1,8,9,3)      =   -135.006021    -0.000031    -0.165508  -135.171529
	   60 D(1,8,9,4)      =     44.892812    -0.000040    -0.271834    44.620979
	   61 D(1,8,11,5)     =      0.018608    -0.000012    -0.107514    -0.088906
	   62 D(1,8,11,14)    =   -179.996269     0.000005     0.032388  -179.963882
	   63 D(2,1,8,9)      =   -179.978157    -0.000008    -0.080138  -180.058296
	   64 D(2,1,8,11)     =     -0.019945     0.000001     0.015479    -0.004465
	   65 D(2,10,5,11)    =      0.017261    -0.000004    -0.028323    -0.011061
	   66 D(2,10,5,19)    =   -179.997173    -0.000003    -0.020741  -180.017914
	   67 D(3,6,12,7)     =     -0.012231     0.000001     0.002717    -0.009514
	   68 D(3,9,4,7)      =     -0.066203     0.000004     0.012636    -0.053567
	   69 D(3,9,4,18)     =   -179.932515     0.000008     0.046465  -179.886049
	   70 D(3,9,8,11)     =     45.035873    -0.000040    -0.262350    44.773523
	   71 D(4,7,12,6)     =     -0.040812     0.000005     0.045665     0.004853
	   72 D(4,9,3,6)      =      0.018701     0.000002     0.030662     0.049363
	   73 D(4,9,3,17)     =   -179.920631     0.000008     0.078653  -179.841978
	   74 D(4,9,8,11)     =   -135.065294    -0.000049    -0.368675  -135.433969
	   75 D(5,10,2,16)    =    179.881752    -0.000008    -0.068942   179.812810
	   76 D(5,11,8,9)     =    179.976658    -0.000003    -0.011745   179.964913
	   77 D(6,3,9,8)      =    179.917901    -0.000007    -0.070773   179.847128
	   78 D(6,12,7,21)    =    179.976692    -0.000006    -0.042875   179.933817
	   79 D(7,4,9,8)      =   -179.965437     0.000012     0.114014  -179.851423
	   80 D(7,12,6,20)    =    179.917374    -0.000008    -0.065378   179.851996
	   81 D(8,1,2,10)     =      0.019955     0.000009     0.069661     0.089615
	   82 D(8,1,2,16)     =   -179.883288     0.000010     0.077460  -179.805828
	   83 D(8,9,3,17)     =     -0.021431    -0.000000    -0.022782    -0.044212
	   84 D(8,9,4,18)     =      0.168251     0.000016     0.147843     0.316094
	   85 D(8,11,5,10)    =     -0.017270     0.000013     0.114210     0.096940
	   86 D(8,11,5,19)    =    179.996748     0.000013     0.106909   180.103657
	   87 D(9,3,6,12)     =      0.022407    -0.000004    -0.040488    -0.018080
	   88 D(9,3,6,20)     =   -179.903498     0.000005     0.031028  -179.872470
	   89 D(9,4,7,12)     =      0.080125    -0.000008    -0.052955     0.027170
	   90 D(9,4,7,21)     =   -179.938304     0.000005     0.040192  -179.898113
	   91 D(9,8,1,15)     =      0.118384     0.000005     0.019892     0.138277
	   92 D(9,8,11,14)    =     -0.038219     0.000014     0.128156     0.089938
	   93 D(10,2,1,15)    =    179.924984    -0.000004    -0.030370   179.894614
	   94 D(10,5,11,14)   =    179.997392    -0.000003    -0.025066   179.972326
	   95 D(11,5,10,13)   =   -179.989865    -0.000007    -0.060747  -180.050612
	   96 D(11,8,1,15)    =   -179.923403     0.000013     0.115510  -179.807893
	   97 D(12,6,3,17)    =    179.962828    -0.000011    -0.088216   179.874611
	   98 D(12,7,4,18)    =    179.948492    -0.000012    -0.087244   179.861247
	   99 D(13,10,2,16)   =     -0.111119    -0.000005    -0.036414    -0.147533
	  100 D(13,10,5,19)   =     -0.004300    -0.000007    -0.053165    -0.057465
	  101 D(14,11,5,19)   =      0.011410    -0.000004    -0.032368    -0.020958
	  102 D(15,1,2,16)    =      0.021741    -0.000003    -0.022571    -0.000830
	  103 D(17,3,6,20)    =      0.036922    -0.000002    -0.016700     0.020221
	  104 D(18,4,7,21)    =     -0.069938     0.000000     0.005903    -0.064035
	  105 R(3,14)         =      2.805928     0.025884     0.003930     2.809858
	 ---------------------------------------------------------------------------
	Successfully symmetrized geometry.
	 Forces used to impose fixed constraints are not included.
	  Forces zeroed: 59 

  ==> Convergence Check <==

  Measures of convergence in internal coordinates in au.
  Criteria marked as inactive (o), active & met (*), and active & unmet ( ).
  --------------------------------------------------------------------------------------------- ~
   Step     Total Energy     Delta E     MAX Force     RMS Force      MAX Disp      RMS Disp    ~
  --------------------------------------------------------------------------------------------- ~
    Convergence Criteria    1.00e-06 *    3.00e-04 *             o    1.20e-03 *             o  ~
  --------------------------------------------------------------------------------------------- ~
      1    -652.32302401   -6.52e+02      2.67e-02      7.01e-03 o    3.49e-02      9.75e-03 o  ~
  ---------------------------------------------------------------------------------------------

	Writing optimization data to binary file.
	Structure for next step:
	Cartesian Geometry (in Angstrom)
	    C    -1.3583133820   0.7779737008  -0.7711097529
	    C    -2.4345845801   1.3480730004  -0.1028257969
	    C     1.3031472398  -1.6681873001  -0.3943986964
	    C     1.4193345365   0.2400805859  -1.8297016111
	    C    -1.4370665804   0.7247452342   2.0115981655
	    C     2.3751165466  -2.1945955807  -1.0980560574
	    C     2.4859347637  -0.3723993210  -2.4683523082
	    C    -0.3136400382   0.1763777675  -0.0639595984
	    C     0.8098899939  -0.4200727689  -0.7653490332
	    C    -2.4970844082   1.3345590522   1.3073938013
	    C    -0.3727929784   0.1596011723   1.3281566598
	    N     2.9796951322  -1.5759942310  -2.1277567793
	    O    -3.4850840864   1.8584459758   1.9313711551
	    F     0.6261051236  -0.4156291490   2.0279995162
	    H    -1.3366384701   0.8009160750  -1.8557438872
	    H    -3.2285349011   1.8031445220  -0.6834430076
	    H     0.8653802394  -2.2249057890   0.4231824743
	    H     1.0751051758   1.2124710956  -2.1557688385
	    H    -1.4389984576   0.6892444714   3.0945106071
	    H     2.7833413063  -3.1640856014  -0.8381454968
	    H     2.9850501016   0.1127675648  -3.2990017276
			--------------------------
			 OPTKING Finished Execution 
			--------------------------

    Structure for next step:
    Molecular point group: c1
    Full point group: C1

    Geometry (in Angstrom), charge = -1, multiplicity = 1:

    C           -1.354876042835     0.776601623377    -0.771697292954
    C           -2.431147241005     1.346700922962    -0.103413336952
    C            1.306584578902    -1.669559377571    -0.394986236383
    C            1.422771875590     0.238708508418    -1.830289151156
    C           -1.433629241300     0.723373156741     2.011010625474
    C            2.378553885724    -2.195967658194    -1.098643597464
    C            2.489372102845    -0.373771398488    -2.468939848224
    C           -0.310202699096     0.175005690089    -0.064547138436
    C            0.813327333063    -0.421444846397    -0.765936573204
    C           -2.493647069108     1.333186974790     1.306806261300
    C           -0.369355639234     0.158229094800     1.327569119797
    N            2.983132471314    -1.577366308413    -2.128344319367
    O           -3.481646747283     1.857073898337     1.930783615080
    F            0.629542462718    -0.417001226495     2.027411976192
    H           -1.333201130984     0.799543997523    -1.856331427249
    H           -3.225097561934     1.801772444515    -0.684030547630
    H            0.868817578551    -2.226277866435     0.422594934288
    H            1.078542514920     1.211099018167    -2.156356378513
    H           -1.435561118497     0.687872393979     3.093923067050
    H            2.786778645428    -3.165457678870    -0.838733036770
    H            2.988487440738     0.111395487382    -3.299589267572

gradient() will perform analytic gradient computation.

*** tstart() called on gpu-2-14.local
*** at Sat Nov 11 18:55:58 2017

    SCF Algorithm Type (re)set to DF.

*** tstart() called on gpu-2-14.local
*** at Sat Nov 11 18:55:58 2017

   => Loading Basis Set <=

    Name: AUG-CC-PVTZ
    Role: ORBITAL
    Keyword: BASIS
    atoms 1-11  entry C          line   221 file /cbio/jclab/home/chayas/anaconda/envs/py35/share/psi4/basis/aug-cc-pvtz.gbs 
    atoms 12    entry N          line   267 file /cbio/jclab/home/chayas/anaconda/envs/py35/share/psi4/basis/aug-cc-pvtz.gbs 
    atoms 13    entry O          line   313 file /cbio/jclab/home/chayas/anaconda/envs/py35/share/psi4/basis/aug-cc-pvtz.gbs 
    atoms 14    entry F          line   359 file /cbio/jclab/home/chayas/anaconda/envs/py35/share/psi4/basis/aug-cc-pvtz.gbs 
    atoms 15-21 entry H          line    34 file /cbio/jclab/home/chayas/anaconda/envs/py35/share/psi4/basis/aug-cc-pvtz.gbs 


         ---------------------------------------------------------
                                   SCF
            by Justin Turney, Rob Parrish, and Andy Simmonett
                              RHF Reference
                        8 Threads,   4768 MiB Core
         ---------------------------------------------------------

  ==> Geometry <==

    Molecular point group: c1
    Full point group: C1

    Geometry (in Angstrom), charge = -1, multiplicity = 1:

       Center              X                  Y                   Z               Mass       
    ------------   -----------------  -----------------  -----------------  -----------------
           C         -1.354876042835     0.776601623377    -0.771697292954    12.000000000000
           C         -2.431147241005     1.346700922962    -0.103413336952    12.000000000000
           C          1.306584578902    -1.669559377571    -0.394986236383    12.000000000000
           C          1.422771875590     0.238708508418    -1.830289151156    12.000000000000
           C         -1.433629241300     0.723373156741     2.011010625474    12.000000000000
           C          2.378553885724    -2.195967658194    -1.098643597464    12.000000000000
           C          2.489372102845    -0.373771398488    -2.468939848224    12.000000000000
           C         -0.310202699096     0.175005690089    -0.064547138436    12.000000000000
           C          0.813327333063    -0.421444846397    -0.765936573204    12.000000000000
           C         -2.493647069108     1.333186974790     1.306806261300    12.000000000000
           C         -0.369355639234     0.158229094800     1.327569119797    12.000000000000
           N          2.983132471314    -1.577366308413    -2.128344319367    14.003074004780
           O         -3.481646747283     1.857073898337     1.930783615080    15.994914619560
           F          0.629542462718    -0.417001226495     2.027411976192    18.998403224000
           H         -1.333201130984     0.799543997523    -1.856331427249     1.007825032070
           H         -3.225097561934     1.801772444515    -0.684030547630     1.007825032070
           H          0.868817578551    -2.226277866435     0.422594934288     1.007825032070
           H          1.078542514920     1.211099018167    -2.156356378513     1.007825032070
           H         -1.435561118497     0.687872393979     3.093923067050     1.007825032070
           H          2.786778645428    -3.165457678870    -0.838733036770     1.007825032070
           H          2.988487440738     0.111395487382    -3.299589267572     1.007825032070

  Running in c1 symmetry.

  Rotational constants: A =      0.06395  B =      0.01348  C =      0.01163 [cm^-1]
  Rotational constants: A =   1917.11871  B =    404.10641  C =    348.57116 [MHz]
  Nuclear repulsion =  800.943560797859845

  Charge       = -1
  Multiplicity = 1
  Electrons    = 98
  Nalpha       = 49
  Nbeta        = 49

  ==> Algorithm <==

  SCF Algorithm Type is DF.
  DIIS enabled.
  MOM disabled.
  Fractional occupation disabled.
  Guess Type is READ.
  Energy threshold   = 1.00e-10
  Density threshold  = 1.00e-10
  Integral threshold = 0.00e+00

  ==> Primary Basis <==

  Basis Set: AUG-CC-PVTZ
    Blend: AUG-CC-PVTZ
    Number of shells: 259
    Number of basis function: 805
    Number of Cartesian functions: 945
    Spherical Harmonics?: true
    Max angular momentum: 3

   => Loading Basis Set <=

    Name: (AUG-CC-PVTZ AUX)
    Role: JKFIT
    Keyword: DF_BASIS_SCF
    atoms 1-11  entry C          line   161 file /cbio/jclab/home/chayas/anaconda/envs/py35/share/psi4/basis/aug-cc-pvtz-jkfit.gbs 
    atoms 12    entry N          line   223 file /cbio/jclab/home/chayas/anaconda/envs/py35/share/psi4/basis/aug-cc-pvtz-jkfit.gbs 
    atoms 13    entry O          line   285 file /cbio/jclab/home/chayas/anaconda/envs/py35/share/psi4/basis/aug-cc-pvtz-jkfit.gbs 
    atoms 14    entry F          line   347 file /cbio/jclab/home/chayas/anaconda/envs/py35/share/psi4/basis/aug-cc-pvtz-jkfit.gbs 
    atoms 15-21 entry H          line    69 file /cbio/jclab/home/chayas/anaconda/envs/py35/share/psi4/basis/aug-cc-pvtz-jkfit.gbs 

  Reading orbitals from file 180, no projection.

  ==> Pre-Iterations <==

   -------------------------------------------------------
    Irrep   Nso     Nmo     Nalpha   Nbeta   Ndocc  Nsocc
   -------------------------------------------------------
     A        805     805       0       0       0       0
   -------------------------------------------------------
    Total     805     805      49      49      49       0
   -------------------------------------------------------

  ==> Integral Setup <==

  ==> DFJK: Density-Fitted J/K Matrices <==

    J tasked:                  Yes
    K tasked:                  Yes
    wK tasked:                  No
    OpenMP threads:              8
    Integrals threads:           8
    Memory (MB):              3576
    Algorithm:                Disk
    Integral Cache:           NONE
    Schwarz Cutoff:          1E-12
    Fitting Condition:       1E-12

   => Auxiliary Basis Set <=

  Basis Set: (AUG-CC-PVTZ AUX)
    Blend: AUG-CC-PVTZ-JKFIT
    Number of shells: 518
    Number of basis function: 1778
    Number of Cartesian functions: 2219
    Spherical Harmonics?: true
    Max angular momentum: 4

  Minimum eigenvalue in the overlap matrix is 8.0804054155E-07.
  Using Symmetric Orthogonalization.

  SCF Guess: Orbitals guess was supplied from a previous computation.

  ==> Iterations <==

                           Total Energy        Delta E     RMS |[F,P]|

   @DF-RHF iter   0:  -649.68868046700345   -6.49689e+02   3.24012e-04 
   @DF-RHF iter   1:  -649.61715475076221    7.15257e-02   1.09334e-04 
   @DF-RHF iter   2:  -649.61753753029336   -3.82780e-04   5.14267e-05 DIIS
   @DF-RHF iter   3:  -649.61771676606998   -1.79236e-04   8.85381e-06 DIIS
   @DF-RHF iter   4:  -649.61772227352560   -5.50746e-06   4.62234e-06 DIIS
   @DF-RHF iter   5:  -649.61772397893753   -1.70541e-06   1.34464e-06 DIIS
   @DF-RHF iter   6:  -649.61772434247541   -3.63538e-07   7.44342e-07 DIIS
   @DF-RHF iter   7:  -649.61772445449537   -1.12020e-07   3.55322e-07 DIIS
   @DF-RHF iter   8:  -649.61772448312365   -2.86283e-08   1.56179e-07 DIIS
   @DF-RHF iter   9:  -649.61772448732120   -4.19755e-09   3.53943e-08 DIIS
   @DF-RHF iter  10:  -649.61772448794602   -6.24823e-10   1.78389e-08 DIIS
   @DF-RHF iter  11:  -649.61772448800946   -6.34373e-11   5.47442e-09 DIIS
   @DF-RHF iter  12:  -649.61772448802969   -2.02363e-11   2.27029e-09 DIIS
   @DF-RHF iter  13:  -649.61772448801696    1.27329e-11   7.43348e-10 DIIS
   @DF-RHF iter  14:  -649.61772448801605    9.09495e-13   3.36262e-10 DIIS
   @DF-RHF iter  15:  -649.61772448800650    9.54969e-12   1.47193e-10 DIIS
   @DF-RHF iter  16:  -649.61772448802196   -1.54614e-11   6.07372e-11 DIIS

  ==> Post-Iterations <==

    Orbital Energies (a.u.)
    -----------------------

    Doubly Occupied:                                                      

       1A    -26.185288     2A    -20.309264     3A    -15.454089  
       4A    -11.191226     5A    -11.168539     6A    -11.166927  
       7A    -11.148996     8A    -11.131437     9A    -11.123697  
      10A    -11.121091    11A    -11.110127    12A    -11.084744  
      13A    -11.066199    14A    -11.066062    15A     -1.503553  
      16A     -1.145721    17A     -1.137460    18A     -1.024396  
      19A     -0.965938    20A     -0.925148    21A     -0.874940  
      22A     -0.848753    23A     -0.750973    24A     -0.739289  
      25A     -0.700956    26A     -0.676136    27A     -0.608200  
      28A     -0.581603    29A     -0.574533    30A     -0.563572  
      31A     -0.548330    32A     -0.535704    33A     -0.504042  
      34A     -0.488794    35A     -0.472739    36A     -0.461353  
      37A     -0.434881    38A     -0.419564    39A     -0.411418  
      40A     -0.384061    41A     -0.376904    42A     -0.363428  
      43A     -0.311919    44A     -0.309829    45A     -0.254374  
      46A     -0.242562    47A     -0.225320    48A     -0.203141  
      49A     -0.117222  

    Virtual:                                                              

      50A      0.098387    51A      0.100739    52A      0.115082  
      53A      0.120476    54A      0.124052    55A      0.128145  
      56A      0.132128    57A      0.154781    58A      0.166639  
      59A      0.173665    60A      0.179171    61A      0.183386  
      62A      0.186640    63A      0.187146    64A      0.189780  
      65A      0.197074    66A      0.198675    67A      0.204946  
      68A      0.207004    69A      0.213088    70A      0.213762  
      71A      0.218131    72A      0.221449    73A      0.226340  
      74A      0.228595    75A      0.231174    76A      0.234884  
      77A      0.237811    78A      0.241156    79A      0.247211  
      80A      0.253535    81A      0.255858    82A      0.260119  
      83A      0.263861    84A      0.266568    85A      0.275852  
      86A      0.276241    87A      0.288629    88A      0.293601  
      89A      0.298344    90A      0.312440    91A      0.313413  
      92A      0.318832    93A      0.321343    94A      0.322603  
      95A      0.326473    96A      0.328366    97A      0.330662  
      98A      0.333639    99A      0.336306   100A      0.344907  
     101A      0.348416   102A      0.351648   103A      0.362667  
     104A      0.364771   105A      0.366990   106A      0.373427  
     107A      0.382277   108A      0.384032   109A      0.386667  
     110A      0.390842   111A      0.399552   112A      0.403742  
     113A      0.408174   114A      0.410197   115A      0.415087  
     116A      0.419452   117A      0.420964   118A      0.423540  
     119A      0.430823   120A      0.437985   121A      0.440487  
     122A      0.446425   123A      0.453114   124A      0.458534  
     125A      0.460777   126A      0.467932   127A      0.472442  
     128A      0.474467   129A      0.482210   130A      0.486156  
     131A      0.492267   132A      0.501381   133A      0.506270  
     134A      0.510304   135A      0.514774   136A      0.518484  
     137A      0.532726   138A      0.535139   139A      0.540001  
     140A      0.542867   141A      0.549851   142A      0.556995  
     143A      0.559167   144A      0.562590   145A      0.564193  
     146A      0.565006   147A      0.572887   148A      0.575665  
     149A      0.578606   150A      0.584456   151A      0.586679  
     152A      0.587332   153A      0.596321   154A      0.597096  
     155A      0.600199   156A      0.602120   157A      0.603299  
     158A      0.607081   159A      0.611060   160A      0.620892  
     161A      0.623107   162A      0.626645   163A      0.631607  
     164A      0.632487   165A      0.633842   166A      0.640383  
     167A      0.643996   168A      0.646021   169A      0.653229  
     170A      0.655324   171A      0.658161   172A      0.667218  
     173A      0.676979   174A      0.682990   175A      0.685255  
     176A      0.694255   177A      0.697058   178A      0.702201  
     179A      0.705845   180A      0.707802   181A      0.713675  
     182A      0.715479   183A      0.729034   184A      0.731109  
     185A      0.733877   186A      0.749156   187A      0.751049  
     188A      0.758318   189A      0.770192   190A      0.773164  
     191A      0.783239   192A      0.787455   193A      0.795486  
     194A      0.802570   195A      0.803471   196A      0.814189  
     197A      0.814996   198A      0.818834   199A      0.825644  
     200A      0.830859   201A      0.841157   202A      0.846862  
     203A      0.850462   204A      0.855961   205A      0.859765  
     206A      0.862812   207A      0.867507   208A      0.874239  
     209A      0.877958   210A      0.880130   211A      0.882640  
     212A      0.887811   213A      0.899981   214A      0.912561  
     215A      0.916047   216A      0.923927   217A      0.930893  
     218A      0.945284   219A      0.949189   220A      0.956148  
     221A      0.965590   222A      0.975097   223A      0.978445  
     224A      0.981656   225A      0.984069   226A      0.984983  
     227A      0.995582   228A      1.001923   229A      1.004815  
     230A      1.009211   231A      1.012090   232A      1.015961  
     233A      1.019245   234A      1.028280   235A      1.032846  
     236A      1.038566   237A      1.041683   238A      1.042432  
     239A      1.050760   240A      1.053006   241A      1.061088  
     242A      1.062155   243A      1.071104   244A      1.075621  
     245A      1.078949   246A      1.083383   247A      1.090059  
     248A      1.091592   249A      1.094567   250A      1.102182  
     251A      1.106147   252A      1.111502   253A      1.117771  
     254A      1.123503   255A      1.128196   256A      1.133418  
     257A      1.136260   258A      1.142818   259A      1.143284  
     260A      1.149069   261A      1.150559   262A      1.159297  
     263A      1.165691   264A      1.168787   265A      1.176088  
     266A      1.177803   267A      1.178669   268A      1.184209  
     269A      1.186940   270A      1.189912   271A      1.195820  
     272A      1.199672   273A      1.203653   274A      1.217347  
     275A      1.220151   276A      1.223897   277A      1.226661  
     278A      1.229605   279A      1.237509   280A      1.249068  
     281A      1.253947   282A      1.255302   283A      1.262138  
     284A      1.266400   285A      1.277361   286A      1.281264  
     287A      1.284663   288A      1.289391   289A      1.290795  
     290A      1.295923   291A      1.306203   292A      1.309721  
     293A      1.314717   294A      1.316656   295A      1.320457  
     296A      1.326078   297A      1.331525   298A      1.333771  
     299A      1.336768   300A      1.350043   301A      1.354230  
     302A      1.364834   303A      1.369544   304A      1.373425  
     305A      1.383649   306A      1.386423   307A      1.392553  
     308A      1.395290   309A      1.402748   310A      1.409791  
     311A      1.415194   312A      1.420581   313A      1.429063  
     314A      1.434179   315A      1.439521   316A      1.455740  
     317A      1.459350   318A      1.468588   319A      1.472668  
     320A      1.483994   321A      1.488051   322A      1.493655  
     323A      1.502568   324A      1.506812   325A      1.509534  
     326A      1.518953   327A      1.526589   328A      1.531861  
     329A      1.546740   330A      1.557105   331A      1.565360  
     332A      1.570824   333A      1.580206   334A      1.590159  
     335A      1.596680   336A      1.598317   337A      1.607119  
     338A      1.612161   339A      1.624648   340A      1.628660  
     341A      1.639918   342A      1.651229   343A      1.656447  
     344A      1.666229   345A      1.686222   346A      1.688972  
     347A      1.693102   348A      1.702393   349A      1.709742  
     350A      1.720930   351A      1.726163   352A      1.737705  
     353A      1.744241   354A      1.746143   355A      1.758130  
     356A      1.762030   357A      1.771693   358A      1.773906  
     359A      1.786348   360A      1.800501   361A      1.812796  
[...]
	 B(2,1,15)        =         2.079660	     119.155744
	 B(2,10,5)        =         1.982449	     113.585937
	 B(2,10,13)       =         2.154209	     123.427078
	 B(3,6,12)        =         2.171795	     124.434662
	 B(3,6,20)        =         2.087263	     119.591360
	 B(3,9,4)         =         2.007451	     115.018496
	 B(3,9,8)         =         2.154573	     123.447953
	 B(4,7,12)        =         2.167122	     124.166963
	 B(4,7,21)        =         2.089972	     119.746554
	 B(4,9,8)         =         2.117768	     121.339184
	 B(5,10,13)       =         2.146520	     122.986515
	 B(5,11,8)        =         2.175204	     124.630022
	 B(5,11,14)       =         2.052418	     117.594869
	 B(6,3,9)         =         2.100037	     120.323258
	 B(6,3,17)        =         2.091580	     119.838681
	 B(6,12,7)        =         2.014732	     115.435639
	 B(7,4,9)         =         2.105085	     120.612478
	 B(7,4,18)        =         2.090524	     119.778174
	 B(8,1,15)        =         2.056645	     117.837074
	 B(8,11,14)       =         2.054864	     117.735030
	 B(9,3,17)        =         2.091550	     119.837008
	 B(9,4,18)        =         2.087417	     119.600158
	 B(9,8,11)        =         2.163314	     123.948783
	 B(10,2,16)       =         2.045512	     117.199178
	 B(10,5,11)       =         2.124588	     121.729940
	 B(10,5,19)       =         2.073342	     118.793719
	 B(11,5,19)       =         2.085226	     119.474643
	 B(12,6,20)       =         2.024017	     115.967617
	 B(12,7,21)       =         2.026038	     116.083406
	 D(1,2,10,5)      =        -0.015461	      -0.885855
	 D(1,2,10,13)     =         3.130373	     179.357147
	 D(1,8,9,3)       =        -2.362629	    -135.368652
	 D(1,8,9,4)       =         0.686085	      39.309798
	 D(1,8,11,5)      =        -0.037739	      -2.162279
	 D(1,8,11,14)     =        -3.138072	    -179.798273
	 D(2,1,8,9)       =         3.062879	     175.490046
	 D(2,1,8,11)      =         0.019917	       1.141161
	 D(2,10,5,11)     =        -0.001237	      -0.070880
	 D(2,10,5,19)     =         3.132037	     179.452516
	 D(3,6,12,7)      =         0.002794	       0.160062
	 D(3,9,4,7)       =        -0.008502	      -0.487112
	 D(3,9,4,18)      =        -3.130805	    -179.381911
	 D(3,9,8,11)      =         0.670629	      38.424233
	 D(4,7,12,6)      =         0.007574	       0.433967
	 D(4,9,3,6)       =         0.017993	       1.030943
	 D(4,9,3,17)      =        -3.117074	    -178.595212
	 D(4,9,8,11)      =        -2.563842	    -146.897316
	 D(5,10,2,16)     =         3.109702	     178.172808
	 D(5,11,8,9)      =        -3.077850	    -176.347805
	 D(6,3,9,8)       =         3.072058	     176.015974
	 D(6,12,7,21)     =         3.137966	     179.792187
	 D(7,4,9,8)       =        -3.064592	    -175.588196
	 D(7,12,6,20)     =         3.128250	     179.235502
	 D(8,1,2,10)      =         0.005876	       0.336650
	 D(8,1,2,16)      =        -3.118822	    -178.695358
	 D(8,9,3,17)      =        -0.063010	      -3.610181
	 D(8,9,4,18)      =         0.096290	       5.517005
	 D(8,11,5,10)     =         0.029428	       1.686105
	 D(8,11,5,19)     =        -3.103791	    -177.834123
	 D(9,3,6,12)      =        -0.016189	      -0.927578
	 D(9,3,6,20)      =        -3.141098	    -179.971679
	 D(9,4,7,12)      =        -0.004503	      -0.258006
	 D(9,4,7,21)      =        -3.134508	    -179.594104
	 D(9,8,1,15)      =        -0.041991	      -2.405889
	 D(9,8,11,14)     =         0.105003	       6.016201
	 D(10,2,1,15)     =         3.110283	     178.206117
	 D(10,5,11,14)    =         3.129814	     179.325130
	 D(11,5,10,13)    =         3.136136	     179.687339
	 D(11,8,1,15)     =        -3.084953	    -176.754774
	 D(12,6,3,17)     =         3.118878	     178.698571
	 D(12,7,4,18)     =         3.117766	     178.634833
	 D(13,10,2,16)    =        -0.027649	      -1.584191
	 D(13,10,5,19)    =        -0.013775	      -0.789265
	 D(14,11,5,19)    =        -0.003405	      -0.195098
	 D(15,1,2,16)     =        -0.014415	      -0.825890
	 D(17,3,6,20)     =        -0.006031	      -0.345531
	 D(18,4,7,21)     =        -0.012239	      -0.701265
	 R(3,14)          =         5.456226	       2.887310

	Current energy   :      -652.3346786656

	Energy change for the previous step:
		Projected    :         0.0000102638
		Actual       :        -0.0000029989

	Performing BFGS update.
	Previous computed or guess Hessian on step 1.
	Steps to be used in Hessian update: 13 12
	Adding user-defined constraint: Fragment 1; Coordinate 59:
		Value =    -2.362629; Fixed value    =    -2.356190
		Force =     0.005312; Force constant =     0.825000
	Removing off-diagonal coupling between coordinate 59 and others.
	Taking RFO optimization step.
	Going to follow RFO solution 1.
	Rejecting RFO root 1 because normalization gives large value.
	Using RFO vector 2.
	Norm of target step-size    0.00332
	Projected energy change by RFO approximation:        -0.0000001836

	Back-transformation to cartesian coordinates...
	Could not converge backtransformation.
	Using first guess instead.

	--- Internal Coordinate Step in ANG or DEG, aJ/ANG or AJ/DEG ---
	 ---------------------------------------------------------------------------
	   Coordinate                Previous        Force       Change         New 
	   ----------                --------       ------       ------       ------
	    1 R(1,2)          =      1.374226     0.000091     0.000004     1.374230
	    2 R(1,8)          =      1.406847     0.000016     0.000001     1.406849
	    3 R(1,15)         =      1.082925    -0.000025     0.000001     1.082926
	    4 R(2,10)         =      1.436857     0.000064     0.000025     1.436882
	    5 R(2,16)         =      1.080944    -0.000007     0.000006     1.080949
	    6 R(3,6)          =      1.383389     0.000024     0.000007     1.383396
	    7 R(3,9)          =      1.399787    -0.000030     0.000002     1.399789
	    8 R(3,17)         =      1.078292    -0.000003     0.000005     1.078298
	    9 R(4,7)          =      1.383488     0.000052     0.000009     1.383497
	   10 R(4,9)          =      1.399540    -0.000009     0.000003     1.399543
	   11 R(4,18)         =      1.080150    -0.000052    -0.000003     1.080147
	   12 R(5,10)         =      1.435349     0.000031     0.000024     1.435373
	   13 R(5,11)         =      1.366701     0.000080     0.000002     1.366703
	   14 R(5,19)         =      1.079130     0.000011     0.000009     1.079139
	   15 R(6,12)         =      1.339310     0.000017     0.000008     1.339318
	   16 R(6,20)         =      1.082530     0.000002    -0.000001     1.082529
	   17 R(7,12)         =      1.338221    -0.000008    -0.000004     1.338217
	   18 R(7,21)         =      1.082745    -0.000007     0.000008     1.082753
	   19 R(8,9)          =      1.443044     0.000100    -0.000003     1.443041
	   20 R(8,11)         =      1.395434     0.000175     0.000025     1.395459
	   21 R(10,13)        =      1.261024    -0.000074    -0.000003     1.261021
	   22 R(11,14)        =      1.371860     0.000000     0.000021     1.371881
	   23 B(1,2,10)       =    122.669283     0.000000     0.002407   122.671690
	   24 B(1,2,16)       =    120.124846    -0.000000     0.002226   120.127071
	   25 B(1,8,9)        =    121.412674    -0.000001     0.002160   121.414835
	   26 B(1,8,11)       =    114.377198    -0.000000    -0.002190   114.375008
	   27 B(2,1,8)        =    122.974363    -0.000000     0.000639   122.975002
	   28 B(2,1,15)       =    119.155744     0.000001     0.001390   119.157135
	   29 B(2,10,5)       =    113.585937    -0.000000    -0.003060   113.582877
	   30 B(2,10,13)      =    123.427078     0.000000     0.001787   123.428866
	   31 B(3,6,12)       =    124.434662    -0.000000    -0.000279   124.434384
	   32 B(3,6,20)       =    119.591360     0.000000     0.000638   119.591998
	   33 B(3,9,4)        =    115.018496     0.000000    -0.000935   115.017561
	   34 B(3,9,8)        =    123.447953     0.000000     0.001619   123.449572
	   35 B(4,7,12)       =    124.166963    -0.000000     0.000042   124.167005
	   36 B(4,7,21)       =    119.746554     0.000000    -0.000195   119.746359
	   37 B(4,9,8)        =    121.339184    -0.000000     0.000281   121.339465
	   38 B(5,10,13)      =    122.986515     0.000000     0.001215   122.987730
	   39 B(5,11,8)       =    124.630022     0.000000     0.002506   124.632528
	   40 B(5,11,14)      =    117.594869    -0.000000    -0.001607   117.593262
	   41 B(6,3,9)        =    120.323258     0.000000     0.000958   120.324216
	   42 B(6,3,17)       =    119.838681     0.000000     0.002357   119.841038
	   43 B(6,12,7)       =    115.435639     0.000000     0.000045   115.435684
	   44 B(7,4,9)        =    120.612478    -0.000000     0.000752   120.613230
	   45 B(7,4,18)       =    119.778174     0.000000     0.002092   119.780265
	   46 B(8,1,15)       =    117.837074    -0.000000    -0.002754   117.834320
	   47 B(8,11,14)      =    117.735030     0.000000     0.000961   117.735991
	   48 B(9,3,17)       =    119.837008    -0.000001    -0.003340   119.833668
	   49 B(9,4,18)       =    119.600158    -0.000000    -0.002911   119.597247
	   50 B(9,8,11)       =    123.948783     0.000001     0.001812   123.950595
	   51 B(10,2,16)      =    117.199178    -0.000000    -0.004760   117.194417
	   52 B(10,5,11)      =    121.729940     0.000000     0.000410   121.730350
	   53 B(10,5,19)      =    118.793719    -0.000000    -0.002599   118.791121
	   54 B(11,5,19)      =    119.474643     0.000000     0.002217   119.476860
	   55 B(12,6,20)      =    115.967617     0.000000     0.000333   115.967949
	   56 B(12,7,21)      =    116.083406     0.000000     0.001001   116.084407
	   57 D(1,2,10,5)     =     -0.885855    -0.000000    -0.001056    -0.886910
	   58 D(1,2,10,13)    =    179.357147     0.000000     0.013284   179.370431
	   59 D(1,8,9,3)      =   -135.368652    -0.000001     0.006102  -135.362550
	   60 D(1,8,9,4)      =     39.309798    -0.000000     0.019258    39.329056
	   61 D(1,8,11,5)     =     -2.162279     0.000000     0.027166    -2.135113
	   62 D(1,8,11,14)    =   -179.798273    -0.000000    -0.028277  -179.826550
	   63 D(2,1,8,9)      =    175.490046    -0.000000    -0.002539   175.487507
	   64 D(2,1,8,11)     =      1.141161    -0.000000    -0.021872     1.119289
	   65 D(2,10,5,11)    =     -0.070880     0.000000     0.005694    -0.065186
	   66 D(2,10,5,19)    =    179.452516     0.000000     0.009618   179.462135
	   67 D(3,6,12,7)     =      0.160062     0.000000     0.009795     0.169856
	   68 D(3,9,4,7)      =     -0.487112    -0.000000    -0.016282    -0.503394
	   69 D(3,9,4,18)     =   -179.381911    -0.000000    -0.012257  -179.394168
	   70 D(3,9,8,11)     =     38.424233    -0.000001     0.027112    38.451345
	   71 D(4,7,12,6)     =      0.433967    -0.000000    -0.050840     0.383127
	   72 D(4,9,3,6)      =      1.030943    -0.000000    -0.021500     1.009443
	   73 D(4,9,3,17)     =   -178.595212    -0.000000    -0.016977  -178.612189
	   74 D(4,9,8,11)     =   -146.897316    -0.000000     0.040268  -146.857048
	   75 D(5,10,2,16)    =    178.172808    -0.000000    -0.009965   178.162843
	   76 D(5,11,8,9)     =   -176.347805     0.000000     0.007260  -176.340545
	   77 D(6,3,9,8)      =    176.015974    -0.000000    -0.009053   176.006921
	   78 D(6,12,7,21)    =    179.792187     0.000000     0.044705   179.836892
	   79 D(7,4,9,8)      =   -175.588196    -0.000000    -0.028516  -175.616713
	   80 D(7,12,6,20)    =    179.235502     0.000001     0.061519   179.297021
	   81 D(8,1,2,10)     =      0.336650     0.000000     0.010072     0.346722
	   82 D(8,1,2,16)     =   -178.695358     0.000000     0.019297  -178.676061
	   83 D(8,9,3,17)     =     -3.610181     0.000000    -0.004530    -3.614712
	   84 D(8,9,4,18)     =      5.517005    -0.000000    -0.024491     5.492514
	   85 D(8,11,5,10)    =      1.686105    -0.000000    -0.020191     1.665914
	   86 D(8,11,5,19)    =   -177.834123    -0.000000    -0.024120  -177.858243
	   87 D(9,3,6,12)     =     -0.927578     0.000000     0.026239    -0.901339
	   88 D(9,3,6,20)     =   -179.971679    -0.000000    -0.027235  -179.998914
	   89 D(9,4,7,12)     =     -0.258006     0.000000     0.055848    -0.202158
	   90 D(9,4,7,21)     =   -179.594104    -0.000000    -0.042996  -179.637100
	   91 D(9,8,1,15)     =     -2.405889     0.000000     0.020523    -2.385367
	   92 D(9,8,11,14)    =      6.016201    -0.000000    -0.048183     5.968018
	   93 D(10,2,1,15)    =    178.206117     0.000000    -0.013364   178.192754
	   94 D(10,5,11,14)   =    179.325130     0.000000     0.035235   179.360365
	   95 D(11,5,10,13)   =    179.687339    -0.000000    -0.008573   179.678766
	   96 D(11,8,1,15)    =   -176.754774    -0.000000     0.001189  -176.753584
	   97 D(12,6,3,17)    =    178.698571     0.000000     0.021695   178.720265
	   98 D(12,7,4,18)    =    178.634833     0.000000     0.051760   178.686593
	   99 D(13,10,2,16)   =     -1.584191     0.000001     0.004375    -1.579815
	  100 D(13,10,5,19)   =     -0.789265    -0.000001    -0.004648    -0.793914
	  101 D(14,11,5,19)   =     -0.195098     0.000000     0.031307    -0.163792
	  102 D(15,1,2,16)    =     -0.825890     0.000000    -0.004139    -0.830029
	  103 D(17,3,6,20)    =     -0.345531    -0.000000    -0.031780    -0.377310
	  104 D(18,4,7,21)    =     -0.701265    -0.000000    -0.047084    -0.748349
	  105 R(3,14)         =      2.887310     0.000175     0.000091     2.887401
	 ---------------------------------------------------------------------------
	Successfully symmetrized geometry.
	 Forces used to impose fixed constraints are not included.
	  Forces zeroed: 59 

  ==> Convergence Check <==

  Measures of convergence in internal coordinates in au.
  Criteria marked as inactive (o), active & met (*), and active & unmet ( ).
  ---------------------------------------------------------------------------------------------
   Step     Total Energy     Delta E     MAX Force     RMS Force      MAX Disp      RMS Disp   
  ---------------------------------------------------------------------------------------------
    Convergence Criteria    1.00e-06 *    3.00e-04 *             o    1.20e-03 *             o
  ---------------------------------------------------------------------------------------------
     14    -652.33467867   -3.00e-06      3.50e-05 *    1.35e-05 o    1.07e-03 *    3.24e-04 o  ~
  ---------------------------------------------------------------------------------------------


  **** Optimization is complete! (in 14 steps) ****

  ==> Optimization Summary <==

  Measures of convergence in internal coordinates in au.
  --------------------------------------------------------------------------------------------------------------- ~
   Step         Total Energy             Delta E       MAX Force       RMS Force        MAX Disp        RMS Disp  ~
  --------------------------------------------------------------------------------------------------------------- ~
      1    -652.323024014889   -652.323024014889      0.02674471      0.00701530      0.03491183      0.00975235  ~
      2    -652.328798848028     -0.005774833139      0.01553652      0.00445546      0.03456929      0.00975614  ~
      3    -652.332263949670     -0.003465101642      0.00819211      0.00236448      0.02917618      0.00977189  ~
      4    -652.333830529494     -0.001566579823      0.00243380      0.00086838      0.05015809      0.00979100  ~
      5    -652.334356029028     -0.000525499534      0.00167009      0.00038139      0.05449582      0.00979301  ~
      6    -652.334617950421     -0.000261921394      0.00089990      0.00023951      0.05118337      0.00980038  ~
      7    -652.334731657591     -0.000113707170      0.00122279      0.00021877      0.00701661      0.00147556  ~
      8    -652.334712867109      0.000018790482      0.00062914      0.00010047      0.00361875      0.00098099  ~
      9    -652.334707382495      0.000005484614      0.00054990      0.00008608      0.00212126      0.00075404  ~
     10    -652.334699996780      0.000007385715      0.00040717      0.00006494      0.00429024      0.00130690  ~
     11    -652.334695785413      0.000004211367      0.00038889      0.00006941      0.01101456      0.00360639  ~
     12    -652.334674386518      0.000021398896      0.00035670      0.00010864      0.01089522      0.00370257  ~
     13    -652.334675666671     -0.000001280154      0.00015995      0.00004666      0.00337210      0.00127862  ~
     14    -652.334678665554     -0.000002998883      0.00004391      0.00001414      0.00107371      0.00032388  ~
  --------------------------------------------------------------------------------------------------------------- ~

	Writing optimization data to binary file.
	Final energy is   -652.3346786655543
	Final (previous) structure:
	Cartesian Geometry (in Angstrom)
	    C    -1.2684562796   0.8602039623  -0.7287642034
	    C    -2.3812593730   1.3770548873  -0.1098693428
	    C     1.4071617900  -1.6311771849  -0.3747040617
	    C     1.4484334357   0.2058268966  -1.8575528203
	    C    -1.4946371245   0.6854031235   2.0139781048
	    C     2.4168976577  -2.1978939133  -1.1316915479
	    C     2.4489060301  -0.4420096648  -2.5599779575
	    C    -0.2201517092   0.2392142360  -0.0254515515
	    C     0.8871843991  -0.3770712122  -0.7156502560
	    C    -2.5671360680   1.3337562863   1.3142557839
	    C    -0.4149496225   0.1684468955   1.3545057783
	    N     2.9536674398  -1.6343121257  -2.2216477390
	    O    -3.5766081373   1.8137807757   1.8979711275
	    F     0.5680067014  -0.4206720602   2.1086520392
	    H    -1.2003820659   0.8974043005  -1.8089069639
	    H    -3.1695579796   1.8260405156  -0.6976075549
	    H     1.0145934635  -2.1607668421   0.4786064882
	    H     1.1086868374   1.1784869796  -2.1819439472
	    H    -1.5439785397   0.6139466056   3.0896090638
	    H     2.8099850259  -3.1685713034  -0.8575757560
	    H     2.8777881771   0.0248016945  -3.4377495761
	Saving final (previous) structure.
			--------------------------
			 OPTKING Finished Execution 
			--------------------------

    Final optimized geometry and variables:
    Molecular point group: c1
    Full point group: C1

    Geometry (in Angstrom), charge = -1, multiplicity = 1:

    C           -1.268456279556     0.860203962337    -0.728764203419
    C           -2.381259372972     1.377054887271    -0.109869342816
    C            1.407161789972    -1.631177184892    -0.374704061706
    C            1.448433435703     0.205826896564    -1.857552820341
    C           -1.494637124476     0.685403123453     2.013978104764
    C            2.416897657716    -2.197893913253    -1.131691547854
    C            2.448906030053    -0.442009664828    -2.559977957525
    C           -0.220151709161     0.239214235953    -0.025451551542
    C            0.887184399131    -0.377071212238    -0.715650255992
    C           -2.567136067992     1.333756286329     1.314255783887
    C           -0.414949622516     0.168446895540     1.354505778269
    N            2.953667439772    -1.634312125722    -2.221647739049
    O           -3.576608137298     1.813780775715     1.897971127507
    F            0.568006701444    -0.420672060227     2.108652039218
    H           -1.200382065885     0.897404300510    -1.808906963891
    H           -3.169557979626     1.826040515605    -0.697607554937
    H            1.014593463491    -2.160766842084     0.478606488245
    H            1.108686837394     1.178486979558    -2.181943947233
    H           -1.543978539698     0.613946605567     3.089609063835
    H            2.809985025940    -3.168571303447    -0.857575756028
    H            2.877788177089     0.024801694455    -3.437749576066

	Cleaning optimization helper files.

*** Psi4 exiting successfully. Buy a developer a beer!
