
    -----------------------------------------------------------------------
          Psi4: An Open-Source Ab Initio Electronic Structure Package
                               Psi4 1.1 release

                         Git: Rev {HEAD} add49b9 


    R. M. Parrish, L. A. Burns, D. G. A. Smith, A. C. Simmonett,
    A. E. DePrince III, E. G. Hohenstein, U. Bozkaya, A. Yu. Sokolov,
    R. Di Remigio, R. M. Richard, J. F. Gonthier, A. M. James,
    H. R. McAlexander, A. Kumar, M. Saitow, X. Wang, B. P. Pritchard,
    P. Verma, H. F. Schaefer III, K. Patkowski, R. A. King, E. F. Valeev,
    F. A. Evangelista, J. M. Turney, T. D. Crawford, and C. D. Sherrill,
    J. Chem. Theory Comput. in press (2017).
    (doi: 10.1021/acs.jctc.7b00174)

    -----------------------------------------------------------------------


    Psi4 started on: Monday, 13 November 2017 07:15PM

    Process ID:  29950
    PSIDATADIR: /cbio/jclab/home/chayas/anaconda/envs/py35/share/psi4
    Memory:     500.0 MiB
    Threads:    8
    
  ==> Input File <==

--------------------------------------------------------------------------

memory 8 Gb

molecule phepyrFOH_anion {
  symmetry C1
  -1 1 
  C      1.885   -1.036   -0.112
  C      0.807   -0.463   0.561
  C      4.636   -1.548   -1.153
  C      4.519   -3.472   0.286
  C      1.800   -1.079   2.676
  C      5.703   -2.159   -1.792
  C      5.591   -3.996   -0.418
  C      2.921   -1.631   0.608
  C      4.038   -2.224   -0.095
  C      0.764   -0.484   1.955
  C      2.878   -1.652   2.002
  N      6.197   -3.369   -1.451
  O      -0.227   0.043   2.574
  F      3.866   -2.220   2.709
  H      1.904   -1.013   -1.200
  H      0.011   -0.007   -0.025
  H      4.289   -0.572   -1.478
  H      4.077   -4.029   1.106
  H      1.791   -1.109   3.764
  H      6.205   -1.672   -2.622
  H      6.002   -4.967   -0.161
  units Angstrom
}

dih_string = "1 8 9 3 45"
set optking { opt_coordinates = cartesian
              fixed_dihedral = $dih_string
              dynamic_level = 1
              geom_maxiter = 250
              print_trajectory_xyz_file = True }

optimize('MP2/aug-cc-PVTZ')
--------------------------------------------------------------------------

  Memory set to   7.451 GiB by Python driver.
gradient() will perform analytic gradient computation.

*** tstart() called on gpu-2-8.local
*** at Mon Nov 13 19:15:02 2017

    SCF Algorithm Type (re)set to DF.

*** tstart() called on gpu-2-8.local
*** at Mon Nov 13 19:15:02 2017

   => Loading Basis Set <=

    Name: AUG-CC-PVTZ
    Role: ORBITAL
    Keyword: BASIS
    atoms 1-11  entry C          line   221 file /cbio/jclab/home/chayas/anaconda/envs/py35/share/psi4/basis/aug-cc-pvtz.gbs 
    atoms 12    entry N          line   267 file /cbio/jclab/home/chayas/anaconda/envs/py35/share/psi4/basis/aug-cc-pvtz.gbs 
    atoms 13    entry O          line   313 file /cbio/jclab/home/chayas/anaconda/envs/py35/share/psi4/basis/aug-cc-pvtz.gbs 
    atoms 14    entry F          line   359 file /cbio/jclab/home/chayas/anaconda/envs/py35/share/psi4/basis/aug-cc-pvtz.gbs 
    atoms 15-21 entry H          line    34 file /cbio/jclab/home/chayas/anaconda/envs/py35/share/psi4/basis/aug-cc-pvtz.gbs 


         ---------------------------------------------------------
                                   SCF
            by Justin Turney, Rob Parrish, and Andy Simmonett
                              RHF Reference
                        8 Threads,   7629 MiB Core
         ---------------------------------------------------------

  ==> Geometry <==

    Molecular point group: c1
    Full point group: C1

    Geometry (in Angstrom), charge = -1, multiplicity = 1:

       Center              X                  Y                   Z               Mass       
    ------------   -----------------  -----------------  -----------------  -----------------
           C         -1.345860112510     0.767055244391    -0.781574700991    12.000000000000
           C         -2.423860112510     1.340055244391    -0.108574700991    12.000000000000
           C          1.405139887490     0.255055244391    -1.822574700991    12.000000000000
           C          1.288139887490    -1.668944755609    -0.383574700991    12.000000000000
           C         -1.430860112510     0.724055244391     2.006425299009    12.000000000000
           C          2.472139887490    -0.355944755609    -2.461574700991    12.000000000000
           C          2.360139887490    -2.192944755609    -1.087574700991    12.000000000000
           C         -0.309860112510     0.172055244391    -0.061574700991    12.000000000000
           C          0.807139887490    -0.420944755609    -0.764574700991    12.000000000000
           C         -2.466860112510     1.319055244391     1.285425299009    12.000000000000
           C         -0.352860112510     0.151055244391     1.332425299009    12.000000000000
           N          2.966139887490    -1.565944755609    -2.120574700991    14.003074004780
           O         -3.457860112510     1.846055244391     1.904425299009    15.994914619560
           F          0.635139887490    -0.416944755609     2.039425299009    18.998403224000
           H         -1.326860112510     0.790055244391    -1.869574700991     1.007825032070
           H         -3.219860112510     1.796055244391    -0.694574700991     1.007825032070
           H          1.058139887490     1.231055244391    -2.147574700991     1.007825032070
           H          0.846139887490    -2.225944755609     0.436425299009     1.007825032070
           H         -1.439860112510     0.694055244391     3.094425299009     1.007825032070
           H          2.974139887490     0.131055244391    -3.291574700991     1.007825032070
           H          2.771139887490    -3.163944755609    -0.830574700991     1.007825032070

  Running in c1 symmetry.

  Rotational constants: A =      0.06335  B =      0.01367  C =      0.01176 [cm^-1]
  Rotational constants: A =   1899.10260  B =    409.73104  C =    352.44559 [MHz]
  Nuclear repulsion =  802.872527989784430

  Charge       = -1
  Multiplicity = 1
  Electrons    = 98
  Nalpha       = 49
  Nbeta        = 49

  ==> Algorithm <==

  SCF Algorithm Type is DF.
  DIIS enabled.
  MOM disabled.
  Fractional occupation disabled.
  Guess Type is SAD.
  Energy threshold   = 1.00e-10
  Density threshold  = 1.00e-10
  Integral threshold = 0.00e+00

  ==> Primary Basis <==

  Basis Set: AUG-CC-PVTZ
    Blend: AUG-CC-PVTZ
    Number of shells: 259
    Number of basis function: 805
    Number of Cartesian functions: 945
    Spherical Harmonics?: true
    Max angular momentum: 3

   => Loading Basis Set <=

    Name: (AUG-CC-PVTZ AUX)
    Role: JKFIT
    Keyword: DF_BASIS_SCF
    atoms 1-11  entry C          line   161 file /cbio/jclab/home/chayas/anaconda/envs/py35/share/psi4/basis/aug-cc-pvtz-jkfit.gbs 
    atoms 12    entry N          line   223 file /cbio/jclab/home/chayas/anaconda/envs/py35/share/psi4/basis/aug-cc-pvtz-jkfit.gbs 
    atoms 13    entry O          line   285 file /cbio/jclab/home/chayas/anaconda/envs/py35/share/psi4/basis/aug-cc-pvtz-jkfit.gbs 
    atoms 14    entry F          line   347 file /cbio/jclab/home/chayas/anaconda/envs/py35/share/psi4/basis/aug-cc-pvtz-jkfit.gbs 
    atoms 15-21 entry H          line    69 file /cbio/jclab/home/chayas/anaconda/envs/py35/share/psi4/basis/aug-cc-pvtz-jkfit.gbs 

  ==> Pre-Iterations <==

   -------------------------------------------------------
    Irrep   Nso     Nmo     Nalpha   Nbeta   Ndocc  Nsocc
   -------------------------------------------------------
     A        805     805       0       0       0       0
   -------------------------------------------------------
    Total     805     805      49      49      49       0
   -------------------------------------------------------

  ==> Integral Setup <==

  ==> DFJK: Density-Fitted J/K Matrices <==

    J tasked:                  Yes
    K tasked:                  Yes
    wK tasked:                  No
    OpenMP threads:              8
    Integrals threads:           8
    Memory (MB):              5722
    Algorithm:                Core
    Integral Cache:           NONE
    Schwarz Cutoff:          1E-12
    Fitting Condition:       1E-12

   => Auxiliary Basis Set <=

  Basis Set: (AUG-CC-PVTZ AUX)
    Blend: AUG-CC-PVTZ-JKFIT
    Number of shells: 518
    Number of basis function: 1778
    Number of Cartesian functions: 2219
    Spherical Harmonics?: true
    Max angular momentum: 4

  Minimum eigenvalue in the overlap matrix is 7.9831561900E-07.
  Using Symmetric Orthogonalization.

  SCF Guess: Superposition of Atomic Densities via on-the-fly atomic UHF.

  ==> Iterations <==

                           Total Energy        Delta E     RMS |[F,P]|

   @DF-RHF iter   0:  -660.53543376016432   -6.60535e+02   2.49887e-02 
   @DF-RHF iter   1:  -649.12008961770709    1.14153e+01   1.99748e-03 
   @DF-RHF iter   2:  -649.45600701189539   -3.35917e-01   1.73605e-03 DIIS
   @DF-RHF iter   3:  -649.58461562448110   -1.28609e-01   3.59011e-04 DIIS
   @DF-RHF iter   4:  -649.60724744312949   -2.26318e-02   1.90870e-04 DIIS
   @DF-RHF iter   5:  -649.61005610772224   -2.80866e-03   5.97062e-05 DIIS
   @DF-RHF iter   6:  -649.61047212713424   -4.16019e-04   2.53406e-05 DIIS
   @DF-RHF iter   7:  -649.61054756672411   -7.54396e-05   1.07297e-05 DIIS
   @DF-RHF iter   8:  -649.61055872741861   -1.11607e-05   3.64355e-06 DIIS
   @DF-RHF iter   9:  -649.61056145447344   -2.72705e-06   1.81038e-06 DIIS
   @DF-RHF iter  10:  -649.61056210492575   -6.50452e-07   8.70186e-07 DIIS
   @DF-RHF iter  11:  -649.61056228896268   -1.84037e-07   3.08993e-07 DIIS
   @DF-RHF iter  12:  -649.61056230810141   -1.91387e-08   1.39161e-07 DIIS
   @DF-RHF iter  13:  -649.61056231045666   -2.35525e-09   4.99530e-08 DIIS
   @DF-RHF iter  14:  -649.61056231101202   -5.55360e-10   2.19370e-08 DIIS
   @DF-RHF iter  15:  -649.61056231109353   -8.15135e-11   1.10274e-08 DIIS
   @DF-RHF iter  16:  -649.61056231111218   -1.86446e-11   4.04710e-09 DIIS
   @DF-RHF iter  17:  -649.61056231113241   -2.02363e-11   1.89265e-09 DIIS
   @DF-RHF iter  18:  -649.61056231112161    1.08002e-11   6.84105e-10 DIIS
   @DF-RHF iter  19:  -649.61056231111240    9.20863e-12   3.33629e-10 DIIS
   @DF-RHF iter  20:  -649.61056231112752   -1.51203e-11   1.52778e-10 DIIS
   @DF-RHF iter  21:  -649.61056231112252    5.00222e-12   6.40270e-11 DIIS

  ==> Post-Iterations <==

    Orbital Energies (a.u.)
    -----------------------

    Doubly Occupied:                                                      

       1A    -26.188652     2A    -20.302428     3A    -15.454752  
       4A    -11.192017     5A    -11.169735     6A    -11.168300  
       7A    -11.147445     8A    -11.124168     9A    -11.124030  
      10A    -11.121626    11A    -11.109857    12A    -11.084097  
      13A    -11.065659    14A    -11.064871    15A     -1.508834  
      16A     -1.142219    17A     -1.134166    18A     -1.025399  
      19A     -0.964922    20A     -0.925918    21A     -0.874486  
      22A     -0.848711    23A     -0.750649    24A     -0.739047  
      25A     -0.703125    26A     -0.676762    27A     -0.607852  
      28A     -0.584638    29A     -0.577595    30A     -0.564787  
      31A     -0.548211    32A     -0.536529    33A     -0.501273  
      34A     -0.490416    35A     -0.471650    36A     -0.463230  
      37A     -0.433688    38A     -0.415143    39A     -0.412890  
      40A     -0.384535    41A     -0.377142    42A     -0.357620  
      43A     -0.311129    44A     -0.308049    45A     -0.252264  
      46A     -0.243500    47A     -0.221438    48A     -0.201246  
      49A     -0.116104  

    Virtual:                                                              

      50A      0.098344    51A      0.100611    52A      0.115093  
      53A      0.120373    54A      0.123908    55A      0.128188  
      56A      0.132092    57A      0.154664    58A      0.166638  
      59A      0.173393    60A      0.179177    61A      0.183571  
      62A      0.186628    63A      0.187249    64A      0.189653  
      65A      0.196943    66A      0.198737    67A      0.204729  
      68A      0.206710    69A      0.212918    70A      0.213679  
      71A      0.218164    72A      0.221456    73A      0.226332  
      74A      0.229179    75A      0.231444    76A      0.235019  
      77A      0.237947    78A      0.241283    79A      0.247209  
      80A      0.254083    81A      0.256388    82A      0.260069  
      83A      0.263848    84A      0.266919    85A      0.275946  
      86A      0.276319    87A      0.288151    88A      0.293297  
      89A      0.298305    90A      0.312177    91A      0.313962  
      92A      0.320242    93A      0.321300    94A      0.322749  
      95A      0.327212    96A      0.329719    97A      0.332521  
      98A      0.333519    99A      0.336156   100A      0.345674  
     101A      0.349475   102A      0.352120   103A      0.362358  
     104A      0.364717   105A      0.366614   106A      0.373339  
     107A      0.381433   108A      0.383694   109A      0.385903  
     110A      0.391280   111A      0.399714   112A      0.403903  
     113A      0.408748   114A      0.410015   115A      0.415012  
     116A      0.419500   117A      0.420830   118A      0.423499  
     119A      0.430961   120A      0.437796   121A      0.440069  
     122A      0.446281   123A      0.452940   124A      0.458578  
     125A      0.460867   126A      0.467856   127A      0.472407  
     128A      0.474386   129A      0.481949   130A      0.486759  
     131A      0.492335   132A      0.501263   133A      0.507064  
     134A      0.510726   135A      0.514851   136A      0.518541  
     137A      0.532825   138A      0.535686   139A      0.539750  
     140A      0.543002   141A      0.548988   142A      0.558167  
     143A      0.558874   144A      0.562806   145A      0.564259  
     146A      0.564903   147A      0.573670   148A      0.575148  
     149A      0.578572   150A      0.584292   151A      0.586457  
     152A      0.587625   153A      0.596541   154A      0.597539  
     155A      0.600117   156A      0.602318   157A      0.603646  
     158A      0.607450   159A      0.610708   160A      0.620309  
     161A      0.622932   162A      0.626433   163A      0.631304  
     164A      0.632864   165A      0.634360   166A      0.638710  
     167A      0.644500   168A      0.646203   169A      0.654417  
     170A      0.656535   171A      0.659104   172A      0.666923  
     173A      0.677698   174A      0.682589   175A      0.686839  
     176A      0.695426   177A      0.698928   178A      0.702891  
     179A      0.706943   180A      0.710119   181A      0.713954  
     182A      0.716634   183A      0.730464   184A      0.731518  
     185A      0.734564   186A      0.750111   187A      0.753888  
     188A      0.759818   189A      0.770136   190A      0.773862  
     191A      0.784611   192A      0.791571   193A      0.797020  
     194A      0.802217   195A      0.805228   196A      0.812383  
     197A      0.814418   198A      0.819727   199A      0.825042  
     200A      0.831797   201A      0.840867   202A      0.848018  
     203A      0.854378   204A      0.857924   205A      0.860106  
     206A      0.863312   207A      0.867773   208A      0.872786  
     209A      0.877598   210A      0.881615   211A      0.882350  
     212A      0.889070   213A      0.902507   214A      0.911851  
     215A      0.917315   216A      0.923162   217A      0.933190  
     218A      0.945366   219A      0.949073   220A      0.955144  
     221A      0.965794   222A      0.976276   223A      0.978687  
     224A      0.981804   225A      0.983088   226A      0.985637  
     227A      0.994593   228A      1.000177   229A      1.003780  
     230A      1.007829   231A      1.013030   232A      1.016327  
     233A      1.017554   234A      1.027716   235A      1.034107  
     236A      1.038933   237A      1.041770   238A      1.044485  
     239A      1.052283   240A      1.055371   241A      1.060885  
     242A      1.063630   243A      1.071223   244A      1.077598  
     245A      1.080764   246A      1.084415   247A      1.089772  
     248A      1.093586   249A      1.096597   250A      1.101785  
     251A      1.108169   252A      1.112391   253A      1.117364  
     254A      1.124667   255A      1.129702   256A      1.133655  
     257A      1.137947   258A      1.143701   259A      1.144859  
     260A      1.149217   261A      1.152954   262A      1.159847  
     263A      1.167490   264A      1.169455   265A      1.175911  
     266A      1.177423   267A      1.178869   268A      1.184306  
     269A      1.189225   270A      1.192530   271A      1.196775  
     272A      1.200445   273A      1.203683   274A      1.217316  
     275A      1.221348   276A      1.225333   277A      1.228264  
     278A      1.230623   279A      1.238715   280A      1.250206  
     281A      1.255188   282A      1.256776   283A      1.263947  
     284A      1.267017   285A      1.275252   286A      1.281142  
     287A      1.284885   288A      1.292171   289A      1.293961  
     290A      1.297242   291A      1.305560   292A      1.311389  
     293A      1.314026   294A      1.318183   295A      1.321740  
     296A      1.326563   297A      1.333030   298A      1.333468  
     299A      1.339099   300A      1.350832   301A      1.353053  
     302A      1.366134   303A      1.369580   304A      1.374415  
     305A      1.383436   306A      1.385954   307A      1.392675  
     308A      1.395427   309A      1.403691   310A      1.408587  
     311A      1.417140   312A      1.424037   313A      1.430822  
     314A      1.436097   315A      1.440882   316A      1.456757  
     317A      1.462702   318A      1.468010   319A      1.473911  
     320A      1.486517   321A      1.491777   322A      1.493647  
     323A      1.504823   324A      1.507659   325A      1.509991  
     326A      1.521451   327A      1.525697   328A      1.533799  
     329A      1.548212   330A      1.558761   331A      1.566942  
     332A      1.573248   333A      1.581146   334A      1.592516  
     335A      1.599084   336A      1.600769   337A      1.607663  
     338A      1.614492   339A      1.627941   340A      1.629908  
     341A      1.641259   342A      1.652781   343A      1.657849  
     344A      1.669120   345A      1.685387   346A      1.689188  
     347A      1.692986   348A      1.703185   349A      1.710664  
     350A      1.722920   351A      1.730103   352A      1.738059  
     353A      1.745561   354A      1.750313   355A      1.758874  
     356A      1.763031   357A      1.772533   358A      1.774741  
     359A      1.786170   360A      1.801653   361A      1.814170  
     362A      1.818767   363A      1.822278   364A      1.824260  
     365A      1.833005   366A      1.840882   367A      1.847127  
     368A      1.848897   369A      1.854458   370A      1.856173  
     371A      1.862577   372A      1.889757   373A      1.901773  
     374A      1.906045   375A      1.908834   376A      1.913727  
     377A      1.927518   378A      1.933167   379A      1.936787  
     380A      1.943548   381A      1.948334   382A      1.960838  
     383A      1.979895   384A      1.987548   385A      2.007232  
     386A      2.007342   387A      2.012056   388A      2.015620  
     389A      2.026769   390A      2.027578   391A      2.043180  
     392A      2.047248   393A      2.056492   394A      2.066770  
     395A      2.078534   396A      2.079553   397A      2.086048  
     398A      2.088498   399A      2.097028   400A      2.106047  
     401A      2.116653   402A      2.124214   403A      2.128332  
     404A      2.132391   405A      2.144789   406A      2.147949  
     407A      2.155050   408A      2.165496   409A      2.173299  
     410A      2.175091   411A      2.177364   412A      2.189242  
     413A      2.202450   414A      2.205007   415A      2.214505  
     416A      2.227786   417A      2.235898   418A      2.246057  
     419A      2.257078   420A      2.260213   421A      2.266712  
     422A      2.274404   423A      2.285458   424A      2.287402  
     425A      2.304353   426A      2.320340   427A      2.323737  
     428A      2.326626   429A      2.333691   430A      2.342253  
     431A      2.352522   432A      2.363471   433A      2.375723  
     434A      2.390557   435A      2.396536   436A      2.404174  
     437A      2.412634   438A      2.417591   439A      2.429994  
     440A      2.433495   441A      2.449292   442A      2.460087  
     443A      2.468425   444A      2.474593   445A      2.489251  
     446A      2.496344   447A      2.505465   448A      2.519002  
     449A      2.522661   450A      2.537377   451A      2.546256  
     452A      2.564984   453A      2.576985   454A      2.585954  
     455A      2.593956   456A      2.608659   457A      2.620459  
     458A      2.634832   459A      2.638476   460A      2.651575  
     461A      2.668422   462A      2.670751   463A      2.679158  
     464A      2.685229   465A      2.697127   466A      2.707215  
     467A      2.718371   468A      2.737808   469A      2.747722  
     470A      2.756842   471A      2.770617   472A      2.806884  
     473A      2.817581   474A      2.843410   475A      2.850361  
     476A      2.869904   477A      2.876023   478A      2.880153  
     479A      2.891167   480A      2.902531   481A      2.916473  
     482A      2.930122   483A      2.948482   484A      2.963367  
     485A      2.992743   486A      3.004289   487A      3.020456  
     488A      3.032646   489A      3.070313   490A      3.090819  
     491A      3.098466   492A      3.111810   493A      3.143605  
     494A      3.159059   495A      3.179848   496A      3.191822  
     497A      3.217910   498A      3.226986   499A      3.233574  
     500A      3.255917   501A      3.275738   502A      3.293318  
     503A      3.294718   504A      3.312170   505A      3.322783  
     506A      3.329289   507A      3.347461   508A      3.352145  
     509A      3.369948   510A      3.378679   511A      3.402761  
     512A      3.425608   513A      3.431947   514A      3.439704  
     515A      3.456480   516A      3.469135   517A      3.476832  
     518A      3.485513   519A      3.500506   520A      3.503420  
     521A      3.513060   522A      3.519663   523A      3.526709  
     524A      3.542274   525A      3.550886   526A      3.566275  
     527A      3.572252   528A      3.581771   529A      3.597426  
     530A      3.599630   531A      3.607158   532A      3.613347  
     533A      3.626353   534A      3.636761   535A      3.639420  
     536A      3.650615   537A      3.660686   538A      3.675412  
     539A      3.679406   540A      3.686484   541A      3.692121  
     542A      3.704933   543A      3.707975   544A      3.714994  
     545A      3.722064   546A      3.733384   547A      3.742092  
     548A      3.751049   549A      3.764226   550A      3.777686  
     551A      3.780202   552A      3.785043   553A      3.794244  
     554A      3.800499   555A      3.817394   556A      3.823084  
     557A      3.832227   558A      3.844274   559A      3.846759  
     560A      3.864442   561A      3.871898   562A      3.883951  
     563A      3.895869   564A      3.901022   565A      3.910587  
     566A      3.918425   567A      3.925000   568A      3.929709  
     569A      3.941373   570A      3.949948   571A      3.956343  
     572A      3.970120   573A      3.973730   574A      3.989968  
     575A      4.000321   576A      4.009484   577A      4.017336  
     578A      4.028220   579A      4.034282   580A      4.038890  
     581A      4.049289   582A      4.057742   583A      4.067663  
     584A      4.072181   585A      4.076377   586A      4.092573  
     587A      4.096665   588A      4.111600   589A      4.118708  
     590A      4.120430   591A      4.134746   592A      4.137791  
     593A      4.151042   594A      4.162333   595A      4.167172  
     596A      4.173948   597A      4.179937   598A      4.189224  
     599A      4.196302   600A      4.215620   601A      4.229280  
     602A      4.231474   603A      4.233307   604A      4.241669  
     605A      4.248302   606A      4.268567   607A      4.277382  
     608A      4.287050   609A      4.302480   610A      4.316897  
     611A      4.318451   612A      4.327051   613A      4.338445  
     614A      4.357444   615A      4.362128   616A      4.366411  
     617A      4.380728   618A      4.403079   619A      4.410723  
     620A      4.415199   621A      4.427988   622A      4.437237  
     623A      4.441519   624A      4.445603   625A      4.463129  
     626A      4.471993   627A      4.482396   628A      4.488456  
     629A      4.492153   630A      4.499277   631A      4.515469  
     632A      4.516932   633A      4.518251   634A      4.523271  
     635A      4.536196   636A      4.547547   637A      4.554920  
     638A      4.560229   639A      4.572954   640A      4.591058  
     641A      4.599425   642A      4.613639   643A      4.630814  
     644A      4.645066   645A      4.651299   646A      4.671186  
     647A      4.674450   648A      4.696185   649A      4.712727  
     650A      4.717610   651A      4.726221   652A      4.745104  
     653A      4.754363   654A      4.766381   655A      4.778593  
     656A      4.792650   657A      4.799398   658A      4.811282  
     659A      4.837330   660A      4.842908   661A      4.861001  
     662A      4.890019   663A      4.898333   664A      4.906762  
     665A      4.929350   666A      4.935006   667A      4.941650  
     668A      4.972259   669A      4.986416   670A      4.997684  
     671A      5.003323   672A      5.030821   673A      5.041323  
     674A      5.058592   675A      5.076749   676A      5.087784  
     677A      5.100936   678A      5.103367   679A      5.116266  
     680A      5.128971   681A      5.136486   682A      5.157267  
     683A      5.165551   684A      5.176541   685A      5.187304  
     686A      5.201976   687A      5.210786   688A      5.232640  
     689A      5.243612   690A      5.252315   691A      5.269843  
     692A      5.272180   693A      5.277637   694A      5.299957  
     695A      5.304859   696A      5.309866   697A      5.314838  
     698A      5.330717   699A      5.353242   700A      5.360786  
     701A      5.374079   702A      5.379558   703A      5.412197  
     704A      5.432504   705A      5.450356   706A      5.469000  
     707A      5.477677   708A      5.482310   709A      5.511540  
     710A      5.521566   711A      5.527720   712A      5.557140  
     713A      5.561539   714A      5.585063   715A      5.591759  
     716A      5.638117   717A      5.652305   718A      5.665711  
     719A      5.683191   720A      5.710192   721A      5.735617  
     722A      5.767422   723A      5.777745   724A      5.811433  
     725A      5.847914   726A      5.863586   727A      5.876602  
     728A      5.906949   729A      5.914413   730A      5.927846  
     731A      5.958953   732A      5.982193   733A      5.997478  
     734A      6.018141   735A      6.042310   736A      6.096127  
     737A      6.129635   738A      6.178943   739A      6.191414  
     740A      6.253580   741A      6.304901   742A      6.316087  
     743A      6.353030   744A      6.388587   745A      6.421742  
     746A      6.440781   747A      6.485379   748A      6.525024  
     749A      6.556602   750A      6.614744   751A      6.621760  
     752A      6.657115   753A      6.708897   754A      6.797797  
     755A      6.811938   756A      6.831551   757A      6.838286  
     758A      6.895069   759A      6.897143   760A      6.975666  
     761A      6.983969   762A      7.007300   763A      7.043234  
     764A      7.100609   765A      7.169547   766A      7.186771  
     767A      7.192448   768A      7.297354   769A      7.331271  
     770A      7.353803   771A      7.533044   772A      7.593499  
     773A      7.608408   774A      7.642117   775A      7.916214  
     776A      7.937175   777A      8.019062   778A      8.141160  
     779A      8.212904   780A      9.182225   781A      9.201172  
     782A      9.403933   783A      9.425529   784A      9.549550  
     785A      9.659189   786A      9.690726   787A      9.744871  
     788A      9.777241   789A      9.855052   790A     10.170775  
     791A     10.224764   792A     15.653589   793A     16.041210  
     794A     16.386217   795A     16.697002   796A     16.842948  
     797A     16.952900   798A     18.566758   799A     18.824754  
     800A     19.383715   801A     19.964701   802A     20.328766  
     803A     20.395111   804A     20.560632   805A     21.907423  

    Final Occupation by Irrep:
              A 
    DOCC [    49 ]

  Energy converged.

  @DF-RHF Final Energy:  -649.61056231112252

   => Energetics <=

    Nuclear Repulsion Energy =            802.8725279897844302
    One-Electron Energy =               -2494.9805731388460117
    Two-Electron Energy =                1042.4974828379390601
    DFT Exchange-Correlation Energy =       0.0000000000000000
    Empirical Dispersion Energy =           0.0000000000000000
    PCM Polarization Energy =               0.0000000000000000
    EFP Energy =                            0.0000000000000000
    Total Energy =                       -649.6105623111225214



Properties will be evaluated at   0.000000,   0.000000,   0.000000 Bohr

Properties computed using the SCF density matrix

  Nuclear Dipole Moment: (a.u.)
     X:     0.9346      Y:    -0.2941      Z:    -6.8800

  Electronic Dipole Moment: (a.u.)
     X:     1.6803      Y:    -1.1088      Z:     5.1440

  Dipole Moment: (a.u.)
     X:     2.6149      Y:    -1.4029      Z:    -1.7360     Total:     3.4380

  Dipole Moment: (Debye)
     X:     6.6464      Y:    -3.5659      Z:    -4.4125     Total:     8.7384


*** tstop() called on gpu-2-8.local at Mon Nov 13 19:25:29 2017
Module time:
	user time   =    1508.67 seconds =      25.14 minutes
	system time =       8.73 seconds =       0.15 minutes
	total time  =        627 seconds =      10.45 minutes
Total time:
	user time   =    1508.67 seconds =      25.14 minutes
	system time =       8.73 seconds =       0.15 minutes
	total time  =        627 seconds =      10.45 minutes

  //>>>>>>>>>>>>>>>>>>>>>>>>>>>>>>>>>>>//
  //               DFMP2               //
  //<<<<<<<<<<<<<<<<<<<<<<<<<<<<<<<<<<<//

   => Loading Basis Set <=

    Name: (AUG-CC-PVTZ AUX)
    Role: RIFIT
    Keyword: DF_BASIS_MP2
    atoms 1-11  entry C          line   147 file /cbio/jclab/home/chayas/anaconda/envs/py35/share/psi4/basis/aug-cc-pvtz-ri.gbs 
    atoms 12    entry N          line   205 file /cbio/jclab/home/chayas/anaconda/envs/py35/share/psi4/basis/aug-cc-pvtz-ri.gbs 
    atoms 13    entry O          line   263 file /cbio/jclab/home/chayas/anaconda/envs/py35/share/psi4/basis/aug-cc-pvtz-ri.gbs 
    atoms 14    entry F          line   321 file /cbio/jclab/home/chayas/anaconda/envs/py35/share/psi4/basis/aug-cc-pvtz-ri.gbs 
    atoms 15-21 entry H          line    29 file /cbio/jclab/home/chayas/anaconda/envs/py35/share/psi4/basis/aug-cc-pvtz-ri.gbs 

	 --------------------------------------------------------
	                          DF-MP2                         
	      2nd-Order Density-Fitted Moller-Plesset Theory     
	              RMP2 Wavefunction,   8 Threads             
	                                                         
	        Rob Parrish, Justin Turney, Andy Simmonett,      
	           Ed Hohenstein, and C. David Sherrill          
	 --------------------------------------------------------

   => Auxiliary Basis Set <=

  Basis Set: (AUG-CC-PVTZ AUX)
    Blend: AUG-CC-PVTZ-RI
    Number of shells: 490
    Number of basis function: 1806
    Number of Cartesian functions: 2289
    Spherical Harmonics?: true
    Max angular momentum: 4

	 --------------------------------------------------------
	                 NBF =   805, NAUX =  1806
	 --------------------------------------------------------
	   CLASS    FOCC     OCC    AOCC    AVIR     VIR    FVIR
	   PAIRS       0      49      49     756     756       0
	 --------------------------------------------------------


         ------------------------------------------------------------
                                     CPHF                           
                                  Rob Parrish                       
         ------------------------------------------------------------

  ==> Geometry <==

    Molecular point group: c1
    Full point group: C1

    Geometry (in Angstrom), charge = -1, multiplicity = 1:

       Center              X                  Y                   Z               Mass       
    ------------   -----------------  -----------------  -----------------  -----------------
           C         -1.345860112510     0.767055244391    -0.781574700991    12.000000000000
           C         -2.423860112510     1.340055244391    -0.108574700991    12.000000000000
           C          1.405139887490     0.255055244391    -1.822574700991    12.000000000000
           C          1.288139887490    -1.668944755609    -0.383574700991    12.000000000000
           C         -1.430860112510     0.724055244391     2.006425299009    12.000000000000
           C          2.472139887490    -0.355944755609    -2.461574700991    12.000000000000
           C          2.360139887490    -2.192944755609    -1.087574700991    12.000000000000
           C         -0.309860112510     0.172055244391    -0.061574700991    12.000000000000
           C          0.807139887490    -0.420944755609    -0.764574700991    12.000000000000
           C         -2.466860112510     1.319055244391     1.285425299009    12.000000000000
           C         -0.352860112510     0.151055244391     1.332425299009    12.000000000000
           N          2.966139887490    -1.565944755609    -2.120574700991    14.003074004780
           O         -3.457860112510     1.846055244391     1.904425299009    15.994914619560
           F          0.635139887490    -0.416944755609     2.039425299009    18.998403224000
           H         -1.326860112510     0.790055244391    -1.869574700991     1.007825032070
           H         -3.219860112510     1.796055244391    -0.694574700991     1.007825032070
           H          1.058139887490     1.231055244391    -2.147574700991     1.007825032070
           H          0.846139887490    -2.225944755609     0.436425299009     1.007825032070
           H         -1.439860112510     0.694055244391     3.094425299009     1.007825032070
           H          2.974139887490     0.131055244391    -3.291574700991     1.007825032070
           H          2.771139887490    -3.163944755609    -0.830574700991     1.007825032070

  Nuclear repulsion =  802.872527989784430
  Reference energy  = -649.610562311122521

  ==> Basis Set <==

  Basis Set: AUG-CC-PVTZ
    Blend: AUG-CC-PVTZ
    Number of shells: 259
    Number of basis function: 805
    Number of Cartesian functions: 945
    Spherical Harmonics?: true
    Max angular momentum: 3

  ==> CGRSolver (by Rob Parrish) <==

   Number of roots    =         1
   Preconditioning    =    JACOBI
   Convergence cutoff =     1E-06
   Maximum iterations =       100

  ==> CPHFRHamiltonian (by Rob Parrish) <== 

  ==> DFJK: Density-Fitted J/K Matrices <==

    J tasked:                  Yes
    K tasked:                  Yes
    wK tasked:                  No
    OpenMP threads:              8
    Integrals threads:           8
    Memory (MB):              5722
    Algorithm:                Core
    Integral Cache:           NONE
    Schwarz Cutoff:          1E-12
    Fitting Condition:       1E-12

   => Auxiliary Basis Set <=

  Basis Set: (AUG-CC-PVTZ AUX)
    Blend: AUG-CC-PVTZ-JKFIT
    Number of shells: 518
    Number of basis function: 1778
    Number of Cartesian functions: 2219
    Spherical Harmonics?: true
    Max angular momentum: 4

  ==> CPHF Iterations <==

  => Iterations <=

             Iter  Converged  Remaining    Residual
  CGR           1          0          1   1.313E-01
  CGR           2          0          1   4.822E-02
  CGR           3          0          1   2.865E-02
  CGR           4          0          1   1.076E-02
  CGR           5          0          1   4.946E-03
  CGR           6          0          1   2.515E-03
  CGR           7          0          1   9.865E-04
  CGR           8          0          1   3.768E-04
  CGR           9          0          1   1.220E-04
  CGR          10          0          1   3.567E-05
  CGR          11          0          1   1.380E-05
  CGR          12          0          1   3.956E-06
  CGR          13          0          1   1.717E-06
  CGR          14          1          0   8.497E-07

    CGRSolver converged.

  ==> DFCorrGrad: Density-Fitted Correlated Gradients <==

    OpenMP threads:              8
    Integrals threads:           8
    Memory (MB):              5722
    Schwarz Cutoff:          0E+00
    Fitting Condition:       1E-12

   => Auxiliary Basis Set <=

  Basis Set: (AUG-CC-PVTZ AUX)
    Blend: AUG-CC-PVTZ-JKFIT
    Number of shells: 518
    Number of basis function: 1778
    Number of Cartesian functions: 2219
    Spherical Harmonics?: true
    Max angular momentum: 4

	-----------------------------------------------------------
	 ==================> DF-MP2 Energies <==================== 
	-----------------------------------------------------------
	 Reference Energy          =    -649.6105623111225214 [Eh]
	 Singles Energy            =      -0.0000000000000002 [Eh]
	 Same-Spin Energy          =      -0.6862508733503310 [Eh]
	 Opposite-Spin Energy      =      -2.0262479581468176 [Eh]
	 Correlation Energy        =      -2.7124988314971485 [Eh]
	 Total Energy              =    -652.3230611426196219 [Eh]
	-----------------------------------------------------------
	 ================> DF-SCS-MP2 Energies <================== 
	-----------------------------------------------------------
	 SCS Same-Spin Scale       =       0.3333333333333333 [-]
	 SCS Opposite-Spin Scale   =       1.2000000000000000 [-]
	 SCS Same-Spin Energy      =      -0.2287502911167770 [Eh]
	 SCS Opposite-Spin Energy  =      -2.4314975497761808 [Eh]
	 SCS Correlation Energy    =      -2.6602478408929580 [Eh]
	 SCS Total Energy          =    -652.2708101520154287 [Eh]
	-----------------------------------------------------------


  -Total Gradient:
     Atom            X                  Y                   Z
    ------   -----------------  -----------------  -----------------
       1        0.017047321912    -0.014851982798    -0.011787869384
       2       -0.022270679273     0.011097574660     0.040681328345
       3       -0.008993946216     0.009071064415     0.007936091292
       4       -0.013719169193     0.004961015864     0.006939820112
       5       -0.044375919825     0.024228195125    -0.001705497521
       6       -0.003907719075     0.009288452223     0.000337952210
       7       -0.005704263314    -0.003655371058     0.007219991911
       8       -0.019516317227     0.010656012998     0.006571988625
       9        0.015561086892    -0.008782789430    -0.011715009201
      10        0.047869174646    -0.025916890215    -0.029211038866
      11        0.044950266368    -0.018338723970     0.002333191979
      12        0.007290114214    -0.004128924055    -0.005106763516
      13       -0.002321488280     0.001452376233     0.000332132880
      14       -0.011893124724     0.004836324609    -0.005510372126
      15       -0.002961644983     0.002674537480    -0.004705600139
      16       -0.001661709016     0.001955112860    -0.008834502311
      17       -0.000453964831     0.003996404067    -0.004169792850
      18       -0.000578942432    -0.004468954778     0.004630778184
      19        0.003421423971    -0.002813294002     0.007038099003
      20        0.000999775399     0.000316496339    -0.001622855314
      21        0.001219724982    -0.001576636557     0.000347926680


*** tstop() called on gpu-2-8.local at Mon Nov 13 19:56:39 2017
Module time:
	user time   =    5367.98 seconds =      89.47 minutes
	system time =      37.08 seconds =       0.62 minutes
	total time  =       2497 seconds =      41.62 minutes
Total time:
	user time   =    5367.98 seconds =      89.47 minutes
	system time =      37.08 seconds =       0.62 minutes
	total time  =       2497 seconds =      41.62 minutes

			-----------------------------------------
			 OPTKING 2.0: for geometry optimizations 
			  - R.A. King,  Bethel University        
			-----------------------------------------
	At level 1: Red. Int., RFO, no backsteps, dynamic trust

	Internal coordinates to be generated automatically.
	Detected frag 1 with atoms:  1 2 3 4 5 6 7 8 9 10 11 12 13 14 15 16 17 18 19 20
	 21
	---Fragment 1 Bond Connectivity---
	 1 : 2 8 15
	 2 : 1 10 16
	 3 : 6 9 17
	 4 : 7 9 18
	 5 : 10 11 19
	 6 : 3 12 20
	 7 : 4 12 21
	 8 : 1 9 11
	 9 : 3 4 8
	 10 : 2 5 13
	 11 : 5 8 14
	 12 : 6 7
	 13 : 10
	 14 : 11
	 15 : 1
	 16 : 2
	 17 : 3
	 18 : 4
	 19 : 5
	 20 : 6
	 21 : 7

	Assuming in current code that numbering for constraints corresponds to unified fragment.
	Fixed dihedral atom list: 
	     1     8     9     3
	---Fragment 1 Geometry and Gradient---
	 C          -2.5433070258        1.4495243407       -1.4769621373
	 C          -4.5804317971        2.5323374148       -0.2051764498
	 C           2.6553295657        0.4819845607       -3.4441670416
	 C           2.4342316082       -3.1538485190       -0.7248511364
	 C          -2.7039337471        1.3682661170        3.7915943212
	 C           4.6716673495       -0.6726381065       -4.6517020405
	 C           4.4600180227       -4.1440650126       -2.0552183339
	 C          -0.5855507521        0.3251372916       -0.1163593216
	 C           1.5252733383       -0.7954703052       -1.4448367930
	 C          -4.6616900208        2.4926531660        2.4291017794
	 C          -0.6668089759        0.2854530428        2.5179189077
	 N           5.6051920592       -2.9592067273       -4.0073054292
	 O          -6.5344086185        3.4885388381        3.5988422557
	 F           1.2002404434       -0.7879114006        3.8539552836
	 H          -2.5074022293        1.4929880417       -3.5329841698
	 H          -6.0846537988        3.3940525314       -1.3125559637
	 H           1.9995945976        2.3263572664       -4.0583280348
	 H           1.5989726575       -4.2064259750        0.8247242926
	 H          -2.7209412823        1.3115743330        5.8476163538
	 H           5.6203098682        0.2476585202       -6.2201747308
	 H           5.2366954633       -5.9789890877       -1.5695587178
	             0.0170473219       -0.0148519828       -0.0117878694
	            -0.0222706793        0.0110975747        0.0406813283
	            -0.0089939462        0.0090710644        0.0079360913
	            -0.0137191692        0.0049610159        0.0069398201
	            -0.0443759198        0.0242281951       -0.0017054975
	            -0.0039077191        0.0092884522        0.0003379522
	            -0.0057042633       -0.0036553711        0.0072199919
	            -0.0195163172        0.0106560130        0.0065719886
	             0.0155610869       -0.0087827894       -0.0117150092
	             0.0478691746       -0.0259168902       -0.0292110389
	             0.0449502664       -0.0183387240        0.0023331920
	             0.0072901142       -0.0041289241       -0.0051067635
	            -0.0023214883        0.0014523762        0.0003321329
	            -0.0118931247        0.0048363246       -0.0055103721
	            -0.0029616450        0.0026745375       -0.0047056001
	            -0.0016617090        0.0019551129       -0.0088345023
	            -0.0004539648        0.0039964041       -0.0041697928
	            -0.0005789424       -0.0044689548        0.0046307782
	             0.0034214240       -0.0028132940        0.0070380990
	             0.0009997754        0.0003164963       -0.0016228553
	             0.0012197250       -0.0015766366        0.0003479267

	Previous optimization step data not found.  Starting new optimization.

	---Fragment 1 Intrafragment Coordinates---
	 - Coordinate -           - BOHR/RAD -       - ANG/DEG -
	 R(1,2)           =         2.634350	       1.394038
	 R(1,8)           =         2.635962	       1.394891
	 R(1,15)          =         2.056795	       1.088409
	 R(2,10)          =         2.635830	       1.394821
	 R(2,16)          =         2.057067	       1.088553
	 R(3,6)           =         2.618571	       1.385688
	 R(3,9)           =         2.627972	       1.390663
	 R(3,17)          =         2.051559	       1.085638
	 R(4,7)           =         2.618056	       1.385415
	 R(4,9)           =         2.628028	       1.390693
	 R(4,18)          =         2.051039	       1.085363
	 R(5,10)          =         2.636938	       1.395407
	 R(5,11)          =         2.635263	       1.394521
	 R(5,19)          =         2.056874	       1.088451
	 R(6,12)          =         2.552472	       1.350710
	 R(6,20)          =         2.051091	       1.085391
	 R(7,12)          =         2.554595	       1.351834
	 R(7,21)          =         2.050863	       1.085270
	 R(8,9)           =         2.734263	       1.446909
	 R(8,11)          =         2.635830	       1.394821
	 R(10,13)         =         2.422221	       1.281784
	 R(11,14)         =         2.534359	       1.341125
	 B(1,2,10)        =         2.094553	     120.009056
	 B(1,2,16)        =         2.068903	     118.539404
	 B(1,8,9)         =         2.091392	     119.827938
	 B(1,8,11)        =         2.093692	     119.959722
	 B(2,1,8)         =         2.094940	     120.031219
	 B(2,1,15)        =         2.079908	     119.169966
	 B(2,10,5)        =         2.094306	     119.994870
	 B(2,10,13)       =         2.094719	     120.018581
	 B(3,6,12)        =         2.165426	     124.069771
	 B(3,6,20)        =         2.107064	     120.725874
	 B(3,9,4)         =         2.089694	     119.730645
	 B(3,9,8)         =         2.097146	     120.157625
	 B(4,7,12)        =         2.164872	     124.038052
	 B(4,7,21)        =         2.107263	     120.737291
	 B(4,9,8)         =         2.096344	     120.111682
	 B(5,10,13)       =         2.094160	     119.986548
	 B(5,11,8)        =         2.095181	     120.045019
	 B(5,11,14)       =         2.081414	     119.256220
	 B(6,3,9)         =         2.057379	     117.879126
	 B(6,3,17)        =         2.099570	     120.296518
	 B(6,12,7)        =         2.031370	     116.388935
	 B(7,4,9)         =         2.057629	     117.893461
	 B(7,4,18)        =         2.100084	     120.325976
	 B(8,1,15)        =         2.108336	     120.798746
	 B(8,11,14)       =         2.106591	     120.698759
	 B(9,3,17)        =         2.126236	     121.824334
	 B(9,4,18)        =         2.125471	     121.780508
	 B(9,8,11)        =         2.098101	     120.212327
	 B(10,2,16)       =         2.119728	     121.451467
	 B(10,5,11)       =         2.093699	     119.960108
	 B(10,5,19)       =         2.120101	     121.472852
	 B(11,5,19)       =         2.069385	     118.567038
	 B(12,6,20)       =         2.010694	     115.204283
	 B(12,7,21)       =         2.011048	     115.224575
	 D(1,2,10,5)      =        -0.000325	      -0.018609
	 D(1,2,10,13)     =         3.141392	     179.988520
	 D(1,8,9,3)       =         0.785111	      44.983564
	 D(1,8,9,4)       =        -2.357887	    -135.096971
	 D(1,8,11,5)      =         0.000325	       0.018608
	 D(1,8,11,14)     =        -3.141528	    -179.996269
	 D(2,1,8,9)       =        -3.141211	    -179.978157
	 D(2,1,8,11)      =        -0.000348	      -0.019945
	 D(2,10,5,11)     =         0.000301	       0.017261
	 D(2,10,5,19)     =        -3.141543	    -179.997173
	 D(3,6,12,7)      =        -0.000539	      -0.030892
	 D(3,9,4,7)       =        -0.000489	      -0.028027
	 D(3,9,4,18)      =        -3.140602	    -179.943250
	 D(3,9,8,11)      =        -2.355750	    -134.974542
	 D(4,7,12,6)      =         0.000411	       0.023571
	 D(4,9,3,6)       =         0.000375	       0.021480
	 D(4,9,3,17)      =        -3.140283	    -179.924974
	 D(4,9,8,11)      =         0.784437	      44.944923
	 D(5,10,2,16)     =         3.139529	     179.881752
	 D(5,11,8,9)      =         3.141185	     179.976658
	 D(6,3,9,8)       =         3.140567	     179.941252
	 D(6,12,7,21)     =         3.140186	     179.919385
	 D(7,4,9,8)       =        -3.140682	    -179.947837
	 D(7,12,6,20)     =         3.139352	     179.871624
	 D(8,1,2,10)      =         0.000348	       0.019955
	 D(8,1,2,16)      =        -3.139556	    -179.883288
	 D(8,9,3,17)      =        -0.000091	      -0.005201
	 D(8,9,4,18)      =         0.002390	       0.136940
	 D(8,11,5,10)     =        -0.000301	      -0.017270
	 D(8,11,5,19)     =         3.141536	     179.996748
	 D(9,3,6,12)      =         0.000157	       0.009000
	 D(9,3,6,20)      =        -3.139645	    -179.888393
	 D(9,4,7,12)      =         0.000090	       0.005146
	 D(9,4,7,21)      =        -3.139589	    -179.885198
	 D(9,8,1,15)      =         0.002066	       0.118384
	 D(9,8,11,14)     =        -0.000667	      -0.038219
	 D(10,2,1,15)     =         3.140283	     179.924984
	 D(10,5,11,14)    =         3.141547	     179.997392
	 D(11,5,10,13)    =        -3.141416	    -179.989865
	 D(11,8,1,15)     =        -3.140256	    -179.923403
	 D(12,6,3,17)     =         3.140830	     179.956307
	 D(12,7,4,18)     =         3.140225	     179.921655
	 D(13,10,2,16)    =        -0.001939	      -0.111119
	 D(13,10,5,19)    =        -0.000075	      -0.004300
	 D(14,11,5,19)    =         0.000199	       0.011410
	 D(15,1,2,16)     =         0.000379	       0.021741
	 D(17,3,6,20)     =         0.001028	       0.058913
	 D(18,4,7,21)     =         0.000546	       0.031311
	 R(4,14)          =         5.299610	       2.804433

	Current energy   :      -652.3230611426

	Using model Hessian from Lindh (1995).
	 - Coordinate -           - BOHR/RAD -       - ANG/DEG -
	 R(1,2)           =         2.634350	       1.394038
	 R(1,8)           =         2.635962	       1.394891
	 R(1,15)          =         2.056795	       1.088409
	 R(2,10)          =         2.635830	       1.394821
	 R(2,16)          =         2.057067	       1.088553
	 R(3,6)           =         2.618571	       1.385688
	 R(3,9)           =         2.627972	       1.390663
	 R(3,17)          =         2.051559	       1.085638
	 R(4,7)           =         2.618056	       1.385415
	 R(4,9)           =         2.628028	       1.390693
	 R(4,18)          =         2.051039	       1.085363
	 R(5,10)          =         2.636938	       1.395407
	 R(5,11)          =         2.635263	       1.394521
	 R(5,19)          =         2.056874	       1.088451
	 R(6,12)          =         2.552472	       1.350710
	 R(6,20)          =         2.051091	       1.085391
	 R(7,12)          =         2.554595	       1.351834
	 R(7,21)          =         2.050863	       1.085270
	 R(8,9)           =         2.734263	       1.446909
	 R(8,11)          =         2.635830	       1.394821
	 R(10,13)         =         2.422221	       1.281784
	 R(11,14)         =         2.534359	       1.341125
	 R(12,20)         =         3.896281	       2.061823
	 R(12,21)         =         3.898395	       2.062942
	 B(1,2,10)        =         2.094553	     120.009056
	 B(1,2,16)        =         2.068903	     118.539404
	 B(1,8,9)         =         2.091392	     119.827938
	 B(1,8,11)        =         2.093692	     119.959722
	 B(2,1,8)         =         2.094940	     120.031219
	 B(2,1,15)        =         2.079908	     119.169966
	 B(2,10,5)        =         2.094306	     119.994870
	 B(2,10,13)       =         2.094719	     120.018581
	 B(3,6,12)        =         2.165426	     124.069771
	 B(3,6,20)        =         2.107064	     120.725874
	 B(3,9,4)         =         2.089694	     119.730645
	 B(3,9,8)         =         2.097146	     120.157625
	 B(4,7,12)        =         2.164872	     124.038052
	 B(4,7,21)        =         2.107263	     120.737291
	 B(4,9,8)         =         2.096344	     120.111682
	 B(5,10,13)       =         2.094160	     119.986548
	 B(5,11,8)        =         2.095181	     120.045019
	 B(5,11,14)       =         2.081414	     119.256220
	 B(6,3,9)         =         2.057379	     117.879126
	 B(6,3,17)        =         2.099570	     120.296518
	 B(6,12,7)        =         2.031370	     116.388935
	 B(6,12,20)       =         0.496447	      28.444344
	 B(6,12,21)       =         2.527373	     144.807785
	 B(6,20,12)       =         0.634451	      36.351372
	 B(7,4,9)         =         2.057629	     117.893461
	 B(7,4,18)        =         2.100084	     120.325976
	 B(7,12,20)       =         2.527816	     144.833172
	 B(7,12,21)       =         0.496003	      28.418892
	 B(7,21,12)       =         0.634541	      36.356533
	 B(8,1,15)        =         2.108336	     120.798746
	 B(8,11,14)       =         2.106591	     120.698759
	 B(9,3,17)        =         2.126236	     121.824334
	 B(9,4,18)        =         2.125471	     121.780508
	 B(9,8,11)        =         2.098101	     120.212327
	 B(10,2,16)       =         2.119728	     121.451467
	 B(10,5,11)       =         2.093699	     119.960108
	 B(10,5,19)       =         2.120101	     121.472852
	 B(11,5,19)       =         2.069385	     118.567038
	 B(12,6,20)       =         2.010694	     115.204283
	 B(12,7,21)       =         2.011048	     115.224575
	 B(20,12,21)      =         3.023819	     173.252051
	 D(1,2,10,5)      =        -0.000325	      -0.018609
	 D(1,2,10,13)     =         3.141392	     179.988520
	 D(1,8,9,3)       =         0.785111	      44.983564
	 D(1,8,9,4)       =        -2.357887	    -135.096971
	 D(1,8,11,5)      =         0.000325	       0.018608
	 D(1,8,11,14)     =        -3.141528	    -179.996269
	 D(2,1,8,9)       =        -3.141211	    -179.978157
	 D(2,1,8,11)      =        -0.000348	      -0.019945
	 D(2,10,5,11)     =         0.000301	       0.017261
	 D(2,10,5,19)     =        -3.141543	    -179.997173
	 D(3,6,12,7)      =        -0.000539	      -0.030892
	 D(3,6,12,20)     =        -3.139891	    -179.902517
	 D(3,6,12,21)     =         0.000623	       0.035678
	 D(3,6,20,12)     =         3.139953	     179.906062
	 D(3,9,4,7)       =        -0.000489	      -0.028027
	 D(3,9,4,18)      =        -3.140602	    -179.943250
	 D(3,9,8,11)      =        -2.355750	    -134.974542
	 D(4,7,12,6)      =         0.000411	       0.023571
	 D(4,7,12,20)     =         0.002264	       0.129735
	 D(4,7,12,21)     =        -3.139774	    -179.895814
	 D(4,7,21,12)     =         3.139840	     179.899554
	 D(4,9,3,6)       =         0.000375	       0.021480
	 D(4,9,3,17)      =        -3.140283	    -179.924974
	 D(4,9,8,11)      =         0.784437	      44.944923
	 D(5,10,2,16)     =         3.139529	     179.881752
	 D(5,11,8,9)      =         3.141185	     179.976658
	 D(6,3,9,8)       =         3.140567	     179.941252
	 D(6,12,7,21)     =         3.140186	     179.919385
	 D(6,12,21,7)     =        -0.002187	      -0.125304
	 D(6,20,12,7)     =        -0.003485	      -0.199665
	 D(6,20,12,21)    =        -0.005291	      -0.303143
	 D(7,4,9,8)       =        -3.140682	    -179.947837
	 D(7,12,6,20)     =         3.139352	     179.871624
	 D(7,21,12,20)    =         0.002186	       0.125230
	 D(8,1,2,10)      =         0.000348	       0.019955
	 D(8,1,2,16)      =        -3.139556	    -179.883288
	 D(8,9,3,17)      =        -0.000091	      -0.005201
	 D(8,9,4,18)      =         0.002390	       0.136940
	 D(8,11,5,10)     =        -0.000301	      -0.017270
	 D(8,11,5,19)     =         3.141536	     179.996748
	 D(9,3,6,12)      =         0.000157	       0.009000
	 D(9,3,6,20)      =        -3.139645	    -179.888393
	 D(9,4,7,12)      =         0.000090	       0.005146
	 D(9,4,7,21)      =        -3.139589	    -179.885198
	 D(9,8,1,15)      =         0.002066	       0.118384
	 D(9,8,11,14)     =        -0.000667	      -0.038219
	 D(10,2,1,15)     =         3.140283	     179.924984
	 D(10,5,11,14)    =         3.141547	     179.997392
	 D(11,5,10,13)    =        -3.141416	    -179.989865
	 D(11,8,1,15)     =        -3.140256	    -179.923403
	 D(12,6,3,17)     =         3.140830	     179.956307
	 D(12,7,4,18)     =         3.140225	     179.921655
	 D(13,10,2,16)    =        -0.001939	      -0.111119
	 D(13,10,5,19)    =        -0.000075	      -0.004300
	 D(14,11,5,19)    =         0.000199	       0.011410
	 D(15,1,2,16)     =         0.000379	       0.021741
	 D(17,3,6,20)     =         0.001028	       0.058913
	 D(18,4,7,21)     =         0.000546	       0.031311
	 D(20,6,12,21)    =         3.140514	     179.938195
	 D(20,12,7,21)    =        -3.141147	    -179.974452

	Adding user-defined constraint: Fragment 1; Coordinate 59:
		Value =     0.785111; Fixed value    =     0.785398
		Force =     0.000143; Force constant =     0.500000
	Removing off-diagonal coupling between coordinate 59 and others.
	Taking RFO optimization step.
	Going to follow RFO solution 1.
	Using RFO vector 1.

	Determining step-restricting scale parameter for RS-RFO.
	Maximum step size allowed    0.10000

	 Iter      |step|        alpha        rfo_root  
	------------------------------------------------
	    0     0.24440       1.00000           1
	    1     0.18393       3.85293           1
	    2     0.14286      12.35132           1
	    3     0.11520      27.85951           1
	    4     0.10282      40.44855           1
	    5     0.10013      43.94812           1
	    6     0.10000      44.12206           1
	------------------------------------------------
	Norm of target step-size    0.10000
	Projected energy change by RFO approximation:        -0.0068320244

	Back-transformation to cartesian coordinates...
	Could not converge backtransformation.
	Using first guess instead.

	--- Internal Coordinate Step in ANG or DEG, aJ/ANG or AJ/DEG ---
	 ---------------------------------------------------------------------------
	   Coordinate                Previous        Force       Change         New 
	   ----------                --------       ------       ------       ------
	    1 R(1,2)          =      1.394038    -0.065761    -0.004367     1.389671
	    2 R(1,8)          =      1.394891     0.039428     0.002620     1.397511
	    3 R(1,15)         =      1.088409    -0.038794    -0.003146     1.085263
	    4 R(2,10)         =      1.394821     0.220289     0.015399     1.410220
	    5 R(2,16)         =      1.088553    -0.055942    -0.004523     1.084031
	    6 R(3,6)          =      1.385688     0.002921     0.000182     1.385870
	    7 R(3,9)          =      1.390663     0.024448     0.002199     1.392862
	    8 R(3,17)         =      1.085638    -0.041079    -0.003316     1.082322
	    9 R(4,7)          =      1.385415     0.001798     0.000111     1.385527
	   10 R(4,9)          =      1.390693     0.027374     0.002320     1.393013
	   11 R(4,18)         =      1.085363    -0.049662    -0.004010     1.081353
	   12 R(5,10)         =      1.395407     0.204309     0.014469     1.409876
	   13 R(5,11)         =      1.394521    -0.124311    -0.008311     1.386210
	   14 R(5,19)         =      1.088451    -0.058366    -0.004723     1.083728
	   15 R(6,12)         =      1.350710    -0.097867    -0.006292     1.344417
	   16 R(6,20)         =      1.085391    -0.015203    -0.001185     1.084206
	   17 R(7,12)         =      1.351834    -0.096836    -0.006232     1.345602
	   18 R(7,21)         =      1.085270    -0.016107    -0.001244     1.084026
	   19 R(8,9)          =      1.446909     0.068768     0.005211     1.452120
	   20 R(8,11)         =      1.394821    -0.014927    -0.000997     1.393824
	   21 R(10,13)        =      1.281784    -0.021028    -0.001126     1.280658
	   22 R(11,14)        =      1.341125     0.110557     0.006819     1.347944
	   23 B(1,2,10)       =    120.009056     0.000558     0.750521   120.759578
	   24 B(1,2,16)       =    118.539404     0.000204     0.295379   118.834783
	   25 B(1,8,9)        =    119.827938     0.000714     0.932621   120.760559
	   26 B(1,8,11)       =    119.959722    -0.001064    -1.462270   118.497452
	   27 B(2,1,8)        =    120.031219     0.000693     0.831819   120.863038
	   28 B(2,1,15)       =    119.169966    -0.000041     0.010281   119.180247
	   29 B(2,10,5)       =    119.994870    -0.001819    -2.003594   117.991276
	   30 B(2,10,13)      =    120.018581     0.001005     1.102176   121.120757
	   31 B(3,6,12)       =    124.069771     0.000114     0.085725   124.155495
	   32 B(3,6,20)       =    120.725874    -0.000097    -0.101778   120.624096
	   33 B(3,9,4)        =    119.730645    -0.001323    -1.543235   118.187409
	   34 B(3,9,8)        =    120.157625     0.000653     0.742459   120.900084
	   35 B(4,7,12)       =    124.038052     0.000162     0.146276   124.184328
	   36 B(4,7,21)       =    120.737291    -0.000114    -0.124655   120.612636
	   37 B(4,9,8)        =    120.111682     0.000671     0.800577   120.912259
	   38 B(5,10,13)      =    119.986548     0.000814     0.901400   120.887949
	   39 B(5,11,8)       =    120.045019     0.001208     1.351276   121.396295
	   40 B(5,11,14)      =    119.256220    -0.000118    -0.151776   119.104444
	   41 B(6,3,9)        =    117.879126     0.000615     0.823512   118.702638
	   42 B(6,3,17)       =    120.296518    -0.000097    -0.122937   120.173582
	   43 B(6,12,7)       =    116.388935    -0.000133    -0.276765   116.112170
	   44 B(7,4,9)        =    117.893461     0.000566     0.764360   118.657821
	   45 B(7,4,18)       =    120.325976    -0.000108    -0.141155   120.184821
	   46 B(8,1,15)       =    120.798746    -0.000653    -0.842413   119.956332
	   47 B(8,11,14)      =    120.698759    -0.001090    -1.199721   119.499038
	   48 B(9,3,17)       =    121.824334    -0.000518    -0.700616   121.123717
	   49 B(9,4,18)       =    121.780508    -0.000458    -0.623345   121.157163
	   50 B(9,8,11)       =    120.212327     0.000350     0.529598   120.741926
	   51 B(10,2,16)      =    121.451467    -0.000762    -1.045918   120.405549
	   52 B(10,5,11)      =    119.960108     0.000423     0.532051   120.492159
	   53 B(10,5,19)      =    121.472852    -0.000549    -0.726818   120.746034
	   54 B(11,5,19)      =    118.567038     0.000126     0.194769   118.761806
	   55 B(12,6,20)      =    115.204283    -0.000017     0.015754   115.220038
	   56 B(12,7,21)      =    115.224575    -0.000048    -0.021750   115.202825
	   57 D(1,2,10,5)     =     -0.018609    -0.000007    -0.078733    -0.097342
	   58 D(1,2,10,13)    =    179.988520    -0.000004    -0.037950   179.950570
	   59 D(1,8,9,3)      =     44.983564    -0.000031    -0.197037    44.786528
	   60 D(1,8,9,4)      =   -135.096971    -0.000038    -0.300818  -135.397789
	   61 D(1,8,11,5)     =      0.018608    -0.000012    -0.141739    -0.123131
	   62 D(1,8,11,14)    =   -179.996269     0.000005     0.046090  -179.950180
	   63 D(2,1,8,9)      =   -179.978157    -0.000008    -0.110854  -180.089011
	   64 D(2,1,8,11)     =     -0.019945     0.000001     0.022603     0.002659
	   65 D(2,10,5,11)    =      0.017261    -0.000004    -0.038610    -0.021349
	   66 D(2,10,5,19)    =   -179.997173    -0.000003    -0.028749  -180.025922
	   67 D(3,6,12,7)     =     -0.030892     0.000004     0.037028     0.006135
	   68 D(3,9,4,7)      =     -0.028027    -0.000006    -0.068283    -0.096310
	   69 D(3,9,4,18)     =   -179.943250     0.000002     0.007278  -179.935972
	   70 D(3,9,8,11)     =   -134.974542    -0.000040    -0.332666  -135.307207
	   71 D(4,7,12,6)     =      0.023571     0.000002     0.019620     0.043191
	   72 D(4,9,3,6)      =      0.021480     0.000011     0.119303     0.140782
	   73 D(4,9,3,17)     =   -179.924974     0.000014     0.156818  -179.768156
	   74 D(4,9,8,11)     =     44.944923    -0.000047    -0.436447    44.508476
	   75 D(5,10,2,16)    =    179.881752    -0.000008    -0.089608   179.792144
	   76 D(5,11,8,9)     =    179.976658    -0.000003    -0.008137   179.968521
	   77 D(6,3,9,8)      =    179.941252     0.000004     0.020118   179.961370
	   78 D(6,12,7,21)    =    179.919385    -0.000005    -0.043087   179.876298
	   79 D(7,4,9,8)      =   -179.947837     0.000001     0.030962  -179.916874
	   80 D(7,12,6,20)    =    179.871624    -0.000008    -0.086731   179.784894
	   81 D(8,1,2,10)     =      0.019955     0.000009     0.087790     0.107744
	   82 D(8,1,2,16)     =   -179.883288     0.000010     0.099837  -179.783452
	   83 D(8,9,3,17)     =     -0.005201     0.000008     0.057633     0.052432
	   84 D(8,9,4,18)     =      0.136940     0.000008     0.106523     0.243463
	   85 D(8,11,5,10)    =     -0.017270     0.000014     0.150432     0.133162
	   86 D(8,11,5,19)    =    179.996748     0.000013     0.140898   180.137646
	   87 D(9,3,6,12)     =      0.009000    -0.000010    -0.108289    -0.099289
	   88 D(9,3,6,20)     =   -179.888393     0.000002     0.021697  -179.866696
	   89 D(9,4,7,12)     =      0.005146    -0.000001    -0.002180     0.002966
	   90 D(9,4,7,21)     =   -179.885198     0.000006     0.063624  -179.821574
	   91 D(9,8,1,15)     =      0.118384     0.000004     0.019692     0.138076
	   92 D(9,8,11,14)    =     -0.038219     0.000015     0.179691     0.141473
	   93 D(10,2,1,15)    =    179.924984    -0.000004    -0.042588   179.882395
	   94 D(10,5,11,14)   =    179.997392    -0.000004    -0.036515   179.960878
	   95 D(11,5,10,13)   =   -179.989865    -0.000007    -0.079279  -180.069144
	   96 D(11,8,1,15)    =   -179.923403     0.000014     0.153149  -179.770254
	   97 D(12,6,3,17)    =    179.956307    -0.000014    -0.145767   179.810540
	   98 D(12,7,4,18)    =    179.921655    -0.000008    -0.077422   179.844234
	   99 D(13,10,2,16)   =     -0.111119    -0.000005    -0.048824    -0.159943
	  100 D(13,10,5,19)   =     -0.004300    -0.000007    -0.069418    -0.073717
	  101 D(14,11,5,19)   =      0.011410    -0.000004    -0.046049    -0.034639
	  102 D(15,1,2,16)    =      0.021741    -0.000003    -0.030542    -0.008801
	  103 D(17,3,6,20)    =      0.058913    -0.000001    -0.015781     0.043133
	  104 D(18,4,7,21)    =      0.031311    -0.000001    -0.011617     0.019694
	  105 R(4,14)         =      2.804433     0.025687     0.005162     2.809594
	 ---------------------------------------------------------------------------
	Successfully symmetrized geometry.
	 Forces used to impose fixed constraints are not included.
	  Forces zeroed: 59 

  ==> Convergence Check <==

  Measures of convergence in internal coordinates in au.
  Criteria marked as inactive (o), active & met (*), and active & unmet ( ).
  --------------------------------------------------------------------------------------------- ~
   Step     Total Energy     Delta E     MAX Force     RMS Force      MAX Disp      RMS Disp    ~
  --------------------------------------------------------------------------------------------- ~
    Convergence Criteria    1.00e-06 *    3.00e-04 *             o    1.20e-03 *             o  ~
  --------------------------------------------------------------------------------------------- ~
      1    -652.32306114   -6.52e+02      2.67e-02      6.99e-03 o    3.50e-02      9.75e-03 o  ~
  ---------------------------------------------------------------------------------------------

	Writing optimization data to binary file.
	Structure for next step:
	Cartesian Geometry (in Angstrom)
	    C    -1.3594317826   0.7780584033  -0.7713733318
	    C    -2.4354797640   1.3484280580  -0.1020571041
	    C     1.4204900194   0.2387501313  -1.8303123780
	    C     1.3042291452  -1.6685355670  -0.3942409237
	    C    -1.4390252923   0.7250202263   2.0101030326
	    C     2.4887717938  -0.3726955320  -2.4671350178
	    C     2.3780470266  -2.1935161487  -1.0949507597
	    C    -0.3142688189   0.1754347590  -0.0660254562
	    C     0.8081347299  -0.4215934964  -0.7677528198
	    C    -2.4978086618   1.3349237341   1.3067204001
	    C    -0.3744342758   0.1586524363   1.3263983378
	    N     2.9837612868  -1.5749571579  -2.1250670948
	    O    -3.4856644433   1.8593060712   1.9306187880
	    F     0.6232737208  -0.4164227826   2.0269846493
	    H    -1.3385865956   0.8012006960  -1.8561893183
	    H    -3.2299615736   1.8039828674  -0.6820492371
	    H     1.0761529985   1.2111837932  -2.1577645528
	    H     0.8646479422  -2.2236262235   0.4230511480
	    H    -1.4411444383   0.6897713734   3.0932550735
	    H     2.9897305563   0.1142585558  -3.2962415687
	    H     2.7875040640  -3.1624640651  -0.8330405871
			--------------------------
			 OPTKING Finished Execution 
			--------------------------

    Structure for next step:
    Molecular point group: c1
    Full point group: C1

    Geometry (in Angstrom), charge = -1, multiplicity = 1:

    C           -1.355935556691     0.776796662872    -0.771767098914
    C           -2.431983538098     1.347166317526    -0.102450871207
    C            1.423986245303     0.237488390818    -1.830706145022
    C            1.307725371053    -1.669797307411    -0.394634690789
    C           -1.435529066391     0.723758485823     2.009709265517
    C            2.492268019704    -0.373957272414    -2.467528784829
    C            2.381543252519    -2.194777889168    -1.095344526748
    C           -0.310772593004     0.174173018546    -0.066419223316
    C            0.811630955801    -0.422855236840    -0.768146586909
    C           -2.494312435930     1.333661993669     1.306326632997
    C           -0.370938049900     0.157390695897     1.326004570710
    N            2.987257512651    -1.576218898382    -2.125460861828
    O           -3.482168217407     1.858044330761     1.930225020889
    F            0.626769946659    -0.417684523064     2.026590882244
    H           -1.335090369682     0.799938955591    -1.856583085418
    H           -3.226465347725     1.802721126979    -0.682443004161
    H            1.079649224428     1.209922052788    -2.158158319904
    H            0.868144168075    -2.224887963906     0.422657380974
    H           -1.437648212448     0.688509632902     3.092861306426
    H            2.993226782203     0.112996815336    -3.296635335800
    H            2.791000289864    -3.163725805569    -0.833434354188

gradient() will perform analytic gradient computation.

*** tstart() called on gpu-2-8.local
*** at Mon Nov 13 19:56:40 2017

    SCF Algorithm Type (re)set to DF.

*** tstart() called on gpu-2-8.local
*** at Mon Nov 13 19:56:40 2017

   => Loading Basis Set <=

    Name: AUG-CC-PVTZ
    Role: ORBITAL
    Keyword: BASIS
    atoms 1-11  entry C          line   221 file /cbio/jclab/home/chayas/anaconda/envs/py35/share/psi4/basis/aug-cc-pvtz.gbs 
    atoms 12    entry N          line   267 file /cbio/jclab/home/chayas/anaconda/envs/py35/share/psi4/basis/aug-cc-pvtz.gbs 
    atoms 13    entry O          line   313 file /cbio/jclab/home/chayas/anaconda/envs/py35/share/psi4/basis/aug-cc-pvtz.gbs 
    atoms 14    entry F          line   359 file /cbio/jclab/home/chayas/anaconda/envs/py35/share/psi4/basis/aug-cc-pvtz.gbs 
    atoms 15-21 entry H          line    34 file /cbio/jclab/home/chayas/anaconda/envs/py35/share/psi4/basis/aug-cc-pvtz.gbs 


         ---------------------------------------------------------
                                   SCF
            by Justin Turney, Rob Parrish, and Andy Simmonett
                              RHF Reference
                        8 Threads,   7629 MiB Core
         ---------------------------------------------------------

  ==> Geometry <==

    Molecular point group: c1
    Full point group: C1

    Geometry (in Angstrom), charge = -1, multiplicity = 1:

       Center              X                  Y                   Z               Mass       
    ------------   -----------------  -----------------  -----------------  -----------------
           C         -1.355935556691     0.776796662872    -0.771767098914    12.000000000000
           C         -2.431983538098     1.347166317526    -0.102450871207    12.000000000000
           C          1.423986245303     0.237488390818    -1.830706145022    12.000000000000
           C          1.307725371053    -1.669797307411    -0.394634690789    12.000000000000
           C         -1.435529066391     0.723758485823     2.009709265517    12.000000000000
           C          2.492268019704    -0.373957272414    -2.467528784829    12.000000000000
           C          2.381543252519    -2.194777889168    -1.095344526748    12.000000000000
           C         -0.310772593004     0.174173018546    -0.066419223316    12.000000000000
           C          0.811630955801    -0.422855236840    -0.768146586909    12.000000000000
           C         -2.494312435930     1.333661993669     1.306326632997    12.000000000000
           C         -0.370938049900     0.157390695897     1.326004570710    12.000000000000
           N          2.987257512651    -1.576218898382    -2.125460861828    14.003074004780
           O         -3.482168217407     1.858044330761     1.930225020889    15.994914619560
           F          0.626769946659    -0.417684523064     2.026590882244    18.998403224000
           H         -1.335090369682     0.799938955591    -1.856583085418     1.007825032070
           H         -3.226465347725     1.802721126979    -0.682443004161     1.007825032070
           H          1.079649224428     1.209922052788    -2.158158319904     1.007825032070
           H          0.868144168075    -2.224887963906     0.422657380974     1.007825032070
           H         -1.437648212448     0.688509632902     3.092861306426     1.007825032070
           H          2.993226782203     0.112996815336    -3.296635335800     1.007825032070
           H          2.791000289864    -3.163725805569    -0.833434354188     1.007825032070

  Running in c1 symmetry.

  Rotational constants: A =      0.06401  B =      0.01347  C =      0.01162 [cm^-1]
  Rotational constants: A =   1918.95592  B =    403.90845  C =    348.43702 [MHz]
  Nuclear repulsion =  800.930373252485538

  Charge       = -1
  Multiplicity = 1
  Electrons    = 98
  Nalpha       = 49
  Nbeta        = 49

  ==> Algorithm <==

  SCF Algorithm Type is DF.
  DIIS enabled.
  MOM disabled.
  Fractional occupation disabled.
  Guess Type is READ.
  Energy threshold   = 1.00e-10
  Density threshold  = 1.00e-10
  Integral threshold = 0.00e+00

  ==> Primary Basis <==

  Basis Set: AUG-CC-PVTZ
    Blend: AUG-CC-PVTZ
    Number of shells: 259
    Number of basis function: 805
    Number of Cartesian functions: 945
    Spherical Harmonics?: true
    Max angular momentum: 3

   => Loading Basis Set <=

    Name: (AUG-CC-PVTZ AUX)
    Role: JKFIT
    Keyword: DF_BASIS_SCF
    atoms 1-11  entry C          line   161 file /cbio/jclab/home/chayas/anaconda/envs/py35/share/psi4/basis/aug-cc-pvtz-jkfit.gbs 
    atoms 12    entry N          line   223 file /cbio/jclab/home/chayas/anaconda/envs/py35/share/psi4/basis/aug-cc-pvtz-jkfit.gbs 
    atoms 13    entry O          line   285 file /cbio/jclab/home/chayas/anaconda/envs/py35/share/psi4/basis/aug-cc-pvtz-jkfit.gbs 
    atoms 14    entry F          line   347 file /cbio/jclab/home/chayas/anaconda/envs/py35/share/psi4/basis/aug-cc-pvtz-jkfit.gbs 
    atoms 15-21 entry H          line    69 file /cbio/jclab/home/chayas/anaconda/envs/py35/share/psi4/basis/aug-cc-pvtz-jkfit.gbs 

  Reading orbitals from file 180, no projection.

  ==> Pre-Iterations <==

   -------------------------------------------------------
    Irrep   Nso     Nmo     Nalpha   Nbeta   Ndocc  Nsocc
   -------------------------------------------------------
     A        805     805       0       0       0       0
   -------------------------------------------------------
    Total     805     805      49      49      49       0
   -------------------------------------------------------

  ==> Integral Setup <==

  ==> DFJK: Density-Fitted J/K Matrices <==

    J tasked:                  Yes
    K tasked:                  Yes
    wK tasked:                  No
    OpenMP threads:              8
    Integrals threads:           8
    Memory (MB):              5722
    Algorithm:                Core
    Integral Cache:           NONE
    Schwarz Cutoff:          1E-12
    Fitting Condition:       1E-12

   => Auxiliary Basis Set <=

  Basis Set: (AUG-CC-PVTZ AUX)
    Blend: AUG-CC-PVTZ-JKFIT
    Number of shells: 518
    Number of basis function: 1778
    Number of Cartesian functions: 2219
    Spherical Harmonics?: true
    Max angular momentum: 4

  Minimum eigenvalue in the overlap matrix is 8.0570878331E-07.
  Using Symmetric Orthogonalization.

  SCF Guess: Orbitals guess was supplied from a previous computation.

  ==> Iterations <==

                           Total Energy        Delta E     RMS |[F,P]|

   @DF-RHF iter   0:  -649.68938976935192   -6.49689e+02   4.07712e-04 
   @DF-RHF iter   1:  -649.61713102551960    7.22587e-02   8.38385e-05 
   @DF-RHF iter   2:  -649.61751320012172   -3.82175e-04   5.34040e-05 DIIS
   @DF-RHF iter   3:  -649.61768648361590   -1.73283e-04   7.89315e-06 DIIS
   @DF-RHF iter   4:  -649.61769202301264   -5.53940e-06   3.54958e-06 DIIS
   @DF-RHF iter   5:  -649.61769373115783   -1.70815e-06   1.23364e-06 DIIS
   @DF-RHF iter   6:  -649.61769407910037   -3.47943e-07   6.97240e-07 DIIS
   @DF-RHF iter   7:  -649.61769418609197   -1.06992e-07   2.64097e-07 DIIS
   @DF-RHF iter   8:  -649.61769421345650   -2.73645e-08   1.30503e-07 DIIS
   @DF-RHF iter   9:  -649.61769421749375   -4.03725e-09   4.96299e-08 DIIS
   @DF-RHF iter  10:  -649.61769421811937   -6.25619e-10   1.44244e-08 DIIS
   @DF-RHF iter  11:  -649.61769421815870   -3.93356e-11   5.03768e-09 DIIS
   @DF-RHF iter  12:  -649.61769421817166   -1.29603e-11   1.92017e-09 DIIS
   @DF-RHF iter  13:  -649.61769421816427    7.38964e-12   6.90265e-10 DIIS
   @DF-RHF iter  14:  -649.61769421817689   -1.26192e-11   2.62342e-10 DIIS
   @DF-RHF iter  15:  -649.61769421816985    7.04858e-12   9.88100e-11 DIIS

  ==> Post-Iterations <==

    Orbital Energies (a.u.)
    -----------------------

    Doubly Occupied:                                                      

       1A    -26.185419     2A    -20.309015     3A    -15.454215  
       4A    -11.191421     5A    -11.168631     6A    -11.167054  
       7A    -11.149187     8A    -11.130970     9A    -11.123776  
      10A    -11.121167    11A    -11.110209    12A    -11.084956  
      13A    -11.066204    14A    -11.065975    15A     -1.503892  
      16A     -1.145685    17A     -1.137355    18A     -1.024443  
      19A     -0.965992    20A     -0.925190    21A     -0.874730  
      22A     -0.849078    23A     -0.750890    24A     -0.739544  
      25A     -0.701167    26A     -0.676218    27A     -0.608284  
      28A     -0.581838    29A     -0.574724    30A     -0.563648  
      31A     -0.548282    32A     -0.535716    33A     -0.504140  
      34A     -0.488781    35A     -0.472746    36A     -0.461159  
      37A     -0.434922    38A     -0.419808    39A     -0.411227  
      40A     -0.384071    41A     -0.376846    42A     -0.363320  
      43A     -0.312097    44A     -0.309860    45A     -0.254290  
      46A     -0.242690    47A     -0.225231    48A     -0.202906  
      49A     -0.117413  

    Virtual:                                                              

      50A      0.098382    51A      0.100731    52A      0.115071  
      53A      0.120482    54A      0.124065    55A      0.128145  
[...]
	 B(8,1,15)        =         2.054974	     117.741317
	 B(8,11,14)       =         2.057745	     117.900097
	 B(9,3,17)        =         2.085830	     119.509265
	 B(9,4,18)        =         2.091698	     119.845478
	 B(9,8,11)        =         2.166309	     124.120341
	 B(10,2,16)       =         2.045324	     117.188449
	 B(10,5,11)       =         2.126041	     121.813153
	 B(10,5,19)       =         2.071764	     118.703324
	 B(11,5,19)       =         2.085346	     119.481516
	 B(12,6,20)       =         2.026321	     116.099628
	 B(12,7,21)       =         2.023785	     115.954322
	 B(20,12,21)      =         2.999959	     171.884971
	 D(1,2,10,5)      =        -0.020386	      -1.168005
	 D(1,2,10,13)     =         3.130179	     179.346063
	 D(1,8,9,3)       =         0.773342	      44.309252
	 D(1,8,9,4)       =        -2.405281	    -137.812436
	 D(1,8,11,5)      =        -0.045948	      -2.632639
	 D(1,8,11,14)     =        -3.139805	    -179.897598
	 D(2,1,8,9)       =         3.062800	     175.485539
	 D(2,1,8,11)      =         0.025039	       1.434641
	 D(2,10,5,11)     =         0.000735	       0.042103
	 D(2,10,5,19)     =         3.133282	     179.523827
	 D(3,6,12,7)      =         0.003739	       0.214210
	 D(3,6,12,20)     =        -3.113531	    -178.392191
	 D(3,6,12,21)     =         0.006233	       0.357140
	 D(3,6,20,12)     =         3.114821	     178.466080
	 D(3,9,4,7)       =        -0.027378	      -1.568618
	 D(3,9,4,18)      =         3.131943	     179.447089
	 D(3,9,8,11)      =        -2.482520	    -142.237914
	 D(4,7,12,6)      =         0.008197	       0.469647
	 D(4,7,12,20)     =         0.027588	       1.580660
	 D(4,7,12,21)     =        -3.130275	    -179.351574
	 D(4,7,21,12)     =         3.130855	     179.384768
	 D(4,9,3,6)       =         0.038455	       2.203296
	 D(4,9,3,17)      =        -3.093393	    -177.238375
	 D(4,9,8,11)      =         0.622042	      35.640397
	 D(5,10,2,16)     =         3.106570	     177.993371
	 D(5,11,8,9)      =        -3.080243	    -176.484929
	 D(6,3,9,8)       =        -3.137209	    -179.748816
	 D(6,12,7,21)     =         3.138472	     179.821221
	 D(6,12,21,7)     =        -0.004760	      -0.272751
	 D(6,20,12,7)     =        -0.037063	      -2.123543
	 D(6,20,12,21)    =        -0.091604	      -5.248537
	 D(7,4,9,8)       =        -3.134008	    -179.565433
	 D(7,12,6,20)     =         3.117270	     178.606401
	 D(7,21,12,20)    =         0.068332	       3.915145
	 D(8,1,2,10)      =         0.007247	       0.415213
	 D(8,1,2,16)      =        -3.119282	    -178.721681
	 D(8,9,3,17)      =         0.014129	       0.809513
	 D(8,9,4,18)      =         0.025312	       1.450275
	 D(8,11,5,10)     =         0.034245	       1.962112
	 D(8,11,5,19)     =        -3.098233	    -177.515681
	 D(9,3,6,12)      =        -0.028406	      -1.627556
	 D(9,3,6,20)      =        -3.140964	    -179.963978
	 D(9,4,7,12)      =         0.004540	       0.260131
	 D(9,4,7,21)      =        -3.125348	    -179.069224
	 D(9,8,1,15)      =        -0.046814	      -2.682255
	 D(9,8,11,14)     =         0.109085	       6.250112
	 D(10,2,1,15)     =         3.116420	     178.557739
	 D(10,5,11,14)    =         3.128263	     179.236244
	 D(11,5,10,13)    =         3.133406	     179.530944
	 D(11,8,1,15)     =        -3.084575	    -176.733153
	 D(12,6,3,17)     =         3.103402	     177.811836
	 D(12,7,4,18)     =         3.128395	     179.243838
	 D(13,10,2,16)    =        -0.026050	      -1.492561
	 D(13,10,5,19)    =        -0.017232	      -0.987332
	 D(14,11,5,19)    =        -0.004216	      -0.241548
	 D(15,1,2,16)     =        -0.010108	      -0.579155
	 D(17,3,6,20)     =        -0.009156	      -0.524586
	 D(18,4,7,21)     =        -0.001493	      -0.085517
	 D(20,6,12,21)    =         3.119764	     178.749330
	 D(20,12,7,21)    =        -3.125322	    -179.067766

	Adding user-defined constraint: Fragment 1; Coordinate 59:
		Value =     0.773342; Fixed value    =     0.785398
		Force =     0.006028; Force constant =     0.500000
	Removing off-diagonal coupling between coordinate 59 and others.
	Taking RFO optimization step.
	Going to follow RFO solution 1.
	Using RFO vector 1.

	Determining step-restricting scale parameter for RS-RFO.
	Maximum step size allowed    0.10000

	 Iter      |step|        alpha        rfo_root  
	------------------------------------------------
	    0     0.10320       1.00000           1
	    1     0.10044       1.12987           1
	    2     0.10001       1.15392           1
	    3     0.10000       1.15456           1
	------------------------------------------------
	Norm of target step-size    0.10000
	Projected energy change by RFO approximation:         0.0003619866

	Back-transformation to cartesian coordinates...
	Successfully converged to displaced geometry.

	--- Internal Coordinate Step in ANG or DEG, aJ/ANG or AJ/DEG ---
	 ---------------------------------------------------------------------------
	   Coordinate                Previous        Force       Change         New 
	   ----------                --------       ------       ------       ------
	    1 R(1,2)          =      1.374546    -0.000923    -0.000160     1.374385
	    2 R(1,8)          =      1.406478     0.002020     0.000255     1.406734
	    3 R(1,15)         =      1.083374    -0.000538    -0.000155     1.083219
	    4 R(2,10)         =      1.436765    -0.000095    -0.000002     1.436763
	    5 R(2,16)         =      1.081146    -0.000709    -0.000143     1.081002
	    6 R(3,6)          =      1.383717    -0.001060    -0.000169     1.383549
	    7 R(3,9)          =      1.399411     0.000576     0.000085     1.399496
	    8 R(3,17)         =      1.080322    -0.000340    -0.000097     1.080225
	    9 R(4,7)          =      1.383729    -0.000145    -0.000068     1.383661
	   10 R(4,9)          =      1.399252    -0.000021     0.000000     1.399253
	   11 R(4,18)         =      1.078373    -0.000268    -0.000106     1.078268
	   12 R(5,10)         =      1.435559    -0.000437    -0.000066     1.435493
	   13 R(5,11)         =      1.367050    -0.000312    -0.000137     1.366912
	   14 R(5,19)         =      1.079383    -0.000499    -0.000165     1.079218
	   15 R(6,12)         =      1.338383     0.000629     0.000022     1.338405
	   16 R(6,20)         =      1.082796     0.000015    -0.000016     1.082780
	   17 R(7,12)         =      1.339405    -0.001481    -0.000250     1.339155
	   18 R(7,21)         =      1.082538     0.000161     0.000024     1.082562
	   19 R(8,9)          =      1.443441    -0.000094    -0.000032     1.443408
	   20 R(8,11)         =      1.396091    -0.001931    -0.000428     1.395663
	   21 R(10,13)        =      1.261009     0.000543     0.000052     1.261062
	   22 R(11,14)        =      1.371897    -0.000522    -0.000128     1.371769
	   23 B(1,2,10)       =    122.606728    -0.000001    -0.003082   122.603646
	   24 B(1,2,16)       =    120.199502    -0.000002    -0.021540   120.177962
	   25 B(1,8,9)        =    121.196648    -0.000004     0.006301   121.202949
	   26 B(1,8,11)       =    114.392131    -0.000000    -0.004237   114.387895
	   27 B(2,1,8)        =    123.045594    -0.000004     0.002497   123.048091
	   28 B(2,1,15)       =    119.188194     0.000004    -0.000397   119.187797
	   29 B(2,10,5)       =    113.580168     0.000002     0.001811   113.581979
	   30 B(2,10,13)      =    123.457245    -0.000001    -0.005096   123.452148
	   31 B(3,6,12)       =    124.100414     0.000001     0.016786   124.117199
	   32 B(3,6,20)       =    119.780630     0.000001     0.005427   119.786057
	   33 B(3,9,4)        =    115.124611    -0.000005    -0.023529   115.101082
	   34 B(3,9,8)        =    121.258068     0.000009     0.043165   121.301232
	   35 B(4,7,12)       =    124.426336     0.000002     0.004175   124.430511
	   36 B(4,7,21)       =    119.616213    -0.000002    -0.001912   119.614300
	   37 B(4,9,8)        =    123.586423    -0.000004    -0.024967   123.561456
	   38 B(5,10,13)      =    122.960486    -0.000000     0.003461   122.963948
	   39 B(5,11,8)       =    124.512275     0.000004     0.017865   124.530139
	   40 B(5,11,14)      =    117.534015     0.000000     0.019297   117.553312
	   41 B(6,3,9)        =    120.570253     0.000001     0.001434   120.571686
	   42 B(6,3,17)       =    119.918130    -0.000001    -0.020170   119.897961
	   43 B(6,12,7)       =    115.500826    -0.000001    -0.013925   115.486901
	   44 B(7,4,9)        =    120.243811     0.000002     0.014342   120.258154
	   45 B(7,4,18)       =    119.902928    -0.000001    -0.017602   119.885327
	   46 B(8,1,15)       =    117.741317    -0.000001    -0.002489   117.738828
	   47 B(8,11,14)      =    117.900097    -0.000004    -0.020213   117.879884
	   48 B(9,3,17)       =    119.509265    -0.000000     0.019946   119.529211
	   49 B(9,4,18)       =    119.845478    -0.000001     0.007071   119.852549
	   50 B(9,8,11)       =    124.120341     0.000007     0.005734   124.126075
	   51 B(10,2,16)      =    117.188449     0.000002     0.023328   117.211777
	   52 B(10,5,11)      =    121.813153    -0.000001    -0.000157   121.812996
	   53 B(10,5,19)      =    118.703324     0.000003     0.026938   118.730263
	   54 B(11,5,19)      =    119.481516    -0.000003    -0.026211   119.455304
	   55 B(12,6,20)      =    116.099628    -0.000002    -0.003904   116.095723
	   56 B(12,7,21)      =    115.954322     0.000000     0.000345   115.954666
	   57 D(1,2,10,5)     =     -1.168005     0.000002     0.800649    -0.367357
	   58 D(1,2,10,13)    =    179.346063    -0.000002    -0.205463   179.140600
	   59 D(1,8,9,3)      =     44.309252    -0.000006    -0.229691    44.079562
	   60 D(1,8,9,4)      =   -137.812436    -0.000002    -0.405868  -138.218304
	   61 D(1,8,11,5)     =     -2.632639     0.000003     0.328586    -2.304053
	   62 D(1,8,11,14)    =   -179.897598     0.000002    -0.144820  -180.042419
	   63 D(2,1,8,9)      =    175.485539     0.000002     0.021342   175.506881
	   64 D(2,1,8,11)     =      1.434641    -0.000003    -0.058979     1.375663
	   65 D(2,10,5,11)    =      0.042103    -0.000002    -0.537731    -0.495628
	   66 D(2,10,5,19)    =    179.523827    -0.000002    -0.458033   179.065795
	   67 D(3,6,12,7)     =      0.214210    -0.000001    -0.252132    -0.037922
	   68 D(3,9,4,7)      =     -1.568618     0.000001    -0.238731    -1.807349
	   69 D(3,9,4,18)     =    179.447089     0.000001    -0.528793   178.918296
	   70 D(3,9,8,11)     =   -142.237914    -0.000000    -0.141887  -142.379801
	   71 D(4,7,12,6)     =      0.469647    -0.000001    -0.022473     0.447174
	   72 D(4,9,3,6)      =      2.203296    -0.000003    -0.013876     2.189420
	   73 D(4,9,3,17)     =   -177.238375    -0.000001    -0.183116  -177.421491
	   74 D(4,9,8,11)     =     35.640397     0.000004    -0.318064    35.322333
	   75 D(5,10,2,16)    =    177.993371     0.000001     0.703974   178.697345
	   76 D(5,11,8,9)     =   -176.484929    -0.000002     0.245572  -176.239357
	   77 D(6,3,9,8)      =   -179.748816     0.000000    -0.176164  -179.924980
	   78 D(6,12,7,21)    =    179.821221     0.000002     0.890890   180.712111
	   79 D(7,4,9,8)      =   -179.565433    -0.000003    -0.073814  -179.639247
	   80 D(7,12,6,20)    =    178.606401     0.000003     0.986316   179.592717
	   81 D(8,1,2,10)     =      0.415213     0.000001    -0.532483    -0.117269
	   82 D(8,1,2,16)     =   -178.721681     0.000001    -0.433397  -179.155078
	   83 D(8,9,3,17)     =      0.809513     0.000003    -0.345404     0.464109
	   84 D(8,9,4,18)     =      1.450275    -0.000003    -0.363876     1.086399
	   85 D(8,11,5,10)    =      1.962112     0.000000    -0.010411     1.951701
	   86 D(8,11,5,19)    =   -177.515681    -0.000000    -0.090942  -177.606623
	   87 D(9,3,6,12)     =     -1.627556     0.000004     0.274959    -1.352597
	   88 D(9,3,6,20)     =   -179.963978    -0.000000    -1.006416  -180.970395
	   89 D(9,4,7,12)     =      0.260131     0.000001     0.273657     0.533788
	   90 D(9,4,7,21)     =   -179.069224    -0.000002    -0.670997  -179.740222
	   91 D(9,8,1,15)     =     -2.682255     0.000004     0.035591    -2.646663
	   92 D(9,8,11,14)    =      6.250112    -0.000003    -0.227834     6.022277
	   93 D(10,2,1,15)    =    178.557739    -0.000002    -0.546965   178.010775
	   94 D(10,5,11,14)   =    179.236244     0.000001     0.460589   179.696833
	   95 D(11,5,10,13)   =    179.530944     0.000001     0.462735   179.993679
	   96 D(11,8,1,15)    =   -176.733153    -0.000001    -0.044729  -176.777881
	   97 D(12,6,3,17)    =    177.811836     0.000001     0.445046   178.256882
	   98 D(12,7,4,18)    =    179.243838     0.000001     0.564066   179.807904
	   99 D(13,10,2,16)   =     -1.492561    -0.000002    -0.302138    -1.794699
	  100 D(13,10,5,19)   =     -0.987332     0.000002     0.542433    -0.444898
	  101 D(14,11,5,19)   =     -0.241548     0.000000     0.380057     0.138509
	  102 D(15,1,2,16)    =     -0.579155    -0.000001    -0.447879    -1.027034
	  103 D(17,3,6,20)    =     -0.524586    -0.000003    -0.836330    -1.360916
	  104 D(18,4,7,21)    =     -0.085517    -0.000002    -0.380588    -0.466106
	  105 R(4,14)         =      2.871674    -0.000476    -0.006065     2.865608
	  106 R(1,X)          =     -1.304488    -0.000461     0.002514    -1.301974
	  107 R(1,Y)          =      0.840804     0.001102     0.004771     0.845576
	  108 R(1,Z)          =     -0.735618     0.000079    -0.002484    -0.738102
	  109 R(2,X)          =     -2.399443     0.000232     0.002304    -2.397139
	  110 R(2,Y)          =      1.377341     0.000457     0.006037     1.383379
	  111 R(2,Z)          =     -0.101127    -0.000178    -0.004268    -0.105394
	  112 R(3,X)          =      1.442403    -0.000137     0.001975     1.444378
	  113 R(3,Y)          =      0.198698    -0.000308    -0.001777     0.196921
	  114 R(3,Z)          =     -1.858142    -0.000544     0.000606    -1.857536
	  115 R(4,X)          =      1.385743     0.000678     0.001311     1.387053
	  116 R(4,Y)          =     -1.650457     0.000494     0.001734    -1.648723
	  117 R(4,Z)          =     -0.389649     0.000097     0.004612    -0.385037
	  118 R(5,X)          =     -1.476856    -0.000262    -0.006437    -1.483292
	  119 R(5,Y)          =      0.699044    -0.000335    -0.004050     0.694994
	  120 R(5,Z)          =      2.011702    -0.000359    -0.003768     2.007934
	  121 R(6,X)          =      2.477186    -0.000149     0.004741     2.481927
	  122 R(6,Y)          =     -0.425322     0.000455    -0.001609    -0.426931
	  123 R(6,Z)          =     -2.532307     0.000907     0.005064    -2.527243
	  124 R(7,X)          =      2.431266    -0.000281     0.000717     2.431982
	  125 R(7,Y)          =     -2.192190     0.000198    -0.000584    -2.192774
	  126 R(7,Z)          =     -1.116364    -0.000786     0.005620    -1.110745
	  127 R(8,X)          =     -0.248261    -0.000391    -0.000536    -0.248796
	  128 R(8,Y)          =      0.217379    -0.001626     0.000705     0.218084
	  129 R(8,Z)          =     -0.047210     0.001629    -0.000986    -0.048197
	  130 R(9,X)          =      0.835746     0.000584     0.000014     0.835759
	  131 R(9,Y)          =     -0.417672     0.000752    -0.000053    -0.417725
	  132 R(9,Z)          =     -0.757958     0.001181     0.000596    -0.757362
	  133 R(10,X)         =     -2.554948    -0.000265    -0.006671    -2.561619
	  134 R(10,Y)         =      1.354598    -0.001294    -0.006426     1.348173
	  135 R(10,Z)         =      1.327017    -0.000356    -0.005529     1.321488
	  136 R(11,X)         =     -0.417269    -0.000591    -0.003611    -0.420880
	  137 R(11,Y)         =      0.159223    -0.000284    -0.000530     0.158693
	  138 R(11,Z)         =      1.337392    -0.000286    -0.001850     1.335542
	  139 R(12,X)         =      2.990723    -0.000345     0.002605     2.993328
	  140 R(12,Y)         =     -1.611752    -0.000396    -0.002282    -1.614035
	  141 R(12,Z)         =     -2.185993     0.000712     0.006002    -2.179991
	  142 R(13,X)         =     -3.546521    -0.000022    -0.005277    -3.551798
	  143 R(13,Y)         =      1.852280     0.000156    -0.002139     1.850140
	  144 R(13,Z)         =      1.926383    -0.000014    -0.006689     1.919694
	  145 R(14,X)         =      0.572311    -0.000867    -0.008183     0.564128
	  146 R(14,Y)         =     -0.432788    -0.000051    -0.007076    -0.439865
	  147 R(14,Z)         =      2.080598    -0.000696    -0.001256     2.079342
	  148 R(15,X)         =     -1.255113     0.000200     0.005233    -1.249880
	  149 R(15,Y)         =      0.867466     0.000809     0.006654     0.874120
	  150 R(15,Z)         =     -1.817537     0.000641    -0.002153    -1.819690
	  151 R(16,X)         =     -3.195315     0.001215     0.008476    -3.186838
	  152 R(16,Y)         =      1.828072     0.000746     0.015218     1.843290
	  153 R(16,Z)         =     -0.677586     0.000021    -0.005236    -0.682822
	  154 R(17,X)         =      1.103330    -0.000137    -0.000391     1.102939
	  155 R(17,Y)         =      1.174098    -0.000846    -0.004467     1.169631
	  156 R(17,Z)         =     -2.175508    -0.001039    -0.004737    -2.180245
	  157 R(18,X)         =      0.982196     0.001259     0.005919     0.988115
	  158 R(18,Y)         =     -2.187625     0.000509     0.006876    -2.180749
	  159 R(18,Z)         =      0.453848     0.000043     0.009912     0.463760
	  160 R(19,X)         =     -1.505835     0.000492    -0.008826    -1.514660
	  161 R(19,Y)         =      0.641513    -0.000254    -0.006442     0.635071
	  162 R(19,Z)         =      3.089162    -0.000834    -0.004131     3.085030
	  163 R(20,X)         =      2.937795    -0.001054    -0.004635     2.933159
	  164 R(20,Y)         =      0.063506    -0.000818    -0.010419     0.053087
	  165 R(20,Z)         =     -3.381620    -0.000335    -0.004915    -3.386536
	  166 R(21,X)         =      2.839081     0.000301     0.008759     2.847840
	  167 R(21,Y)         =     -3.153674     0.000532     0.005860    -3.147814
	  168 R(21,Z)         =     -0.831543     0.000118     0.015589    -0.815954
	 ---------------------------------------------------------------------------
	Successfully symmetrized geometry.
	 Forces used to impose fixed constraints are not included.
	  Forces zeroed: 59 

  ==> Convergence Check <==

  Measures of convergence in internal coordinates in au.
  Criteria marked as inactive (o), active & met (*), and active & unmet ( ).
  --------------------------------------------------------------------------------------------- ~
   Step     Total Energy     Delta E     MAX Force     RMS Force      MAX Disp      RMS Disp    ~
  --------------------------------------------------------------------------------------------- ~
    Convergence Criteria    1.00e-06 *    3.00e-04 *             o    1.20e-03 *             o  ~
  --------------------------------------------------------------------------------------------- ~
      1    -652.33444152   -6.52e+02      2.45e-04 *    8.84e-05 o    2.95e-02      7.72e-03 o  ~
  ---------------------------------------------------------------------------------------------

	Writing optimization data to binary file.
	
Fatal Error: PSIO Error
Error occurred in file: /scratch/psilocaluser/conda-builds/psi4_1495011512596/work/psi4/src/psi4/libpsio/error.cc on line: 129
The most recent 5 function calls were:

psi::PsiException::PsiException(std::__cxx11::basic_string<char, std::char_traits<char>, std::allocator<char> >, char const*, int)
psi::psio_error(unsigned int, unsigned int)
psi::PSIO::write(unsigned int, char const*, char*, unsigned long, psi::psio_address, psi::psio_address*)
psi::PSIO::write_entry(unsigned int, char const*, char*, unsigned long)
psi::psio_write_entry(unsigned int, char const*, char*, unsigned long)
