
    -----------------------------------------------------------------------
          Psi4: An Open-Source Ab Initio Electronic Structure Package
                               Psi4 1.1 release

                         Git: Rev {HEAD} add49b9 


    R. M. Parrish, L. A. Burns, D. G. A. Smith, A. C. Simmonett,
    A. E. DePrince III, E. G. Hohenstein, U. Bozkaya, A. Yu. Sokolov,
    R. Di Remigio, R. M. Richard, J. F. Gonthier, A. M. James,
    H. R. McAlexander, A. Kumar, M. Saitow, X. Wang, B. P. Pritchard,
    P. Verma, H. F. Schaefer III, K. Patkowski, R. A. King, E. F. Valeev,
    F. A. Evangelista, J. M. Turney, T. D. Crawford, and C. D. Sherrill,
    J. Chem. Theory Comput. in press (2017).
    (doi: 10.1021/acs.jctc.7b00174)

    -----------------------------------------------------------------------


    Psi4 started on: Monday, 13 November 2017 07:26PM

    Process ID:  27944
    PSIDATADIR: /cbio/jclab/home/chayas/anaconda/envs/py35/share/psi4
    Memory:     500.0 MiB
    Threads:    8
    
  ==> Input File <==

--------------------------------------------------------------------------

memory 8 Gb

molecule phepyrFOH_neutral {
  symmetry C1
  0 1 
  C      1.885   -1.036   -0.112
  C      0.807   -0.463   0.561
  C      5.328   -1.754   0.120
  C      3.825   -3.270   -0.987
  C      1.800   -1.079   2.676
  C      6.363   -2.357   -0.576
  C      4.927   -3.805   -1.634
  C      2.921   -1.631   0.608
  C      4.038   -2.225   -0.095
  C      0.764   -0.484   1.955
  C      2.878   -1.652   2.002
  N      6.195   -3.374   -1.451
  O      -0.289   0.076   2.612
  F      3.866   -2.220   2.709
  H      1.904   -1.012   -1.199
  H      0.002   -0.002   -0.006
  H      5.534   -0.941   0.810
  H      2.832   -3.663   -1.181
  H      1.772   -1.099   3.762
  H      7.388   -2.028   -0.442
  H      4.814   -4.620   -2.340
  H      -0.175   -0.018   3.571
  units Angstrom
}

dih_string = "1 8 9 3 120"
set optking { fixed_dihedral = $dih_string
              opt_coordinates = cartesian
              dynamic_level = 1
              geom_maxiter = 250
              print_trajectory_xyz_file = True }

optimize('MP2/aug-cc-PVTZ')
--------------------------------------------------------------------------

  Memory set to   7.451 GiB by Python driver.
gradient() will perform analytic gradient computation.

*** tstart() called on gpu-2-9.local
*** at Mon Nov 13 19:26:45 2017

    SCF Algorithm Type (re)set to DF.

*** tstart() called on gpu-2-9.local
*** at Mon Nov 13 19:26:45 2017

   => Loading Basis Set <=

    Name: AUG-CC-PVTZ
    Role: ORBITAL
    Keyword: BASIS
    atoms 1-11  entry C          line   221 file /cbio/jclab/home/chayas/anaconda/envs/py35/share/psi4/basis/aug-cc-pvtz.gbs 
    atoms 12    entry N          line   267 file /cbio/jclab/home/chayas/anaconda/envs/py35/share/psi4/basis/aug-cc-pvtz.gbs 
    atoms 13    entry O          line   313 file /cbio/jclab/home/chayas/anaconda/envs/py35/share/psi4/basis/aug-cc-pvtz.gbs 
    atoms 14    entry F          line   359 file /cbio/jclab/home/chayas/anaconda/envs/py35/share/psi4/basis/aug-cc-pvtz.gbs 
    atoms 15-22 entry H          line    34 file /cbio/jclab/home/chayas/anaconda/envs/py35/share/psi4/basis/aug-cc-pvtz.gbs 


         ---------------------------------------------------------
                                   SCF
            by Justin Turney, Rob Parrish, and Andy Simmonett
                              RHF Reference
                        8 Threads,   7629 MiB Core
         ---------------------------------------------------------

  ==> Geometry <==

    Molecular point group: c1
    Full point group: C1

    Geometry (in Angstrom), charge = 0, multiplicity = 1:

       Center              X                  Y                   Z               Mass       
    ------------   -----------------  -----------------  -----------------  -----------------
           C         -1.321754090856     0.755858361091    -0.800362975813    12.000000000000
           C         -2.399754090856     1.328858361091    -0.127362975813    12.000000000000
           C          2.121245909144     0.037858361091    -0.568362975813    12.000000000000
           C          0.618245909144    -1.478141638909    -1.675362975813    12.000000000000
           C         -1.406754090856     0.712858361091     1.987637024187    12.000000000000
           C          3.156245909144    -0.565141638909    -1.264362975813    12.000000000000
           C          1.720245909144    -2.013141638909    -2.322362975813    12.000000000000
           C         -0.285754090856     0.160858361091    -0.080362975813    12.000000000000
           C          0.831245909144    -0.433141638909    -0.783362975813    12.000000000000
           C         -2.442754090856     1.307858361091     1.266637024187    12.000000000000
           C         -0.328754090856     0.139858361091     1.313637024187    12.000000000000
           N          2.988245909144    -1.582141638909    -2.139362975813    14.003074004780
           O         -3.495754090856     1.867858361091     1.923637024187    15.994914619560
           F          0.659245909144    -0.428141638909     2.020637024187    18.998403224000
           H         -1.302754090856     0.779858361091    -1.887362975813     1.007825032070
           H         -3.204754090856     1.789858361091    -0.694362975813     1.007825032070
           H          2.327245909144     0.850858361091     0.121637024187     1.007825032070
           H         -0.374754090856    -1.871141638909    -1.869362975813     1.007825032070
           H         -1.434754090856     0.692858361091     3.073637024187     1.007825032070
           H          4.181245909144    -0.236141638909    -1.130362975813     1.007825032070
           H          1.607245909144    -2.828141638909    -3.028362975813     1.007825032070
           H         -3.381754090856     1.773858361091     2.882637024187     1.007825032070

  Running in c1 symmetry.

  Rotational constants: A =      0.06328  B =      0.01308  C =      0.01165 [cm^-1]
  Rotational constants: A =   1897.16265  B =    391.99543  C =    349.27129 [MHz]
  Nuclear repulsion =  814.049507767294472

  Charge       = 0
  Multiplicity = 1
  Electrons    = 98
  Nalpha       = 49
  Nbeta        = 49

  ==> Algorithm <==

  SCF Algorithm Type is DF.
  DIIS enabled.
  MOM disabled.
  Fractional occupation disabled.
  Guess Type is SAD.
  Energy threshold   = 1.00e-10
  Density threshold  = 1.00e-10
  Integral threshold = 0.00e+00

  ==> Primary Basis <==

  Basis Set: AUG-CC-PVTZ
    Blend: AUG-CC-PVTZ
    Number of shells: 268
    Number of basis function: 828
    Number of Cartesian functions: 970
    Spherical Harmonics?: true
    Max angular momentum: 3

   => Loading Basis Set <=

    Name: (AUG-CC-PVTZ AUX)
    Role: JKFIT
    Keyword: DF_BASIS_SCF
    atoms 1-11  entry C          line   161 file /cbio/jclab/home/chayas/anaconda/envs/py35/share/psi4/basis/aug-cc-pvtz-jkfit.gbs 
    atoms 12    entry N          line   223 file /cbio/jclab/home/chayas/anaconda/envs/py35/share/psi4/basis/aug-cc-pvtz-jkfit.gbs 
    atoms 13    entry O          line   285 file /cbio/jclab/home/chayas/anaconda/envs/py35/share/psi4/basis/aug-cc-pvtz-jkfit.gbs 
    atoms 14    entry F          line   347 file /cbio/jclab/home/chayas/anaconda/envs/py35/share/psi4/basis/aug-cc-pvtz-jkfit.gbs 
    atoms 15-22 entry H          line    69 file /cbio/jclab/home/chayas/anaconda/envs/py35/share/psi4/basis/aug-cc-pvtz-jkfit.gbs 

  ==> Pre-Iterations <==

   -------------------------------------------------------
    Irrep   Nso     Nmo     Nalpha   Nbeta   Ndocc  Nsocc
   -------------------------------------------------------
     A        828     828       0       0       0       0
   -------------------------------------------------------
    Total     828     828      49      49      49       0
   -------------------------------------------------------

  ==> Integral Setup <==

  ==> DFJK: Density-Fitted J/K Matrices <==

    J tasked:                  Yes
    K tasked:                  Yes
    wK tasked:                  No
    OpenMP threads:              8
    Integrals threads:           8
    Memory (MB):              5722
    Algorithm:                Core
    Integral Cache:           NONE
    Schwarz Cutoff:          1E-12
    Fitting Condition:       1E-12

   => Auxiliary Basis Set <=

  Basis Set: (AUG-CC-PVTZ AUX)
    Blend: AUG-CC-PVTZ-JKFIT
    Number of shells: 532
    Number of basis function: 1824
    Number of Cartesian functions: 2274
    Spherical Harmonics?: true
    Max angular momentum: 4

  Minimum eigenvalue in the overlap matrix is 7.2496717609E-07.
  Using Symmetric Orthogonalization.

  SCF Guess: Superposition of Atomic Densities via on-the-fly atomic UHF.

  ==> Iterations <==

                           Total Energy        Delta E     RMS |[F,P]|

   @DF-RHF iter   0:  -656.40926180698307   -6.56409e+02   1.69193e-02 
   @DF-RHF iter   1:  -649.80154510172667    6.60772e+00   1.42250e-03 
   @DF-RHF iter   2:  -650.11420322543495   -3.12658e-01   6.50431e-04 DIIS
   @DF-RHF iter   3:  -650.15827027358159   -4.40670e-02   3.22933e-04 DIIS
   @DF-RHF iter   4:  -650.17183679916945   -1.35665e-02   8.26209e-05 DIIS
   @DF-RHF iter   5:  -650.17328714783116   -1.45035e-03   3.16387e-05 DIIS
   @DF-RHF iter   6:  -650.17353553074145   -2.48383e-04   1.32593e-05 DIIS
   @DF-RHF iter   7:  -650.17357594989630   -4.04192e-05   3.81801e-06 DIIS
   @DF-RHF iter   8:  -650.17357937597137   -3.42608e-06   1.20460e-06 DIIS
   @DF-RHF iter   9:  -650.17357984613511   -4.70164e-07   4.88836e-07 DIIS
   @DF-RHF iter  10:  -650.17357995489817   -1.08763e-07   2.72572e-07 DIIS
   @DF-RHF iter  11:  -650.17357999249691   -3.75987e-08   1.21259e-07 DIIS
   @DF-RHF iter  12:  -650.17358000041418   -7.91727e-09   4.36202e-08 DIIS
   @DF-RHF iter  13:  -650.17358000110755   -6.93376e-10   1.64156e-08 DIIS
   @DF-RHF iter  14:  -650.17358000120919   -1.01636e-10   5.47520e-09 DIIS
   @DF-RHF iter  15:  -650.17358000122249   -1.33014e-11   2.28035e-09 DIIS
   @DF-RHF iter  16:  -650.17358000121033    1.21645e-11   9.75108e-10 DIIS
   @DF-RHF iter  17:  -650.17358000122738   -1.70530e-11   5.38114e-10 DIIS
   @DF-RHF iter  18:  -650.17358000121601    1.13687e-11   2.45258e-10 DIIS
   @DF-RHF iter  19:  -650.17358000123068   -1.46656e-11   1.12852e-10 DIIS
   @DF-RHF iter  20:  -650.17358000122886    1.81899e-12   4.35356e-11 DIIS

  ==> Post-Iterations <==

    Orbital Energies (a.u.)
    -----------------------

    Doubly Occupied:                                                      

       1A    -26.327682     2A    -20.609285     3A    -15.565296  
       4A    -11.349728     5A    -11.327950     6A    -11.274851  
       7A    -11.274196     8A    -11.265385     9A    -11.265224  
      10A    -11.254331    11A    -11.252855    12A    -11.245877  
      13A    -11.239644    14A    -11.238378    15A     -1.645873  
      16A     -1.423900    17A     -1.250519    18A     -1.181846  
      19A     -1.110280    20A     -1.041481    21A     -1.034539  
      22A     -1.019604    23A     -0.891997    24A     -0.876989  
      25A     -0.853824    26A     -0.824822    27A     -0.773148  
      28A     -0.747459    29A     -0.725062    30A     -0.712118  
      31A     -0.697225    32A     -0.664736    33A     -0.661069  
      34A     -0.642002    35A     -0.635737    36A     -0.614192  
      37A     -0.608633    38A     -0.599218    39A     -0.577936  
      40A     -0.543588    41A     -0.534044    42A     -0.533349  
      43A     -0.521955    44A     -0.494632    45A     -0.419425  
      46A     -0.387182    47A     -0.360129    48A     -0.349271  
      49A     -0.324353  

    Virtual:                                                              

      50A      0.021874    51A      0.029150    52A      0.034368  
      53A      0.036728    54A      0.044648    55A      0.047099  
      56A      0.052852    57A      0.054613    58A      0.076421  
      59A      0.082374    60A      0.082856    61A      0.085616  
      62A      0.092334    63A      0.095320    64A      0.097225  
      65A      0.101208    66A      0.104301    67A      0.108431  
      68A      0.110215    69A      0.112836    70A      0.113117  
      71A      0.118605    72A      0.120884    73A      0.125179  
      74A      0.129497    75A      0.131585    76A      0.133736  
      77A      0.135504    78A      0.140480    79A      0.143303  
      80A      0.147177    81A      0.151583    82A      0.154225  
      83A      0.155572    84A      0.155918    85A      0.166949  
      86A      0.171411    87A      0.173355    88A      0.182835  
      89A      0.185832    90A      0.193526    91A      0.200508  
      92A      0.208239    93A      0.213427    94A      0.216375  
      95A      0.225286    96A      0.228584    97A      0.235671  
      98A      0.236229    99A      0.239892   100A      0.241475  
     101A      0.244409   102A      0.249050   103A      0.253539  
     104A      0.257400   105A      0.260549   106A      0.264496  
     107A      0.266830   108A      0.268976   109A      0.272514  
     110A      0.278900   111A      0.281917   112A      0.285304  
     113A      0.291284   114A      0.293751   115A      0.300361  
     116A      0.301447   117A      0.309817   118A      0.313475  
     119A      0.317676   120A      0.318851   121A      0.322843  
     122A      0.327013   123A      0.328833   124A      0.331235  
     125A      0.335969   126A      0.344758   127A      0.347784  
     128A      0.350055   129A      0.353764   130A      0.360137  
     131A      0.368292   132A      0.376530   133A      0.382231  
     134A      0.385933   135A      0.390245   136A      0.395677  
     137A      0.401100   138A      0.404210   139A      0.406704  
     140A      0.413129   141A      0.415804   142A      0.419019  
     143A      0.424514   144A      0.427218   145A      0.429731  
     146A      0.436671   147A      0.442779   148A      0.445952  
     149A      0.447830   150A      0.450905   151A      0.458991  
     152A      0.463340   153A      0.467327   154A      0.469390  
     155A      0.474294   156A      0.476058   157A      0.479305  
     158A      0.485363   159A      0.485671   160A      0.488358  
     161A      0.493513   162A      0.496649   163A      0.498050  
     164A      0.502090   165A      0.509386   166A      0.511197  
     167A      0.511531   168A      0.513039   169A      0.522296  
     170A      0.522853   171A      0.524436   172A      0.530089  
     173A      0.535229   174A      0.540703   175A      0.544684  
     176A      0.547022   177A      0.550867   178A      0.554780  
     179A      0.558808   180A      0.563332   181A      0.573686  
     182A      0.576049   183A      0.580432   184A      0.584061  
     185A      0.590850   186A      0.594258   187A      0.604327  
     188A      0.612611   189A      0.621813   190A      0.626905  
     191A      0.627916   192A      0.636782   193A      0.641264  
     194A      0.643845   195A      0.648922   196A      0.656905  
     197A      0.657679   198A      0.671866   199A      0.679465  
     200A      0.682757   201A      0.695170   202A      0.696619  
     203A      0.702493   204A      0.705776   205A      0.709136  
     206A      0.716774   207A      0.719738   208A      0.725680  
     209A      0.733620   210A      0.736740   211A      0.738261  
     212A      0.739471   213A      0.746602   214A      0.756126  
     215A      0.764704   216A      0.767708   217A      0.773773  
     218A      0.779808   219A      0.788809   220A      0.791307  
     221A      0.799469   222A      0.805124   223A      0.811229  
     224A      0.820858   225A      0.822856   226A      0.829132  
     227A      0.832059   228A      0.837181   229A      0.852985  
     230A      0.854704   231A      0.855460   232A      0.862026  
     233A      0.864392   234A      0.870639   235A      0.873620  
     236A      0.879817   237A      0.886371   238A      0.888063  
     239A      0.893526   240A      0.898131   241A      0.903888  
     242A      0.907561   243A      0.911997   244A      0.922838  
     245A      0.928124   246A      0.931612   247A      0.933009  
     248A      0.933893   249A      0.942101   250A      0.945177  
     251A      0.949048   252A      0.956055   253A      0.959005  
     254A      0.962918   255A      0.966005   256A      0.971121  
     257A      0.973635   258A      0.986074   259A      0.989726  
     260A      0.992272   261A      0.997749   262A      1.003272  
     263A      1.008728   264A      1.010943   265A      1.019507  
     266A      1.022403   267A      1.024640   268A      1.028249  
     269A      1.031776   270A      1.036986   271A      1.044431  
     272A      1.046943   273A      1.051833   274A      1.052346  
     275A      1.060191   276A      1.064122   277A      1.071311  
     278A      1.073370   279A      1.080087   280A      1.083935  
     281A      1.087950   282A      1.093719   283A      1.098657  
     284A      1.102249   285A      1.108602   286A      1.112470  
     287A      1.119705   288A      1.124688   289A      1.128594  
     290A      1.130429   291A      1.134570   292A      1.145426  
     293A      1.147418   294A      1.154410   295A      1.156434  
     296A      1.159044   297A      1.165126   298A      1.167638  
     299A      1.173229   300A      1.180274   301A      1.186997  
     302A      1.189356   303A      1.198802   304A      1.202203  
     305A      1.204336   306A      1.214035   307A      1.219677  
     308A      1.223897   309A      1.227566   310A      1.231970  
     311A      1.240209   312A      1.245190   313A      1.250627  
     314A      1.259193   315A      1.261590   316A      1.269518  
     317A      1.272790   318A      1.280456   319A      1.285935  
     320A      1.297913   321A      1.299665   322A      1.306685  
     323A      1.310773   324A      1.316494   325A      1.325838  
     326A      1.329905   327A      1.343248   328A      1.349332  
     329A      1.352329   330A      1.357518   331A      1.370787  
     332A      1.373063   333A      1.378162   334A      1.383649  
     335A      1.390297   336A      1.402650   337A      1.405435  
     338A      1.412804   339A      1.417321   340A      1.429413  
     341A      1.435066   342A      1.443387   343A      1.448892  
     344A      1.464371   345A      1.469934   346A      1.476908  
     347A      1.485306   348A      1.491528   349A      1.498507  
     350A      1.505521   351A      1.513419   352A      1.514985  
     353A      1.525415   354A      1.536404   355A      1.553291  
     356A      1.556949   357A      1.564616   358A      1.567433  
     359A      1.569571   360A      1.585065   361A      1.587688  
     362A      1.599460   363A      1.603585   364A      1.605338  
     365A      1.622971   366A      1.634342   367A      1.640169  
     368A      1.644008   369A      1.646630   370A      1.651459  
     371A      1.660680   372A      1.667663   373A      1.676378  
     374A      1.686603   375A      1.689937   376A      1.698423  
     377A      1.703659   378A      1.714303   379A      1.726618  
     380A      1.727449   381A      1.729522   382A      1.739498  
     383A      1.743916   384A      1.749354   385A      1.761155  
     386A      1.770179   387A      1.781189   388A      1.787188  
     389A      1.791730   390A      1.798672   391A      1.809474  
     392A      1.810956   393A      1.821126   394A      1.823827  
     395A      1.833888   396A      1.849037   397A      1.861007  
     398A      1.872820   399A      1.880643   400A      1.881802  
     401A      1.889902   402A      1.894416   403A      1.901996  
     404A      1.902497   405A      1.911479   406A      1.923163  
     407A      1.929850   408A      1.940210   409A      1.941327  
     410A      1.949764   411A      1.950958   412A      1.960347  
     413A      1.974567   414A      1.981576   415A      1.992483  
     416A      2.000225   417A      2.008472   418A      2.016089  
     419A      2.019763   420A      2.028387   421A      2.035646  
     422A      2.048371   423A      2.052937   424A      2.058519  
     425A      2.067257   426A      2.080590   427A      2.086680  
     428A      2.090643   429A      2.098981   430A      2.107588  
     431A      2.115586   432A      2.119614   433A      2.121461  
     434A      2.130598   435A      2.138130   436A      2.145443  
     437A      2.156568   438A      2.169111   439A      2.177836  
     440A      2.189874   441A      2.196124   442A      2.197077  
     443A      2.212440   444A      2.219532   445A      2.225531  
     446A      2.234882   447A      2.248081   448A      2.255927  
     449A      2.265565   450A      2.270728   451A      2.280449  
     452A      2.286341   453A      2.299206   454A      2.303354  
     455A      2.316450   456A      2.325486   457A      2.337135  
     458A      2.339350   459A      2.355222   460A      2.363833  
     461A      2.376874   462A      2.382992   463A      2.412184  
     464A      2.414995   465A      2.421617   466A      2.430166  
     467A      2.442709   468A      2.452397   469A      2.464335  
     470A      2.467344   471A      2.477713   472A      2.496188  
     473A      2.514389   474A      2.532889   475A      2.549234  
     476A      2.560677   477A      2.567520   478A      2.575554  
     479A      2.579256   480A      2.586143   481A      2.590594  
     482A      2.611489   483A      2.613502   484A      2.629235  
     485A      2.639255   486A      2.669528   487A      2.678230  
     488A      2.690077   489A      2.714552   490A      2.723921  
     491A      2.740222   492A      2.753411   493A      2.763320  
     494A      2.791104   495A      2.811189   496A      2.825121  
     497A      2.829227   498A      2.838810   499A      2.843726  
     500A      2.870324   501A      2.878448   502A      2.895989  
     503A      2.918089   504A      2.944390   505A      2.968561  
     506A      2.978158   507A      3.022894   508A      3.037237  
     509A      3.058112   510A      3.060310   511A      3.066261  
     512A      3.081210   513A      3.114310   514A      3.122260  
     515A      3.133276   516A      3.156406   517A      3.158744  
     518A      3.172915   519A      3.182751   520A      3.192026  
     521A      3.201663   522A      3.206908   523A      3.234829  
     524A      3.256874   525A      3.264219   526A      3.265997  
     527A      3.283172   528A      3.290384   529A      3.295774  
     530A      3.313885   531A      3.330954   532A      3.342067  
     533A      3.354897   534A      3.366928   535A      3.377985  
     536A      3.394889   537A      3.400455   538A      3.413206  
     539A      3.415234   540A      3.426078   541A      3.437154  
     542A      3.444246   543A      3.449847   544A      3.454591  
     545A      3.457722   546A      3.479286   547A      3.489808  
     548A      3.493041   549A      3.494673   550A      3.506083  
     551A      3.523272   552A      3.540167   553A      3.543592  
     554A      3.550704   555A      3.557617   556A      3.561747  
     557A      3.566111   558A      3.577746   559A      3.581534  
     560A      3.591833   561A      3.597733   562A      3.611978  
     563A      3.618837   564A      3.627157   565A      3.631288  
     566A      3.637495   567A      3.653567   568A      3.654574  
     569A      3.666066   570A      3.678356   571A      3.687538  
     572A      3.704651   573A      3.711594   574A      3.717031  
     575A      3.732712   576A      3.738288   577A      3.746188  
     578A      3.756233   579A      3.761923   580A      3.780117  
     581A      3.782925   582A      3.791254   583A      3.804502  
     584A      3.807940   585A      3.820059   586A      3.825220  
     587A      3.826057   588A      3.847474   589A      3.850640  
     590A      3.865519   591A      3.874501   592A      3.884224  
     593A      3.890915   594A      3.897818   595A      3.906436  
     596A      3.916403   597A      3.919807   598A      3.928824  
     599A      3.935005   600A      3.944342   601A      3.948836  
     602A      3.954769   603A      3.960645   604A      3.967871  
     605A      3.981040   606A      3.983809   607A      4.004778  
     608A      4.019265   609A      4.024541   610A      4.032532  
     611A      4.039348   612A      4.044755   613A      4.060900  
     614A      4.070810   615A      4.080489   616A      4.082629  
     617A      4.089190   618A      4.108913   619A      4.113445  
     620A      4.116044   621A      4.123083   622A      4.138064  
     623A      4.144114   624A      4.154957   625A      4.156845  
     626A      4.181050   627A      4.186314   628A      4.197354  
     629A      4.203319   630A      4.213879   631A      4.217190  
     632A      4.225717   633A      4.235035   634A      4.238377  
     635A      4.248677   636A      4.265976   637A      4.286482  
     638A      4.289964   639A      4.304598   640A      4.305304  
     641A      4.313169   642A      4.320307   643A      4.325543  
     644A      4.342752   645A      4.350962   646A      4.355586  
     647A      4.362714   648A      4.372620   649A      4.377380  
     650A      4.391676   651A      4.409348   652A      4.418672  
     653A      4.421799   654A      4.426042   655A      4.439503  
     656A      4.446611   657A      4.458479   658A      4.463213  
     659A      4.468725   660A      4.480864   661A      4.485745  
     662A      4.509116   663A      4.520898   664A      4.527151  
     665A      4.532814   666A      4.546058   667A      4.571202  
     668A      4.581359   669A      4.588346   670A      4.598782  
     671A      4.604188   672A      4.611297   673A      4.620688  
     674A      4.640994   675A      4.656611   676A      4.678826  
     677A      4.684628   678A      4.702236   679A      4.719264  
     680A      4.723823   681A      4.738887   682A      4.743028  
     683A      4.759710   684A      4.771794   685A      4.793859  
     686A      4.803654   687A      4.817392   688A      4.847840  
     689A      4.861376   690A      4.864290   691A      4.891355  
     692A      4.900591   693A      4.914856   694A      4.938599  
     695A      4.956242   696A      4.966122   697A      4.969982  
     698A      4.974729   699A      4.984487   700A      5.008538  
     701A      5.017998   702A      5.025127   703A      5.036936  
     704A      5.037740   705A      5.042166   706A      5.057708  
     707A      5.069357   708A      5.097081   709A      5.100880  
     710A      5.115057   711A      5.125378   712A      5.133862  
     713A      5.144438   714A      5.165969   715A      5.173052  
     716A      5.179247   717A      5.184674   718A      5.189731  
     719A      5.190950   720A      5.206514   721A      5.231675  
     722A      5.270664   723A      5.274571   724A      5.294971  
     725A      5.308433   726A      5.312161   727A      5.334218  
     728A      5.354203   729A      5.366016   730A      5.380666  
     731A      5.398051   732A      5.430006   733A      5.438875  
     734A      5.455576   735A      5.459467   736A      5.467847  
     737A      5.471458   738A      5.495501   739A      5.529387  
     740A      5.554236   741A      5.562149   742A      5.575465  
     743A      5.597115   744A      5.614365   745A      5.641995  
     746A      5.692749   747A      5.709099   748A      5.743552  
     749A      5.753682   750A      5.764961   751A      5.797935  
     752A      5.802684   753A      5.835948   754A      5.847820  
     755A      5.877435   756A      5.881655   757A      5.909933  
     758A      5.958577   759A      6.016272   760A      6.044459  
     761A      6.081429   762A      6.111420   763A      6.131230  
     764A      6.180421   765A      6.231968   766A      6.257962  
     767A      6.285727   768A      6.306403   769A      6.318382  
     770A      6.365333   771A      6.391937   772A      6.462169  
     773A      6.494028   774A      6.514347   775A      6.529259  
     776A      6.571973   777A      6.686663   778A      6.697736  
     779A      6.709406   780A      6.717502   781A      6.743463  
     782A      6.840695   783A      6.872352   784A      6.886107  
     785A      6.927096   786A      6.958247   787A      6.993467  
     788A      7.046801   789A      7.054604   790A      7.078684  
     791A      7.187654   792A      7.252554   793A      7.391912  
     794A      7.415117   795A      7.419181   796A      7.470965  
     797A      7.678989   798A      7.684627   799A      7.745834  
     800A      7.995033   801A      8.375830   802A      8.630329  
     803A      9.002286   804A      9.046040   805A      9.268752  
     806A      9.286984   807A      9.403329   808A      9.518664  
     809A      9.537348   810A      9.593336   811A      9.640033  
     812A      9.713292   813A     10.031280   814A     10.075938  
     815A     15.531098   816A     16.148734   817A     16.567957  
     818A     16.596179   819A     16.685524   820A     16.806798  
     821A     18.461013   822A     18.700288   823A     19.207409  
     824A     19.690186   825A     20.152369   826A     20.198735  
     827A     20.417343   828A     21.806533  

    Final Occupation by Irrep:
              A 
    DOCC [    49 ]

  Energy converged.

  @DF-RHF Final Energy:  -650.17358000122886

   => Energetics <=

    Nuclear Repulsion Energy =            814.0495077672944717
    One-Electron Energy =               -2502.9005405576153862
    Two-Electron Energy =                1038.6774527890920581
    DFT Exchange-Correlation Energy =       0.0000000000000000
    Empirical Dispersion Energy =           0.0000000000000000
    PCM Polarization Energy =               0.0000000000000000
    EFP Energy =                            0.0000000000000000
    Total Energy =                       -650.1735800012288564



Properties will be evaluated at   0.000000,   0.000000,   0.000000 Bohr

Properties computed using the SCF density matrix

  Nuclear Dipole Moment: (a.u.)
     X:    -2.1314      Y:     1.3098      Z:    -4.2643

  Electronic Dipole Moment: (a.u.)
     X:     1.1390      Y:    -0.7706      Z:     4.8956

  Dipole Moment: (a.u.)
     X:    -0.9924      Y:     0.5392      Z:     0.6313     Total:     1.2939

  Dipole Moment: (Debye)
     X:    -2.5225      Y:     1.3706      Z:     1.6046     Total:     3.2888


*** tstop() called on gpu-2-9.local at Mon Nov 13 19:34:37 2017
Module time:
	user time   =    1127.57 seconds =      18.79 minutes
	system time =     102.77 seconds =       1.71 minutes
	total time  =        472 seconds =       7.87 minutes
Total time:
	user time   =    1127.57 seconds =      18.79 minutes
	system time =     102.77 seconds =       1.71 minutes
	total time  =        472 seconds =       7.87 minutes

  //>>>>>>>>>>>>>>>>>>>>>>>>>>>>>>>>>>>//
  //               DFMP2               //
  //<<<<<<<<<<<<<<<<<<<<<<<<<<<<<<<<<<<//

   => Loading Basis Set <=

    Name: (AUG-CC-PVTZ AUX)
    Role: RIFIT
    Keyword: DF_BASIS_MP2
    atoms 1-11  entry C          line   147 file /cbio/jclab/home/chayas/anaconda/envs/py35/share/psi4/basis/aug-cc-pvtz-ri.gbs 
    atoms 12    entry N          line   205 file /cbio/jclab/home/chayas/anaconda/envs/py35/share/psi4/basis/aug-cc-pvtz-ri.gbs 
    atoms 13    entry O          line   263 file /cbio/jclab/home/chayas/anaconda/envs/py35/share/psi4/basis/aug-cc-pvtz-ri.gbs 
    atoms 14    entry F          line   321 file /cbio/jclab/home/chayas/anaconda/envs/py35/share/psi4/basis/aug-cc-pvtz-ri.gbs 
    atoms 15-22 entry H          line    29 file /cbio/jclab/home/chayas/anaconda/envs/py35/share/psi4/basis/aug-cc-pvtz-ri.gbs 

	 --------------------------------------------------------
	                          DF-MP2                         
	      2nd-Order Density-Fitted Moller-Plesset Theory     
	              RMP2 Wavefunction,   8 Threads             
	                                                         
	        Rob Parrish, Justin Turney, Andy Simmonett,      
	           Ed Hohenstein, and C. David Sherrill          
	 --------------------------------------------------------

   => Auxiliary Basis Set <=

  Basis Set: (AUG-CC-PVTZ AUX)
    Blend: AUG-CC-PVTZ-RI
    Number of shells: 504
    Number of basis function: 1852
    Number of Cartesian functions: 2344
    Spherical Harmonics?: true
    Max angular momentum: 4

	 --------------------------------------------------------
	                 NBF =   828, NAUX =  1852
	 --------------------------------------------------------
	   CLASS    FOCC     OCC    AOCC    AVIR     VIR    FVIR
	   PAIRS       0      49      49     779     779       0
	 --------------------------------------------------------


         ------------------------------------------------------------
                                     CPHF                           
                                  Rob Parrish                       
         ------------------------------------------------------------

  ==> Geometry <==

    Molecular point group: c1
    Full point group: C1

    Geometry (in Angstrom), charge = 0, multiplicity = 1:

       Center              X                  Y                   Z               Mass       
    ------------   -----------------  -----------------  -----------------  -----------------
           C         -1.321754090856     0.755858361091    -0.800362975813    12.000000000000
           C         -2.399754090856     1.328858361091    -0.127362975813    12.000000000000
           C          2.121245909144     0.037858361091    -0.568362975813    12.000000000000
           C          0.618245909144    -1.478141638909    -1.675362975813    12.000000000000
           C         -1.406754090856     0.712858361091     1.987637024187    12.000000000000
           C          3.156245909144    -0.565141638909    -1.264362975813    12.000000000000
           C          1.720245909144    -2.013141638909    -2.322362975813    12.000000000000
           C         -0.285754090856     0.160858361091    -0.080362975813    12.000000000000
           C          0.831245909144    -0.433141638909    -0.783362975813    12.000000000000
           C         -2.442754090856     1.307858361091     1.266637024187    12.000000000000
           C         -0.328754090856     0.139858361091     1.313637024187    12.000000000000
           N          2.988245909144    -1.582141638909    -2.139362975813    14.003074004780
           O         -3.495754090856     1.867858361091     1.923637024187    15.994914619560
           F          0.659245909144    -0.428141638909     2.020637024187    18.998403224000
           H         -1.302754090856     0.779858361091    -1.887362975813     1.007825032070
           H         -3.204754090856     1.789858361091    -0.694362975813     1.007825032070
           H          2.327245909144     0.850858361091     0.121637024187     1.007825032070
           H         -0.374754090856    -1.871141638909    -1.869362975813     1.007825032070
           H         -1.434754090856     0.692858361091     3.073637024187     1.007825032070
           H          4.181245909144    -0.236141638909    -1.130362975813     1.007825032070
           H          1.607245909144    -2.828141638909    -3.028362975813     1.007825032070
           H         -3.381754090856     1.773858361091     2.882637024187     1.007825032070

  Nuclear repulsion =  814.049507767294472
  Reference energy  = -650.173580001228856

  ==> Basis Set <==

  Basis Set: AUG-CC-PVTZ
    Blend: AUG-CC-PVTZ
    Number of shells: 268
    Number of basis function: 828
    Number of Cartesian functions: 970
    Spherical Harmonics?: true
    Max angular momentum: 3

  ==> CGRSolver (by Rob Parrish) <==

   Number of roots    =         1
   Preconditioning    =    JACOBI
   Convergence cutoff =     1E-06
   Maximum iterations =       100

  ==> CPHFRHamiltonian (by Rob Parrish) <== 

  ==> DFJK: Density-Fitted J/K Matrices <==

    J tasked:                  Yes
    K tasked:                  Yes
    wK tasked:                  No
    OpenMP threads:              8
    Integrals threads:           8
    Memory (MB):              5722
    Algorithm:                Core
    Integral Cache:           NONE
    Schwarz Cutoff:          1E-12
    Fitting Condition:       1E-12

   => Auxiliary Basis Set <=

  Basis Set: (AUG-CC-PVTZ AUX)
    Blend: AUG-CC-PVTZ-JKFIT
    Number of shells: 532
    Number of basis function: 1824
    Number of Cartesian functions: 2274
    Spherical Harmonics?: true
    Max angular momentum: 4

  ==> CPHF Iterations <==

  => Iterations <=

             Iter  Converged  Remaining    Residual
  CGR           1          0          1   1.026E-01
  CGR           2          0          1   3.432E-02
  CGR           3          0          1   2.257E-02
  CGR           4          0          1   9.823E-03
  CGR           5          0          1   4.081E-03
  CGR           6          0          1   1.528E-03
  CGR           7          0          1   4.496E-04
  CGR           8          0          1   1.493E-04
  CGR           9          0          1   4.737E-05
  CGR          10          0          1   1.330E-05
  CGR          11          0          1   5.445E-06
  CGR          12          0          1   1.768E-06
  CGR          13          1          0   8.846E-07

    CGRSolver converged.

  ==> DFCorrGrad: Density-Fitted Correlated Gradients <==

    OpenMP threads:              8
    Integrals threads:           8
    Memory (MB):              5722
    Schwarz Cutoff:          0E+00
    Fitting Condition:       1E-12

   => Auxiliary Basis Set <=

  Basis Set: (AUG-CC-PVTZ AUX)
    Blend: AUG-CC-PVTZ-JKFIT
    Number of shells: 532
    Number of basis function: 1824
    Number of Cartesian functions: 2274
    Spherical Harmonics?: true
    Max angular momentum: 4

	-----------------------------------------------------------
	 ==================> DF-MP2 Energies <==================== 
	-----------------------------------------------------------
	 Reference Energy          =    -650.1735800012288564 [Eh]
	 Singles Energy            =      -0.0000000000000002 [Eh]
	 Same-Spin Energy          =      -0.6775258524050338 [Eh]
	 Opposite-Spin Energy      =      -2.0194494021908374 [Eh]
	 Correlation Energy        =      -2.6969752545958716 [Eh]
	 Total Energy              =    -652.8705552558246836 [Eh]
	-----------------------------------------------------------
	 ================> DF-SCS-MP2 Energies <================== 
	-----------------------------------------------------------
	 SCS Same-Spin Scale       =       0.3333333333333333 [-]
	 SCS Opposite-Spin Scale   =       1.2000000000000000 [-]
	 SCS Same-Spin Energy      =      -0.2258419508016779 [Eh]
	 SCS Opposite-Spin Energy  =      -2.4233392826290046 [Eh]
	 SCS Correlation Energy    =      -2.6491812334306828 [Eh]
	 SCS Total Energy          =    -652.8227612346595379 [Eh]
	-----------------------------------------------------------


  -Total Gradient:
     Atom            X                  Y                   Z
    ------   -----------------  -----------------  -----------------
       1        0.010479450355    -0.002632106831    -0.014353970352
       2        0.003920355420    -0.001894074326     0.003324715816
       3       -0.004183899005     0.005709812682     0.003547998375
       4       -0.006849367228    -0.001092208713     0.002844021548
       5       -0.008043716873     0.004403168691     0.001152212022
       6       -0.003556121812     0.009666305501     0.008846725506
       7       -0.013946050802    -0.001171668355     0.002441390470
       8       -0.001198300420     0.000673108122    -0.002625988945
       9       -0.001495312764     0.001148309822    -0.001060718544
      10       -0.008680027138     0.005034203783    -0.004555979982
      11        0.021071366930    -0.014826079032     0.005529632580
      12        0.013367626203    -0.006829163246    -0.008477062785
      13        0.002795075810    -0.001643767948     0.000382306225
      14        0.001605720147    -0.000310876903     0.002175613422
      15       -0.002789940796     0.001287207228    -0.006278647055
      16       -0.003337359386     0.001634322749    -0.005367802436
      17        0.003131845883     0.003789768010     0.002964069395
      18       -0.003410427243    -0.002601188847    -0.002706974891
      19       -0.000938420641     0.000629481908     0.004375781100
      20        0.002813980434     0.000167716215     0.000101148405
      21        0.000415883122    -0.001516438182    -0.001706559744
      22       -0.001172360199     0.000374167684     0.009448089866


*** tstop() called on gpu-2-9.local at Mon Nov 13 20:12:14 2017
Module time:
	user time   =    5625.30 seconds =      93.76 minutes
	system time =     217.57 seconds =       3.63 minutes
	total time  =       2729 seconds =      45.48 minutes
Total time:
	user time   =    5625.30 seconds =      93.76 minutes
	system time =     217.57 seconds =       3.63 minutes
	total time  =       2729 seconds =      45.48 minutes

			-----------------------------------------
			 OPTKING 2.0: for geometry optimizations 
			  - R.A. King,  Bethel University        
			-----------------------------------------
	At level 1: Red. Int., RFO, no backsteps, dynamic trust

	Internal coordinates to be generated automatically.
	Detected frag 1 with atoms:  1 2 3 4 5 6 7 8 9 10 11 12 13 14 15 16 17 18 19 20
	 21 22
	---Fragment 1 Bond Connectivity---
	 1 : 2 8 15
	 2 : 1 10 16
	 3 : 6 9 17
	 4 : 7 9 18
	 5 : 10 11 19
	 6 : 3 12 20
	 7 : 4 12 21
	 8 : 1 9 11
	 9 : 3 4 8
	 10 : 2 5 13
	 11 : 5 8 14
	 12 : 6 7
	 13 : 10 22
	 14 : 11
	 15 : 1
	 16 : 2
	 17 : 3
	 18 : 4
	 19 : 5
	 20 : 6
	 21 : 7
	 22 : 13

	Assuming in current code that numbering for constraints corresponds to unified fragment.
	Fixed dihedral atom list: 
	     1     8     9     3
	---Fragment 1 Geometry and Gradient---
	 C          -2.4977532467        1.4283652977       -1.5124668312
	 C          -4.5348780180        2.5111783719       -0.2406811438
	 C           4.0085738288        0.0715419343       -1.0740503684
	 C           1.1683154511       -2.7932828832       -3.1659771975
	 C          -2.6583799680        1.3471070740        3.7560896273
	 C           5.9644403763       -1.0679629238       -2.3892997568
	 C           3.2507936495       -3.8042863642       -4.3886300054
	 C          -0.5399969731        0.3039782486       -0.1518640155
	 C           1.5708271174       -0.8185190743       -1.4803414869
	 C          -4.6161362417        2.4714941231        2.3935970855
	 C          -0.6212551968        0.2642939999        2.4824142137
	 N           5.6469663860       -2.9898144010       -4.0428101231
	 O          -6.6060178596        3.5297407575        3.6351471548
	 F           1.2457942225       -0.8090704436        3.8184505897
	 H          -2.4618484502        1.4737187249       -3.5665991376
	 H          -6.0561075550        3.3823421191       -1.3121558611
	 H           4.3978574122        1.6078892803        0.2298606633
	 H          -0.7081825989       -3.5359452534       -3.5325840672
	 H          -2.7112922998        1.3093125513        5.8083322076
	 H           7.9014096625       -0.4462430261       -2.1360764550
	 H           3.0372545965       -5.3444131625       -5.7227766553
	 H          -6.3905890805        3.3521065010        5.4473945162
	             0.0104794504       -0.0026321068       -0.0143539704
	             0.0039203554       -0.0018940743        0.0033247158
	            -0.0041838990        0.0057098127        0.0035479984
	            -0.0068493672       -0.0010922087        0.0028440215
	            -0.0080437169        0.0044031687        0.0011522120
	            -0.0035561218        0.0096663055        0.0088467255
	            -0.0139460508       -0.0011716684        0.0024413905
	            -0.0011983004        0.0006731081       -0.0026259889
	            -0.0014953128        0.0011483098       -0.0010607185
	            -0.0086800271        0.0050342038       -0.0045559800
	             0.0210713669       -0.0148260790        0.0055296326
	             0.0133676262       -0.0068291632       -0.0084770628
	             0.0027950758       -0.0016437679        0.0003823062
	             0.0016057201       -0.0003108769        0.0021756134
	            -0.0027899408        0.0012872072       -0.0062786471
	            -0.0033373594        0.0016343227       -0.0053678024
	             0.0031318459        0.0037897680        0.0029640694
	            -0.0034104272       -0.0026011888       -0.0027069749
	            -0.0009384206        0.0006294819        0.0043757811
	             0.0028139804        0.0001677162        0.0001011484
	             0.0004158831       -0.0015164382       -0.0017065597
	            -0.0011723602        0.0003741677        0.0094480899

	Previous optimization step data not found.  Starting new optimization.

	---Fragment 1 Intrafragment Coordinates---
	 - Coordinate -           - BOHR/RAD -       - ANG/DEG -
	 R(1,2)           =         2.634350	       1.394038
	 R(1,8)           =         2.635962	       1.394891
	 R(1,15)          =         2.054947	       1.087431
	 R(2,10)          =         2.635830	       1.394821
	 R(2,16)          =         2.054537	       1.087214
	 R(3,6)           =         2.617970	       1.385370
	 R(3,9)           =         2.626764	       1.390024
	 R(3,17)          =         2.052337	       1.086050
	 R(4,7)           =         2.617962	       1.385366
	 R(4,9)           =         2.627370	       1.390345
	 R(4,18)          =         2.051144	       1.085419
	 R(5,10)          =         2.636938	       1.395407
	 R(5,11)          =         2.635263	       1.394521
	 R(5,19)          =         2.053272	       1.086545
	 R(6,12)          =         2.555073	       1.352087
	 R(6,20)          =         2.050002	       1.084814
	 R(7,12)          =         2.554330	       1.351693
	 R(7,21)          =         2.048789	       1.084172
	 R(8,9)           =         2.735038	       1.447320
	 R(8,11)          =         2.635830	       1.394821
	 R(10,13)         =         2.573123	       1.361638
	 R(11,14)         =         2.534359	       1.341125
	 R(13,22)         =         1.833631	       0.970316
	 B(1,2,10)        =         2.094553	     120.009056
	 B(1,2,16)        =         2.088723	     119.675016
	 B(1,8,9)         =         2.091569	     119.838095
	 B(1,8,11)        =         2.093692	     119.959722
	 B(2,1,8)         =         2.094940	     120.031219
	 B(2,1,15)        =         2.079469	     119.144799
	 B(2,10,5)        =         2.094306	     119.994870
	 B(2,10,13)       =         2.094247	     119.991510
	 B(3,6,12)        =         2.164804	     124.034111
	 B(3,6,20)        =         2.108118	     120.786268
	 B(3,9,4)         =         2.089883	     119.741500
	 B(3,9,8)         =         2.096754	     120.135143
	 B(4,7,12)        =         2.164989	     124.044723
	 B(4,7,21)        =         2.107742	     120.764711
	 B(4,9,8)         =         2.096547	     120.123321
	 B(5,10,13)       =         2.094633	     120.013619
	 B(5,11,8)        =         2.095181	     120.045019
	 B(5,11,14)       =         2.081414	     119.256220
	 B(6,3,9)         =         2.057982	     117.913665
	 B(6,3,17)        =         2.098220	     120.219150
	 B(6,12,7)        =         2.030866	     116.360041
	 B(7,4,9)         =         2.057847	     117.905948
	 B(7,4,18)        =         2.099519	     120.293549
	 B(8,1,15)        =         2.108776	     120.823969
	 B(8,11,14)       =         2.106591	     120.698759
	 B(9,3,17)        =         2.126982	     121.867090
	 B(9,4,18)        =         2.125819	     121.800437
	 B(9,8,11)        =         2.097924	     120.202184
	 B(10,2,16)       =         2.099909	     120.315896
	 B(10,5,11)       =         2.093699	     119.960108
	 B(10,5,19)       =         2.100355	     120.341451
	 B(10,13,22)      =         1.924294	     110.253909
	 B(11,5,19)       =         2.089132	     119.698439
	 B(12,6,20)       =         2.010262	     115.179529
	 B(12,7,21)       =         2.010454	     115.190534
	 D(1,2,10,5)      =        -0.000325	      -0.018609
	 D(1,2,10,13)     =         3.141388	     179.988267
	 D(1,8,9,3)       =         2.093902	     119.971727
	 D(1,8,9,4)       =        -1.048898	     -60.097413
	 D(1,8,11,5)      =         0.000325	       0.018608
	 D(1,8,11,14)     =        -3.141528	    -179.996269
	 D(2,1,8,9)       =         3.141277	     179.981897
	 D(2,1,8,11)      =        -0.000348	      -0.019945
	 D(2,10,5,11)     =         0.000301	       0.017261
	 D(2,10,5,19)     =        -3.141029	    -179.967685
	 D(2,10,13,22)    =         3.141285	     179.982383
	 D(3,6,12,7)      =        -0.000561	      -0.032132
	 D(3,9,4,7)       =        -0.000376	      -0.021539
	 D(3,9,4,18)      =        -3.140347	    -179.928636
	 D(3,9,8,11)      =        -1.047659	     -60.026427
	 D(4,7,12,6)      =         0.000073	       0.004180
	 D(4,9,3,6)       =        -0.000061	      -0.003505
	 D(4,9,3,17)      =        -3.139703	    -179.891747
	 D(4,9,8,11)      =         2.092727	     119.904432
	 D(5,10,2,16)     =         3.140149	     179.917291
	 D(5,10,13,22)    =        -0.000187	      -0.010740
	 D(5,11,8,9)      =        -3.141300	    -179.983240
	 D(6,3,9,8)       =         3.140329	     179.927619
	 D(6,12,7,21)     =         3.140531	     179.939196
	 D(7,4,9,8)       =        -3.140767	    -179.952671
	 D(7,12,6,20)     =         3.139119	     179.858282
	 D(8,1,2,10)      =         0.000348	       0.019955
	 D(8,1,2,16)      =        -3.140133	    -179.916358
	 D(8,9,3,17)      =         0.000687	       0.039377
	 D(8,9,4,18)      =         0.002448	       0.140231
	 D(8,11,5,10)     =        -0.000301	      -0.017270
	 D(8,11,5,19)     =         3.141030	     179.967774
	 D(9,3,6,12)      =         0.000560	       0.032068
	 D(9,3,6,20)      =        -3.139018	    -179.852492
	 D(9,4,7,12)      =         0.000383	       0.021968
	 D(9,4,7,21)      =        -3.140015	    -179.909598
	 D(9,8,1,15)      =         0.000403	       0.023110
	 D(9,8,11,14)     =         0.000033	       0.001883
	 D(10,2,1,15)     =         3.141234	     179.979432
	 D(10,5,11,14)    =         3.141547	     179.997392
	 D(11,5,10,13)    =        -3.141411	    -179.989616
	 D(11,8,1,15)     =        -3.141221	    -179.978731
	 D(12,6,3,17)     =         3.140235	     179.922228
	 D(12,7,4,18)     =         3.140380	     179.930525
	 D(13,10,2,16)    =        -0.001324	      -0.075833
	 D(13,10,5,19)    =         0.000444	       0.025437
	 D(14,11,5,19)    =        -0.000307	      -0.017564
	 D(15,1,2,16)     =         0.000753	       0.043120
	 D(17,3,6,20)     =         0.000657	       0.037668
	 D(18,4,7,21)     =        -0.000018	      -0.001041
	 R(3,14)          =         5.687266	       3.009572

	Current energy   :      -652.8705552558

	Using model Hessian from Lindh (1995).
	 - Coordinate -           - BOHR/RAD -       - ANG/DEG -
	 R(1,2)           =         2.634350	       1.394038
	 R(1,8)           =         2.635962	       1.394891
	 R(1,15)          =         2.054947	       1.087431
	 R(2,10)          =         2.635830	       1.394821
	 R(2,16)          =         2.054537	       1.087214
	 R(3,6)           =         2.617970	       1.385370
	 R(3,9)           =         2.626764	       1.390024
	 R(3,17)          =         2.052337	       1.086050
	 R(4,7)           =         2.617962	       1.385366
	 R(4,9)           =         2.627370	       1.390345
	 R(4,18)          =         2.051144	       1.085419
	 R(5,10)          =         2.636938	       1.395407
	 R(5,11)          =         2.635263	       1.394521
	 R(5,19)          =         2.053272	       1.086545
	 R(6,12)          =         2.555073	       1.352087
	 R(6,20)          =         2.050002	       1.084814
	 R(7,12)          =         2.554330	       1.351693
	 R(7,21)          =         2.048789	       1.084172
	 R(8,9)           =         2.735038	       1.447320
	 R(8,11)          =         2.635830	       1.394821
	 R(10,13)         =         2.573123	       1.361638
	 R(10,22)         =         3.640033	       1.926222
	 R(11,14)         =         2.534359	       1.341125
	 R(12,20)         =         3.897166	       2.062291
	 R(12,21)         =         3.895769	       2.061552
	 R(13,22)         =         1.833631	       0.970316
	 B(1,2,10)        =         2.094553	     120.009056
	 B(1,2,16)        =         2.088723	     119.675016
	 B(1,8,9)         =         2.091569	     119.838095
	 B(1,8,11)        =         2.093692	     119.959722
	 B(2,1,8)         =         2.094940	     120.031219
	 B(2,1,15)        =         2.079469	     119.144799
	 B(2,10,5)        =         2.094306	     119.994870
	 B(2,10,13)       =         2.094247	     119.991510
	 B(2,10,22)       =         2.586478	     148.194248
	 B(3,6,12)        =         2.164804	     124.034111
	 B(3,6,20)        =         2.108118	     120.786268
	 B(3,9,4)         =         2.089883	     119.741500
	 B(3,9,8)         =         2.096754	     120.135143
	 B(4,7,12)        =         2.164989	     124.044723
	 B(4,7,21)        =         2.107742	     120.764711
	 B(4,9,8)         =         2.096547	     120.123321
	 B(5,10,13)       =         2.094633	     120.013619
	 B(5,10,22)       =         1.602402	      91.810879
	 B(5,11,8)        =         2.095181	     120.045019
	 B(5,11,14)       =         2.081414	     119.256220
	 B(6,3,9)         =         2.057982	     117.913665
	 B(6,3,17)        =         2.098220	     120.219150
	 B(6,12,7)        =         2.030866	     116.360041
	 B(6,12,20)       =         0.496147	      28.427119
	 B(6,12,21)       =         2.526837	     144.777100
	 B(6,20,12)       =         0.635184	      36.393352
	 B(7,4,9)         =         2.057847	     117.905948
	 B(7,4,18)        =         2.099519	     120.293549
	 B(7,12,20)       =         2.527010	     144.787030
	 B(7,12,21)       =         0.495972	      28.417084
	 B(7,21,12)       =         0.635167	      36.392383
	 B(8,1,15)        =         2.108776	     120.823969
	 B(8,11,14)       =         2.106591	     120.698759
	 B(9,3,17)        =         2.126982	     121.867090
	 B(9,4,18)        =         2.125819	     121.800437
	 B(9,8,11)        =         2.097924	     120.202184
	 B(10,2,16)       =         2.099909	     120.315896
	 B(10,5,11)       =         2.093699	     119.960108
	 B(10,5,19)       =         2.100355	     120.341451
	 B(10,13,22)      =         1.924294	     110.253909
	 B(10,22,13)      =         0.725068	      41.543351
	 B(11,5,19)       =         2.089132	     119.698439
	 B(12,6,20)       =         2.010262	     115.179529
	 B(12,7,21)       =         2.010454	     115.190534
	 B(13,10,22)      =         0.492231	      28.202740
	 B(20,12,21)      =         3.022981	     173.204050
	 D(1,2,10,5)      =        -0.000325	      -0.018609
	 D(1,2,10,13)     =         3.141388	     179.988267
	 D(1,2,10,22)     =        -3.141522	    -179.995936
	 D(1,8,9,3)       =         2.093902	     119.971727
	 D(1,8,9,4)       =        -1.048898	     -60.097413
	 D(1,8,11,5)      =         0.000325	       0.018608
	 D(1,8,11,14)     =        -3.141528	    -179.996269
	 D(2,1,8,9)       =         3.141277	     179.981897
	 D(2,1,8,11)      =        -0.000348	      -0.019945
	 D(2,10,5,11)     =         0.000301	       0.017261
	 D(2,10,5,19)     =        -3.141029	    -179.967685
	 D(2,10,13,22)    =         3.141285	     179.982383
	 D(2,10,22,13)    =        -0.000505	      -0.028950
	 D(3,6,12,7)      =        -0.000561	      -0.032132
	 D(3,6,12,20)     =        -3.139680	    -179.890414
	 D(3,6,12,21)     =         0.000315	       0.018037
	 D(3,6,20,12)     =         3.139748	     179.894289
	 D(3,9,4,7)       =        -0.000376	      -0.021539
	 D(3,9,4,18)      =        -3.140347	    -179.928636
	 D(3,9,8,11)      =        -1.047659	     -60.026427
	 D(4,7,12,6)      =         0.000073	       0.004180
	 D(4,7,12,20)     =         0.002115	       0.121178
	 D(4,7,12,21)     =        -3.140458	    -179.935016
	 D(4,7,21,12)     =         3.140499	     179.937336
	 D(4,9,3,6)       =        -0.000061	      -0.003505
	 D(4,9,3,17)      =        -3.139703	    -179.891747
	 D(4,9,8,11)      =         2.092727	     119.904432
	 D(5,10,2,16)     =         3.140149	     179.917291
	 D(5,10,13,22)    =        -0.000187	      -0.010740
	 D(5,10,22,13)    =         3.141430	     179.990696
	 D(5,11,8,9)      =        -3.141300	    -179.983240
	 D(6,3,9,8)       =         3.140329	     179.927619
	 D(6,12,7,21)     =         3.140531	     179.939196
	 D(6,12,21,7)     =        -0.001649	      -0.094461
	 D(6,20,12,7)     =        -0.003844	      -0.220220
	 D(6,20,12,21)    =        -0.007788	      -0.446211
	 D(7,4,9,8)       =        -3.140767	    -179.952671
	 D(7,12,6,20)     =         3.139119	     179.858282
	 D(7,21,12,20)    =         0.004779	       0.273827
	 D(8,1,2,10)      =         0.000348	       0.019955
	 D(8,1,2,16)      =        -3.140133	    -179.916358
	 D(8,9,3,17)      =         0.000687	       0.039377
	 D(8,9,4,18)      =         0.002448	       0.140231
	 D(8,11,5,10)     =        -0.000301	      -0.017270
	 D(8,11,5,19)     =         3.141030	     179.967774
	 D(9,3,6,12)      =         0.000560	       0.032068
	 D(9,3,6,20)      =        -3.139018	    -179.852492
	 D(9,4,7,12)      =         0.000383	       0.021968
	 D(9,4,7,21)      =        -3.140015	    -179.909598
	 D(9,8,1,15)      =         0.000403	       0.023110
	 D(9,8,11,14)     =         0.000033	       0.001883
	 D(10,2,1,15)     =         3.141234	     179.979432
	 D(10,5,11,14)    =         3.141547	     179.997392
	 D(11,5,10,13)    =        -3.141411	    -179.989616
	 D(11,5,10,22)    =        -3.141500	    -179.994694
	 D(11,8,1,15)     =        -3.141221	    -179.978731
	 D(12,6,3,17)     =         3.140235	     179.922228
	 D(12,7,4,18)     =         3.140380	     179.930525
	 D(13,10,2,16)    =        -0.001324	      -0.075833
	 D(13,10,5,19)    =         0.000444	       0.025437
	 D(14,11,5,19)    =        -0.000307	      -0.017564
	 D(15,1,2,16)     =         0.000753	       0.043120
	 D(16,2,10,22)    =        -0.001048	      -0.060036
	 D(17,3,6,20)     =         0.000657	       0.037668
	 D(18,4,7,21)     =        -0.000018	      -0.001041
	 D(19,5,10,22)    =         0.000355	       0.020359
	 D(20,6,12,21)    =         3.139995	     179.908452
	 D(20,12,7,21)    =        -3.140612	    -179.943805

	Adding user-defined constraint: Fragment 1; Coordinate 61:
		Value =     2.093902; Fixed value    =     2.094395
		Force =     0.000247; Force constant =     0.500000
	Removing off-diagonal coupling between coordinate 61 and others.
	Taking RFO optimization step.
	Going to follow RFO solution 1.
	Using RFO vector 1.

	Determining step-restricting scale parameter for RS-RFO.
	Maximum step size allowed    0.10000

	 Iter      |step|        alpha        rfo_root  
	------------------------------------------------
	    0     0.20421       1.00000           1
	    1     0.15196       2.98363           1
	    2     0.12453       6.85732           1
	    3     0.10899      13.13957           1
	    4     0.10160      18.52942           1
	    5     0.10006      19.92775           1
	    6     0.10000      19.98338           1
	------------------------------------------------
	Norm of target step-size    0.10000
	Projected energy change by RFO approximation:        -0.0043938330

	Back-transformation to cartesian coordinates...
	Could not converge backtransformation.
	Using first guess instead.

	--- Internal Coordinate Step in ANG or DEG, aJ/ANG or AJ/DEG ---
	 ---------------------------------------------------------------------------
	   Coordinate                Previous        Force       Change         New 
	   ----------                --------       ------       ------       ------
	    1 R(1,2)          =      1.394038    -0.056487    -0.004904     1.389134
	    2 R(1,8)          =      1.394891    -0.027926    -0.001965     1.392926
	    3 R(1,15)         =      1.087431    -0.051540    -0.005740     1.081691
	    4 R(2,10)         =      1.394821    -0.081506    -0.007186     1.387635
	    5 R(2,16)         =      1.087214    -0.049131    -0.005405     1.081809
	    6 R(3,6)          =      1.385370     0.003296     0.000259     1.385629
	    7 R(3,9)          =      1.390024    -0.016819    -0.000802     1.389222
	    8 R(3,17)         =      1.086050    -0.043782    -0.004851     1.081199
	    9 R(4,7)          =      1.385366     0.007218     0.000618     1.385984
	   10 R(4,9)          =      1.390345    -0.017983    -0.000923     1.389421
	   11 R(4,18)         =      1.085419    -0.037451    -0.004154     1.081265
	   12 R(5,10)         =      1.395407    -0.046241    -0.004123     1.391284
	   13 R(5,11)         =      1.394521    -0.105705    -0.009068     1.385453
	   14 R(5,19)         =      1.086545    -0.036136    -0.003929     1.082616
	   15 R(6,12)         =      1.352087    -0.117503    -0.009504     1.342582
	   16 R(6,20)         =      1.084814    -0.022427    -0.002403     1.082411
	   17 R(7,12)         =      1.351693    -0.119649    -0.009660     1.342033
	   18 R(7,21)         =      1.084172    -0.018190    -0.001933     1.082239
	   19 R(8,9)          =      1.447320     0.131458     0.013305     1.460625
	   20 R(8,11)         =      1.394821    -0.079005    -0.006242     1.388579
	   21 R(10,13)        =      1.361638    -0.024438    -0.001467     1.360171
	   22 R(11,14)        =      1.341125    -0.021938    -0.001599     1.339526
	   23 R(13,22)        =      0.970316    -0.075498    -0.006042     0.964274
	   24 B(1,2,10)       =    120.009056    -0.000177    -0.333414   119.675642
	   25 B(1,2,16)       =    119.675016     0.000294     0.652159   120.327175
	   26 B(1,8,9)        =    119.838095     0.000663     1.212446   121.050541
	   27 B(1,8,11)       =    119.959722    -0.000922    -1.783841   118.175881
	   28 B(2,1,8)        =    120.031219     0.000527     1.125032   121.156251
	   29 B(2,1,15)       =    119.144799    -0.000022     0.000574   119.145373
	   30 B(2,10,5)       =    119.994870    -0.000011    -0.032158   119.962712
	   31 B(2,10,13)      =    119.991510    -0.000752    -1.310817   118.680693
	   32 B(3,6,12)       =    124.034111    -0.000013    -0.089402   123.944710
	   33 B(3,6,20)       =    120.786268    -0.000047    -0.082686   120.703581
	   34 B(3,9,4)        =    119.741500    -0.000832    -1.455275   118.286225
	   35 B(3,9,8)        =    120.135143     0.000414     0.771438   120.906581
	   36 B(4,7,12)       =    124.044723    -0.000031    -0.121516   123.923208
	   37 B(4,7,21)       =    120.764711    -0.000038    -0.064160   120.700551
	   38 B(4,9,8)        =    120.123321     0.000418     0.683252   120.806573
	   39 B(5,10,13)      =    120.013619     0.000763     1.342949   121.356568
	   40 B(5,11,8)       =    120.045019     0.000787     1.438452   121.483471
	   41 B(5,11,14)      =    119.256220    -0.000184    -0.430978   118.825242
	   42 B(6,3,9)        =    117.913665     0.000359     0.796274   118.709939
	   43 B(6,3,17)       =    120.219150    -0.000010    -0.007550   120.211600
	   44 B(6,12,7)       =    116.360041     0.000150     0.053364   116.413405
	   45 B(7,4,9)        =    117.905948     0.000367     0.816517   118.722466
	   46 B(7,4,18)       =    120.293549    -0.000016    -0.024840   120.268709
	   47 B(8,1,15)       =    120.823969    -0.000506    -1.125661   119.698308
	   48 B(8,11,14)      =    120.698759    -0.000603    -1.007808   119.690952
	   49 B(9,3,17)       =    121.867090    -0.000349    -0.788629   121.078461
	   50 B(9,4,18)       =    121.800437    -0.000350    -0.791612   121.008825
	   51 B(9,8,11)       =    120.202184     0.000258     0.570808   120.772991
	   52 B(10,2,16)      =    120.315896    -0.000118    -0.318718   119.997179
	   53 B(10,5,11)      =    119.960108    -0.000205    -0.414418   119.545690
	   54 B(10,5,19)      =    120.341451     0.000186     0.405330   120.746782
	   55 B(10,13,22)     =    110.253909    -0.000364    -0.550601   109.703308
	   56 B(11,5,19)      =    119.698439     0.000019     0.009089   119.707528
	   57 B(12,6,20)      =    115.179529     0.000060     0.172174   115.351703
	   58 B(12,7,21)      =    115.190534     0.000068     0.185657   115.376191
	   59 D(1,2,10,5)     =     -0.018609     0.000002     0.065475     0.046866
	   60 D(1,2,10,13)    =    179.988267     0.000001     0.000281   179.988548
	   61 D(1,8,9,3)      =    119.971727     0.000021     0.221981   120.193709
	   62 D(1,8,9,4)      =    -60.097413     0.000026     0.582735   -59.514679
	   63 D(1,8,11,5)     =      0.018608     0.000005     0.211767     0.230375
	   64 D(1,8,11,14)    =   -179.996269     0.000000     0.013445  -179.982824
	   65 D(2,1,8,9)      =    179.981897     0.000002     0.155659   180.137556
	   66 D(2,1,8,11)     =     -0.019945    -0.000003    -0.119189    -0.139134
	   67 D(2,10,5,11)    =      0.017261     0.000001     0.024173     0.041434
	   68 D(2,10,5,19)    =   -179.967685     0.000001     0.017629  -179.950056
	   69 D(2,10,13,22)   =    179.982383     0.000000     0.030475   180.012858
	   70 D(3,6,12,7)     =     -0.032132     0.000000     0.020291    -0.011842
	   71 D(3,9,4,7)      =     -0.021539    -0.000003     0.003214    -0.018325
	   72 D(3,9,4,18)     =   -179.928636    -0.000005    -0.094425  -180.023062
	   73 D(3,9,8,11)     =    -60.026427     0.000026     0.504007   -59.522420
	   74 D(4,7,12,6)     =      0.004180    -0.000001    -0.057343    -0.053164
	   75 D(4,9,3,6)      =     -0.003505     0.000002    -0.037001    -0.040506
	   76 D(4,9,3,17)     =   -179.891747    -0.000002    -0.143668  -180.035414
	   77 D(4,9,8,11)     =    119.904432     0.000031     0.864760   120.769192
	   78 D(5,10,2,16)    =    179.917291     0.000004     0.151487   180.068778
	   79 D(5,10,13,22)   =     -0.010740    -0.000001    -0.035567    -0.046307
	   80 D(5,11,8,9)     =   -179.983240     0.000001    -0.062273  -180.045513
	   81 D(6,3,9,8)      =    179.927619     0.000007     0.316304   180.243923
	   82 D(6,12,7,21)    =    179.939196     0.000004     0.089394   180.028590
	   83 D(7,4,9,8)      =   -179.952671    -0.000008    -0.349787  -180.302458
	   84 D(7,12,6,20)    =    179.858282     0.000004     0.157720   180.016002
	   85 D(8,1,2,10)     =      0.019955    -0.000001    -0.016634     0.003321
	   86 D(8,1,2,16)     =   -179.916358    -0.000003    -0.102307  -180.018666
	   87 D(8,9,3,17)     =      0.039377     0.000003     0.209638     0.249015
	   88 D(8,9,4,18)     =      0.140231    -0.000011    -0.447426    -0.307195
	   89 D(8,11,5,10)    =     -0.017270    -0.000005    -0.166657    -0.183927
	   90 D(8,11,5,19)    =    179.967774    -0.000005    -0.160121   179.807652
	   91 D(9,3,6,12)     =      0.032068    -0.000001     0.026328     0.058396
	   92 D(9,3,6,20)     =   -179.852492    -0.000004    -0.118377  -179.970869
	   93 D(9,4,7,12)     =      0.021968     0.000003     0.046825     0.068793
	   94 D(9,4,7,21)     =   -179.909598    -0.000003    -0.107514  -180.017113
	   95 D(9,8,1,15)     =      0.023110    -0.000002     0.019073     0.042183
	   96 D(9,8,11,14)    =      0.001883    -0.000004    -0.260595    -0.258712
	   97 D(10,2,1,15)    =    179.979432     0.000003     0.118743   180.098176
	   98 D(10,5,11,14)   =    179.997392     0.000000     0.030082   180.027475
	   99 D(11,5,10,13)   =   -179.989616     0.000002     0.090963  -179.898653
	  100 D(11,8,1,15)    =   -179.978731    -0.000007    -0.255775  -180.234506
	  101 D(12,6,3,17)    =    179.922228     0.000003     0.131122   180.053350
	  102 D(12,7,4,18)    =    179.930525     0.000005     0.142969   180.073494
	  103 D(13,10,2,16)   =     -0.075833     0.000003     0.086294     0.010461
	  104 D(13,10,5,19)   =      0.025437     0.000002     0.084420     0.109857
	  105 D(14,11,5,19)   =     -0.017564     0.000001     0.036618     0.019054
	  106 D(15,1,2,16)    =      0.043120     0.000001     0.033070     0.076189
	  107 D(17,3,6,20)    =      0.037668    -0.000001    -0.013583     0.024085
	  108 D(18,4,7,21)    =     -0.001041    -0.000000    -0.011370    -0.012412
	  109 R(3,14)         =      3.009572     0.010288     0.005378     3.014950
	 ---------------------------------------------------------------------------
	Successfully symmetrized geometry.
	 Forces used to impose fixed constraints are not included.
	  Forces zeroed: 61 

  ==> Convergence Check <==

  Measures of convergence in internal coordinates in au.
  Criteria marked as inactive (o), active & met (*), and active & unmet ( ).
  --------------------------------------------------------------------------------------------- ~
   Step     Total Energy     Delta E     MAX Force     RMS Force      MAX Disp      RMS Disp    ~
  --------------------------------------------------------------------------------------------- ~
    Convergence Criteria    1.00e-06 *    3.00e-04 *             o    1.20e-03 *             o  ~
  --------------------------------------------------------------------------------------------- ~
      1    -652.87055526   -6.53e+02      1.60e-02      4.71e-03 o    3.11e-02      9.59e-03 o  ~
  ---------------------------------------------------------------------------------------------

	Writing optimization data to binary file.
	Structure for next step:
	Cartesian Geometry (in Angstrom)
	    C    -1.3407368778   0.7571705323  -0.7760916515
	    C    -2.4146681142   1.3309257965  -0.1073843967
	    C     2.1314742723   0.0176059247  -0.5767081308
	    C     0.6415658334  -1.4798029600  -1.6847393045
	    C    -1.4118688016   0.7206562149   1.9929933995
	    C     3.1685125988  -0.5811740279  -1.2738325858
	    C     1.7434111719  -2.0129163021  -2.3348762056
	    C    -0.2932849377   0.1600136935  -0.0786031461
	    C     0.8362539004  -0.4399607337  -0.7840085985
	    C    -2.4498363006   1.3118162816   1.2796735619
	    C    -0.3481169405   0.1550541198   1.3088843946
	    N     3.0020588962  -1.5862659352  -2.1482527226
	    O    -3.5108183167   1.8796660709   1.9136517742
	    F     0.6431438216  -0.4107144729   2.0100538882
	    H    -1.3213046193   0.7783204087  -1.8574014214
	    H    -3.2209100471   1.7914247248  -0.6625656672
	    H     2.3345211109   0.8246813795   0.1135040685
	    H    -0.3477587041  -1.8703305794  -1.8793147875
	    H    -1.4267208788   0.6978899525   3.0752680584
	    H     4.1900305541  -0.2505365646  -1.1367399445
	    H     1.6286213409  -2.8236298406  -3.0425548180
	    H    -3.4031589608   1.7939902606   2.8680587675
			--------------------------
			 OPTKING Finished Execution 
			--------------------------

    Structure for next step:
    Molecular point group: c1
    Full point group: C1

    Geometry (in Angstrom), charge = 0, multiplicity = 1:

    C           -1.339018099171     0.755734886351    -0.774804110007
    C           -2.412949335603     1.329490150517    -0.106096855224
    C            2.133193050861     0.016170278706    -0.575420589347
    C            0.643284611982    -1.481238605928    -1.683451763039
    C           -1.410150023028     0.719220568964     1.994280940987
    C            3.170231377444    -0.582609673805    -1.272545044357
    C            1.745129950549    -2.014351948017    -2.333588664125
    C           -0.291566159114     0.158578047531    -0.077315604658
    C            0.837972679041    -0.441396379621    -0.782721057025
    C           -2.448117522027     1.310380635683     1.280961103384
    C           -0.346398161919     0.153618473798     1.310171936100
    N            3.003777674849    -1.587701581177    -2.146965181093
    O           -3.509099538060     1.878230424934     1.914939315686
    F            0.644862600170    -0.412150118902     2.011341429651
    H           -1.319585840687     0.776884762790    -1.856113879953
    H           -3.219191268472     1.789989078827    -0.661278125742
    H            2.336239889479     0.823245733591     0.114791609924
    H           -0.346039925530    -1.871766225325    -1.878027245997
    H           -1.425002100189     0.696454306503     3.076555599911
    H            4.191749332659    -0.251972210525    -1.135452403070
    H            1.630340119502    -2.825065486511    -3.041267276532
    H           -3.401440182186     1.792554614648     2.869346308941

gradient() will perform analytic gradient computation.

*** tstart() called on gpu-2-9.local
*** at Mon Nov 13 20:12:15 2017

    SCF Algorithm Type (re)set to DF.

*** tstart() called on gpu-2-9.local
*** at Mon Nov 13 20:12:15 2017

   => Loading Basis Set <=

    Name: AUG-CC-PVTZ
    Role: ORBITAL
    Keyword: BASIS
    atoms 1-11  entry C          line   221 file /cbio/jclab/home/chayas/anaconda/envs/py35/share/psi4/basis/aug-cc-pvtz.gbs 
    atoms 12    entry N          line   267 file /cbio/jclab/home/chayas/anaconda/envs/py35/share/psi4/basis/aug-cc-pvtz.gbs 
    atoms 13    entry O          line   313 file /cbio/jclab/home/chayas/anaconda/envs/py35/share/psi4/basis/aug-cc-pvtz.gbs 
    atoms 14    entry F          line   359 file /cbio/jclab/home/chayas/anaconda/envs/py35/share/psi4/basis/aug-cc-pvtz.gbs 
    atoms 15-22 entry H          line    34 file /cbio/jclab/home/chayas/anaconda/envs/py35/share/psi4/basis/aug-cc-pvtz.gbs 


         ---------------------------------------------------------
                                   SCF
            by Justin Turney, Rob Parrish, and Andy Simmonett
                              RHF Reference
                        8 Threads,   7629 MiB Core
         ---------------------------------------------------------

  ==> Geometry <==

    Molecular point group: c1
    Full point group: C1

    Geometry (in Angstrom), charge = 0, multiplicity = 1:

       Center              X                  Y                   Z               Mass       
    ------------   -----------------  -----------------  -----------------  -----------------
           C         -1.339018099171     0.755734886351    -0.774804110007    12.000000000000
           C         -2.412949335603     1.329490150517    -0.106096855224    12.000000000000
           C          2.133193050861     0.016170278706    -0.575420589347    12.000000000000
           C          0.643284611982    -1.481238605928    -1.683451763039    12.000000000000
           C         -1.410150023028     0.719220568964     1.994280940987    12.000000000000
           C          3.170231377444    -0.582609673805    -1.272545044357    12.000000000000
           C          1.745129950549    -2.014351948017    -2.333588664125    12.000000000000
           C         -0.291566159114     0.158578047531    -0.077315604658    12.000000000000
           C          0.837972679041    -0.441396379621    -0.782721057025    12.000000000000
           C         -2.448117522027     1.310380635683     1.280961103384    12.000000000000
           C         -0.346398161919     0.153618473798     1.310171936100    12.000000000000
           N          3.003777674849    -1.587701581177    -2.146965181093    14.003074004780
           O         -3.509099538060     1.878230424934     1.914939315686    15.994914619560
           F          0.644862600170    -0.412150118902     2.011341429651    18.998403224000
           H         -1.319585840687     0.776884762790    -1.856113879953     1.007825032070
           H         -3.219191268472     1.789989078827    -0.661278125742     1.007825032070
           H          2.336239889479     0.823245733591     0.114791609924     1.007825032070
           H         -0.346039925530    -1.871766225325    -1.878027245997     1.007825032070
           H         -1.425002100189     0.696454306503     3.076555599911     1.007825032070
           H          4.191749332659    -0.251972210525    -1.135452403070     1.007825032070
           H          1.630340119502    -2.825065486511    -3.041267276532     1.007825032070
           H         -3.401440182186     1.792554614648     2.869346308941     1.007825032070

  Running in c1 symmetry.

  Rotational constants: A =      0.06428  B =      0.01295  C =      0.01156 [cm^-1]
  Rotational constants: A =   1926.94850  B =    388.22934  C =    346.55364 [MHz]
  Nuclear repulsion =  814.300818371402556

  Charge       = 0
  Multiplicity = 1
  Electrons    = 98
  Nalpha       = 49
  Nbeta        = 49

  ==> Algorithm <==

  SCF Algorithm Type is DF.
  DIIS enabled.
  MOM disabled.
  Fractional occupation disabled.
  Guess Type is READ.
  Energy threshold   = 1.00e-10
  Density threshold  = 1.00e-10
  Integral threshold = 0.00e+00

  ==> Primary Basis <==

  Basis Set: AUG-CC-PVTZ
    Blend: AUG-CC-PVTZ
    Number of shells: 268
    Number of basis function: 828
    Number of Cartesian functions: 970
    Spherical Harmonics?: true
    Max angular momentum: 3

   => Loading Basis Set <=

    Name: (AUG-CC-PVTZ AUX)
    Role: JKFIT
    Keyword: DF_BASIS_SCF
    atoms 1-11  entry C          line   161 file /cbio/jclab/home/chayas/anaconda/envs/py35/share/psi4/basis/aug-cc-pvtz-jkfit.gbs 
    atoms 12    entry N          line   223 file /cbio/jclab/home/chayas/anaconda/envs/py35/share/psi4/basis/aug-cc-pvtz-jkfit.gbs 
    atoms 13    entry O          line   285 file /cbio/jclab/home/chayas/anaconda/envs/py35/share/psi4/basis/aug-cc-pvtz-jkfit.gbs 
    atoms 14    entry F          line   347 file /cbio/jclab/home/chayas/anaconda/envs/py35/share/psi4/basis/aug-cc-pvtz-jkfit.gbs 
    atoms 15-22 entry H          line    69 file /cbio/jclab/home/chayas/anaconda/envs/py35/share/psi4/basis/aug-cc-pvtz-jkfit.gbs 

  Reading orbitals from file 180, no projection.

  ==> Pre-Iterations <==

   -------------------------------------------------------
    Irrep   Nso     Nmo     Nalpha   Nbeta   Ndocc  Nsocc
   -------------------------------------------------------
     A        828     828       0       0       0       0
   -------------------------------------------------------
    Total     828     828      49      49      49       0
   -------------------------------------------------------

  ==> Integral Setup <==

  ==> DFJK: Density-Fitted J/K Matrices <==

    J tasked:                  Yes
    K tasked:                  Yes
    wK tasked:                  No
    OpenMP threads:              8
    Integrals threads:           8
    Memory (MB):              5722
    Algorithm:                Core
    Integral Cache:           NONE
    Schwarz Cutoff:          1E-12
    Fitting Condition:       1E-12

   => Auxiliary Basis Set <=

  Basis Set: (AUG-CC-PVTZ AUX)
    Blend: AUG-CC-PVTZ-JKFIT
    Number of shells: 532
    Number of basis function: 1824
    Number of Cartesian functions: 2274
    Spherical Harmonics?: true
    Max angular momentum: 4

  Minimum eigenvalue in the overlap matrix is 7.0118439130E-07.
  Using Symmetric Orthogonalization.

  SCF Guess: Orbitals guess was supplied from a previous computation.

  ==> Iterations <==

                           Total Energy        Delta E     RMS |[F,P]|

   @DF-RHF iter   0:  -650.23916486155770   -6.50239e+02   3.33464e-04 
   @DF-RHF iter   1:  -650.17907380910879    6.00911e-02   6.12872e-05 
   @DF-RHF iter   2:  -650.17937931975177   -3.05511e-04   3.56012e-05 DIIS
   @DF-RHF iter   3:  -650.17954823470438   -1.68915e-04   7.08628e-06 DIIS
[...]
	 B(13,10,22)      =         0.496063	      28.422311
	 B(20,12,21)      =         3.021697	     173.130498
	 D(1,2,10,5)      =         0.003077	       0.176303
	 D(1,2,10,13)     =        -3.140614	    -179.943902
	 D(1,2,10,22)     =         3.141093	     179.971377
	 D(1,8,9,3)       =         2.098836	     120.254439
	 D(1,8,9,4)       =        -0.972705	     -55.731864
	 D(1,8,11,5)      =         0.021206	       1.215005
	 D(1,8,11,14)     =        -3.135609	    -179.657186
	 D(2,1,8,9)       =        -3.109110	    -178.138866
	 D(2,1,8,11)      =        -0.017389	      -0.996294
	 D(2,10,5,11)     =         0.000337	       0.019306
	 D(2,10,5,19)     =        -3.138525	    -179.824251
	 D(2,10,13,22)    =        -3.139850	    -179.900133
	 D(2,10,22,13)    =         0.002757	       0.157960
	 D(3,6,12,7)      =        -0.000195	      -0.011174
	 D(3,6,12,20)     =         3.136228	     179.692607
	 D(3,6,12,21)     =        -0.001416	      -0.081144
	 D(3,6,20,12)     =        -3.136433	    -179.704349
	 D(3,9,4,7)       =         0.010463	       0.599459
	 D(3,9,4,18)      =         3.141118	     179.972811
	 D(3,9,8,11)      =        -0.990112	     -56.729224
	 D(4,7,12,6)      =        -0.002329	      -0.133431
	 D(4,7,12,20)     =        -0.006580	      -0.377031
	 D(4,7,12,21)     =         3.137778	     179.781427
	 D(4,7,21,12)     =        -3.137917	    -179.789415
	 D(4,9,3,6)       =        -0.012759	      -0.731057
	 D(4,9,3,17)      =         3.129240	     179.292273
	 D(4,9,8,11)      =         2.221533	     127.284473
	 D(5,10,2,16)     =        -3.129114	    -179.285045
	 D(5,10,13,22)    =        -0.000415	      -0.023764
	 D(5,10,22,13)    =         3.141242	     179.979927
	 D(5,11,8,9)      =         3.112549	     178.335945
	 D(6,3,9,8)       =        -3.086721	    -176.856086
	 D(6,12,7,21)     =        -3.140107	    -179.914858
	 D(6,12,21,7)     =         0.002311	       0.132387
	 D(6,20,12,7)     =         0.008041	       0.460727
	 D(6,20,12,21)    =         0.018945	       1.085444
	 D(7,4,9,8)       =         3.084968	     176.755643
	 D(7,12,6,20)     =        -3.136423	    -179.703781
	 D(7,21,12,20)    =        -0.013264	      -0.759968
	 D(8,1,2,10)      =         0.005845	       0.334881
	 D(8,1,2,16)      =         3.137838	     179.784896
	 D(8,9,3,17)      =         0.055279	       3.167244
	 D(8,9,4,18)      =        -0.067562	      -3.871005
	 D(8,11,5,10)     =        -0.013097	      -0.750381
	 D(8,11,5,19)     =         3.125839	     179.097372
	 D(9,3,6,12)      =         0.007973	       0.456802
	 D(9,3,6,20)      =        -3.139184	    -179.862015
	 D(9,4,7,12)      =        -0.002999	      -0.171817
	 D(9,4,7,21)      =         3.134638	     179.601515
	 D(9,8,1,15)      =         0.024038	       1.377271
	 D(9,8,11,14)     =        -0.044266	      -2.536245
	 D(10,2,1,15)     =        -3.127201	    -179.175396
	 D(10,5,11,14)    =        -3.139650	    -179.888688
	 D(11,5,10,13)    =        -3.139046	    -179.854071
	 D(11,5,10,22)    =        -3.139244	    -179.865412
	 D(11,8,1,15)     =         3.115759	     178.519843
	 D(12,6,3,17)     =        -3.134027	    -179.566524
	 D(12,7,4,18)     =        -3.133640	    -179.544326
	 D(13,10,2,16)    =         0.010380	       0.594750
	 D(13,10,5,19)    =         0.005277	       0.302372
	 D(14,11,5,19)    =        -0.000714	      -0.040935
	 D(15,1,2,16)     =         0.004793	       0.274619
	 D(16,2,10,22)    =         0.008902	       0.510029
	 D(17,3,6,20)     =         0.002001	       0.114658
	 D(18,4,7,21)     =         0.003997	       0.229007
	 D(19,5,10,22)    =         0.005079	       0.291031
	 D(20,6,12,21)    =        -3.137644	    -179.773750
	 D(20,12,7,21)    =         3.138827	     179.841542

	Adding user-defined constraint: Fragment 1; Coordinate 61:
		Value =     2.098836; Fixed value    =     2.094395
		Force =    -0.002220; Force constant =     0.500000
	Removing off-diagonal coupling between coordinate 61 and others.
	Taking RFO optimization step.
	Going to follow RFO solution 1.
	Using RFO vector 1.
	Norm of target step-size    0.06944
	Projected energy change by RFO approximation:         0.0003313267

	Back-transformation to cartesian coordinates...
	Successfully converged to displaced geometry.

	--- Internal Coordinate Step in ANG or DEG, aJ/ANG or AJ/DEG ---
	 ---------------------------------------------------------------------------
	   Coordinate                Previous        Force       Change         New 
	   ----------                --------       ------       ------       ------
	    1 R(1,2)          =      1.382874    -0.000216    -0.000021     1.382852
	    2 R(1,8)          =      1.394354     0.000640     0.000095     1.394450
	    3 R(1,15)         =      1.079850     0.000050     0.000018     1.079868
	    4 R(2,10)         =      1.387851     0.000183     0.000027     1.387878
	    5 R(2,16)         =      1.077973     0.000138     0.000025     1.077999
	    6 R(3,6)          =      1.385685    -0.000085    -0.000011     1.385674
	    7 R(3,9)          =      1.390236     0.000256     0.000026     1.390262
	    8 R(3,17)         =      1.079064     0.000087     0.000013     1.079077
	    9 R(4,7)          =      1.386361    -0.000026    -0.000007     1.386354
	   10 R(4,9)          =      1.390032    -0.000450    -0.000060     1.389972
	   11 R(4,18)         =      1.079797    -0.000098    -0.000007     1.079790
	   12 R(5,10)         =      1.387414    -0.000123    -0.000009     1.387404
	   13 R(5,11)         =      1.379580     0.000317     0.000033     1.379614
	   14 R(5,19)         =      1.079339     0.000027     0.000004     1.079343
	   15 R(6,12)         =      1.335470     0.000009     0.000007     1.335477
	   16 R(6,20)         =      1.080870     0.000029     0.000011     1.080881
	   17 R(7,12)         =      1.334479     0.000263     0.000038     1.334517
	   18 R(7,21)         =      1.081055    -0.000056    -0.000010     1.081045
	   19 R(8,9)          =      1.463206     0.000109    -0.000002     1.463203
	   20 R(8,11)         =      1.385762    -0.000745    -0.000106     1.385657
	   21 R(10,13)        =      1.360190    -0.000413    -0.000054     1.360136
	   22 R(11,14)        =      1.346007     0.000115     0.000016     1.346024
	   23 R(13,22)        =      0.961941    -0.000051    -0.000008     0.961933
	   24 B(1,2,10)       =    119.589612     0.000001     0.004191   119.593803
	   25 B(1,2,16)       =    121.228511     0.000000     0.000878   121.229389
	   26 B(1,8,9)        =    121.351614    -0.000010    -0.017569   121.334045
	   27 B(1,8,11)       =    116.533509     0.000001     0.003547   116.537056
	   28 B(2,1,8)        =    121.963777    -0.000002    -0.005952   121.957825
	   29 B(2,1,15)       =    119.638819     0.000001     0.002941   119.641760
	   30 B(2,10,5)       =    119.950548    -0.000002    -0.003890   119.946658
	   31 B(2,10,13)      =    117.448651     0.000001     0.002351   117.451002
	   32 B(3,6,12)       =    123.690433     0.000000     0.000342   123.690774
	   33 B(3,6,20)       =    120.106748     0.000000     0.000095   120.106843
	   34 B(3,9,4)        =    117.299775     0.000002     0.006272   117.306047
	   35 B(3,9,8)        =    121.672245    -0.000010    -0.015969   121.656276
	   36 B(4,7,12)       =    123.580640     0.000001     0.002432   123.583072
	   37 B(4,7,21)       =    120.150734     0.000000     0.000802   120.151536
	   38 B(4,9,8)        =    120.912450     0.000009     0.018665   120.931114
	   39 B(5,10,13)      =    122.600686     0.000001     0.001365   122.602051
	   40 B(5,11,8)       =    123.084491     0.000000    -0.001196   123.083295
	   41 B(5,11,14)      =    117.814963    -0.000001    -0.002319   117.812644
	   42 B(6,3,9)        =    119.235855    -0.000001    -0.002955   119.232900
	   43 B(6,3,17)       =    120.376009    -0.000001    -0.002195   120.373814
	   44 B(6,12,7)       =    116.850282    -0.000001    -0.001504   116.848778
	   45 B(7,4,9)        =    119.339261    -0.000001    -0.003731   119.335529
	   46 B(7,4,18)       =    120.394707    -0.000000    -0.000529   120.394179
	   47 B(8,1,15)       =    118.395649     0.000001     0.002955   118.398604
	   48 B(8,11,14)      =    119.095051     0.000001     0.001514   119.096565
	   49 B(9,3,17)       =    120.388132     0.000001     0.005082   120.393214
	   50 B(9,4,18)       =    120.263041     0.000001     0.005526   120.268567
	   51 B(9,8,11)       =    122.050638     0.000010     0.017681   122.068319
	   52 B(10,2,16)      =    119.179628    -0.000001    -0.004920   119.174709
	   53 B(10,5,11)      =    118.868096     0.000001     0.002313   118.870409
	   54 B(10,5,19)      =    121.884298     0.000001     0.006556   121.890854
	   55 B(10,13,22)     =    109.277145     0.000001     0.000925   109.278070
	   56 B(11,5,19)      =    119.247424    -0.000002    -0.008870   119.238553
	   57 B(12,6,20)      =    116.202108    -0.000001    -0.002443   116.199665
	   58 B(12,7,21)      =    116.268266    -0.000001    -0.002875   116.265391
	   59 D(1,2,10,5)     =      0.176303     0.000000     0.077385     0.253688
	   60 D(1,2,10,13)    =   -179.943902     0.000000     0.007128  -179.936774
	   61 D(1,8,9,3)      =    120.254439     0.000008     0.311027   120.565466
	   62 D(1,8,9,4)      =    -55.731864     0.000002     0.152068   -55.579796
	   63 D(1,8,11,5)     =      1.215005    -0.000003     0.065090     1.280095
	   64 D(1,8,11,14)    =   -179.657186    -0.000004    -0.081425  -179.738611
	   65 D(2,1,8,9)      =   -178.138866    -0.000001    -0.087888  -178.226754
	   66 D(2,1,8,11)     =     -0.996294     0.000004    -0.004847    -1.001141
	   67 D(2,10,5,11)    =      0.019306     0.000001    -0.020198    -0.000892
	   68 D(2,10,5,19)    =   -179.824251     0.000001    -0.019348  -179.843599
	   69 D(2,10,13,22)   =   -179.900133    -0.000000     0.032880  -179.867252
	   70 D(3,6,12,7)     =     -0.011174    -0.000000    -0.105651    -0.116825
	   71 D(3,9,4,7)      =      0.599459    -0.000003    -0.093690     0.505769
	   72 D(3,9,4,18)     =    179.972811    -0.000003     0.057069   180.029880
	   73 D(3,9,8,11)     =    -56.729224     0.000003     0.223836   -56.505387
	   74 D(4,7,12,6)     =     -0.133431     0.000002     0.094667    -0.038764
	   75 D(4,9,3,6)      =     -0.731057     0.000004     0.083661    -0.647396
	   76 D(4,9,3,17)     =    179.292273     0.000001    -0.036915   179.255358
	   77 D(4,9,8,11)     =    127.284473    -0.000003     0.064878   127.349351
	   78 D(5,10,2,16)    =   -179.285045     0.000000     0.059215  -179.225830
	   79 D(5,10,13,22)   =     -0.023764    -0.000000    -0.039390    -0.063153
	   80 D(5,11,8,9)     =    178.335945     0.000002     0.147697   178.483642
	   81 D(6,3,9,8)      =   -176.856086    -0.000001    -0.070304  -176.926390
	   82 D(6,12,7,21)    =   -179.914858     0.000001    -0.107796  -180.022654
	   83 D(7,4,9,8)      =    176.755643     0.000002     0.057677   176.813320
	   84 D(7,12,6,20)    =   -179.703781     0.000001     0.187741  -179.516040
	   85 D(8,1,2,10)     =      0.334881    -0.000003    -0.065176     0.269705
	   86 D(8,1,2,16)     =    179.784896    -0.000003    -0.046654   179.738242
	   87 D(8,9,3,17)     =      3.167244    -0.000005    -0.190880     2.976364
	   88 D(8,9,4,18)     =     -3.871005     0.000002     0.208436    -3.662569
	   89 D(8,11,5,10)    =     -0.750381     0.000000    -0.053254    -0.803635
	   90 D(8,11,5,19)    =    179.097372     0.000000    -0.054057   179.043315
	   91 D(9,3,6,12)     =      0.456802    -0.000003     0.017031     0.473834
	   92 D(9,3,6,20)     =   -179.862015    -0.000004    -0.287278  -180.149293
	   93 D(9,4,7,12)     =     -0.171817     0.000000     0.004453    -0.167363
	   94 D(9,4,7,21)     =    179.601515     0.000001     0.214414   179.815929
	   95 D(9,8,1,15)     =      1.377271    -0.000004    -0.095559     1.281711
	   96 D(9,8,11,14)    =     -2.536245     0.000001     0.001181    -2.535064
	   97 D(10,2,1,15)    =   -179.175396     0.000000    -0.057411  -179.232808
	   98 D(10,5,11,14)   =   -179.888688     0.000001     0.091461  -179.797227
	   99 D(11,5,10,13)   =   -179.854071     0.000001     0.053809  -179.800263
	  100 D(11,8,1,15)    =    178.519843     0.000001    -0.012519   178.507324
	  101 D(12,6,3,17)    =   -179.566524     0.000001     0.137585  -179.428939
	  102 D(12,7,4,18)    =   -179.544326     0.000000    -0.146538  -179.690864
	  103 D(13,10,2,16)   =      0.594750     0.000000    -0.011042     0.583708
	  104 D(13,10,5,19)   =      0.302372     0.000001     0.054659     0.357031
	  105 D(14,11,5,19)   =     -0.040935     0.000001     0.090658     0.049723
	  106 D(15,1,2,16)    =      0.274619     0.000000    -0.038889     0.235730
	  107 D(17,3,6,20)    =      0.114658    -0.000000    -0.166724    -0.052066
	  108 D(18,4,7,21)    =      0.229007     0.000001     0.063423     0.292429
	  109 R(3,14)         =      3.030715    -0.000516    -0.002821     3.027894
	  110 R(1,X)          =     -1.348779    -0.000608    -0.002430    -1.351210
	  111 R(1,Y)          =      0.693359    -0.000918    -0.001378     0.691981
	  112 R(1,Z)          =     -0.751876     0.000037     0.003290    -0.748587
	  113 R(2,X)          =     -2.414257    -0.000193    -0.001545    -2.415802
	  114 R(2,Y)          =      1.291679    -0.000635    -0.003007     1.288672
	  115 R(2,Z)          =     -0.104489    -0.000004     0.006197    -0.098292
	  116 R(3,X)          =      2.142080     0.000127    -0.000122     2.141958
	  117 R(3,Y)          =     -0.033489    -0.000966    -0.000159    -0.033648
	  118 R(3,Z)          =     -0.548037     0.000774    -0.004117    -0.552154
	  119 R(4,X)          =      0.658596    -0.000344    -0.003330     0.655266
	  120 R(4,Y)          =     -1.480352     0.000664     0.001672    -1.478680
	  121 R(4,Z)          =     -1.707110    -0.000811    -0.002393    -1.709504
	  122 R(5,X)          =     -1.408786    -0.000033     0.005882    -1.402904
	  123 R(5,Y)          =      0.752428     0.000332     0.000253     0.752681
	  124 R(5,Z)          =      2.010205    -0.000031     0.003444     2.013648
	  125 R(6,X)          =      3.176658     0.000095    -0.001825     3.174833
	  126 R(6,Y)          =     -0.588084    -0.000618    -0.000660    -0.588744
	  127 R(6,Z)          =     -1.284376     0.000627    -0.006108    -1.290483
	  128 R(7,X)          =      1.755679    -0.000186    -0.004909     1.750770
	  129 R(7,Y)          =     -1.972544     0.000078     0.001258    -1.971285
	  130 R(7,Z)          =     -2.397147    -0.000090    -0.004590    -2.401738
	  131 R(8,X)          =     -0.296128     0.001325     0.001109    -0.295019
	  132 R(8,Y)          =      0.104716     0.001773     0.001517     0.106233
	  133 R(8,Z)          =     -0.052128     0.000667     0.000571    -0.051557
	  134 R(9,X)          =      0.844337    -0.000451    -0.000967     0.843370
	  135 R(9,Y)          =     -0.489201     0.001075     0.001632    -0.487569
	  136 R(9,Z)          =     -0.750393    -0.001870    -0.002901    -0.753293
	  137 R(10,X)         =     -2.445124    -0.000199     0.002192    -2.442932
	  138 R(10,Y)         =      1.319625    -0.000018    -0.002877     1.316748
	  139 R(10,Z)         =      1.282737     0.000167     0.006300     1.289037
	  140 R(11,X)         =     -0.360083     0.000802     0.005518    -0.354565
	  141 R(11,Y)         =      0.167824     0.001133     0.002838     0.170662
	  142 R(11,Z)         =      1.330719    -0.000075     0.000601     1.331320
	  143 R(12,X)         =      3.004275     0.000113    -0.004301     2.999974
	  144 R(12,Y)         =     -1.544734     0.000004     0.000768    -1.543966
	  145 R(12,Z)         =     -2.200118    -0.000039    -0.007138    -2.207257
	  146 R(13,X)         =     -3.513899     0.000100     0.002857    -3.511042
	  147 R(13,Y)         =      1.917993    -0.000221    -0.004652     1.913341
	  148 R(13,Z)         =      1.874169    -0.000036     0.009165     1.883333
	  149 R(14,X)         =      0.632750     0.000254     0.008199     0.640948
	  150 R(14,Y)         =     -0.377981     0.000546     0.004202    -0.373779
	  151 R(14,Z)         =      2.057434     0.000447    -0.002018     2.055416
	  152 R(15,X)         =     -1.317341    -0.000557    -0.005838    -1.323179
	  153 R(15,Y)         =      0.682944    -0.001051    -0.002276     0.680667
	  154 R(15,Z)         =     -1.831219    -0.000010     0.003187    -1.828032
	  155 R(16,X)         =     -3.220252    -0.000387    -0.003972    -3.224224
	  156 R(16,Y)         =      1.746327    -0.000645    -0.004574     1.741753
	  157 R(16,Z)         =     -0.657384     0.000001     0.008409    -0.648975
	  158 R(17,X)         =      2.341566     0.000159     0.001612     2.343178
	  159 R(17,Y)         =      0.742877    -0.000856     0.000179     0.743056
	  160 R(17,Z)         =      0.174348     0.000778    -0.004942     0.169405
	  161 R(18,X)         =     -0.329453    -0.000211    -0.004176    -0.333628
	  162 R(18,Y)         =     -1.869488     0.000568     0.003693    -1.865794
	  163 R(18,Z)         =     -1.902802    -0.000751    -0.002091    -1.904893
	  164 R(19,X)         =     -1.402271     0.000091     0.009170    -1.393102
	  165 R(19,Y)         =      0.754081    -0.000067     0.000621     0.754702
	  166 R(19,Z)         =      3.089522    -0.000005     0.003423     3.092945
	  167 R(20,X)         =      4.191271     0.000070    -0.001810     4.189461
	  168 R(20,Y)         =     -0.245933    -0.000332     0.001164    -0.244769
	  169 R(20,Z)         =     -1.136816     0.000351    -0.010433    -1.147250
	  170 R(21,X)         =      1.627125    -0.000021    -0.007125     1.620000
	  171 R(21,Y)         =     -2.747947     0.000097     0.003699    -2.744248
	  172 R(21,Z)         =     -3.139376    -0.000056    -0.006732    -3.146108
	  173 R(22,X)         =     -3.414825     0.000053     0.005814    -3.409012
	  174 R(22,Y)         =      1.872202     0.000058    -0.003913     1.868289
	  175 R(22,Z)         =      2.829898    -0.000070     0.008880     2.838778
	 ---------------------------------------------------------------------------
	Successfully symmetrized geometry.
	 Forces used to impose fixed constraints are not included.
	  Forces zeroed: 61 

  ==> Convergence Check <==

  Measures of convergence in internal coordinates in au.
  Criteria marked as inactive (o), active & met (*), and active & unmet ( ).
  --------------------------------------------------------------------------------------------- ~
   Step     Total Energy     Delta E     MAX Force     RMS Force      MAX Disp      RMS Disp    ~
  --------------------------------------------------------------------------------------------- ~
    Convergence Criteria    1.00e-06 *    3.00e-04 *             o    1.20e-03 *             o  ~
  --------------------------------------------------------------------------------------------- ~
      1    -652.87476392   -6.53e+02      2.77e-04 *    8.01e-05 o    1.97e-02      5.25e-03 o  ~
  ---------------------------------------------------------------------------------------------

	Writing optimization data to binary file.
	
Fatal Error: PSIO Error
Error occurred in file: /scratch/psilocaluser/conda-builds/psi4_1495011512596/work/psi4/src/psi4/libpsio/error.cc on line: 129
The most recent 5 function calls were:

psi::PsiException::PsiException(std::__cxx11::basic_string<char, std::char_traits<char>, std::allocator<char> >, char const*, int)
psi::psio_error(unsigned int, unsigned int)
psi::PSIO::write(unsigned int, char const*, char*, unsigned long, psi::psio_address, psi::psio_address*)
psi::PSIO::write_entry(unsigned int, char const*, char*, unsigned long)
psi::psio_write_entry(unsigned int, char const*, char*, unsigned long)
