
    -----------------------------------------------------------------------
          Psi4: An Open-Source Ab Initio Electronic Structure Package
                               Psi4 1.1 release

                         Git: Rev {HEAD} add49b9 


    R. M. Parrish, L. A. Burns, D. G. A. Smith, A. C. Simmonett,
    A. E. DePrince III, E. G. Hohenstein, U. Bozkaya, A. Yu. Sokolov,
    R. Di Remigio, R. M. Richard, J. F. Gonthier, A. M. James,
    H. R. McAlexander, A. Kumar, M. Saitow, X. Wang, B. P. Pritchard,
    P. Verma, H. F. Schaefer III, K. Patkowski, R. A. King, E. F. Valeev,
    F. A. Evangelista, J. M. Turney, T. D. Crawford, and C. D. Sherrill,
    J. Chem. Theory Comput. in press (2017).
    (doi: 10.1021/acs.jctc.7b00174)

    -----------------------------------------------------------------------


    Psi4 started on: Sunday, 12 November 2017 11:35AM

    Process ID:   1510
    PSIDATADIR: /cbio/jclab/home/chayas/anaconda/envs/py35/share/psi4
    Memory:     500.0 MiB
    Threads:    8
    
  ==> Input File <==

--------------------------------------------------------------------------

memory 5 Gb

molecule phepyrOH_neutral {
  symmetry C1
  0 1 
  C      1.885   -1.036   -0.112
  C      2.878   -1.652   2.002
  C      0.807   -0.463   0.561
  C      1.800   -1.079   2.676
  C      4.907   -3.081   0.581
  C      4.251   -1.944   -1.435
  C      5.962   -3.625   -0.133
  C      5.336   -2.540   -2.059
  C      2.921   -1.631   0.608
  C      4.040   -2.225   -0.090
  C      0.764   -0.484   1.955
  N      6.200   -3.376   -1.441
  O      -0.288   0.076   2.612
  H      1.904   -1.012   -1.199
  H      3.678   -2.112   2.578
  H      0.003   -0.001   -0.006
  H      1.772   -1.098   3.762
  H      4.773   -3.325   1.630
  H      3.596   -1.282   -1.991
  H      6.665   -4.300   0.344
  H      5.545   -2.352   -3.107
  H      -0.175   -0.018   3.571
  units Angstrom
}

dih_string = "1 9 10 5 195"
set optking fixed_dihedral = $dih_string

optimize('MP2/aug-cc-PVTZ')
--------------------------------------------------------------------------

  Memory set to   4.657 GiB by Python driver.
gradient() will perform analytic gradient computation.

*** tstart() called on gpu-1-14.local
*** at Sun Nov 12 11:35:09 2017

    SCF Algorithm Type (re)set to DF.

*** tstart() called on gpu-1-14.local
*** at Sun Nov 12 11:35:09 2017

   => Loading Basis Set <=

    Name: AUG-CC-PVTZ
    Role: ORBITAL
    Keyword: BASIS
    atoms 1-11  entry C          line   221 file /cbio/jclab/home/chayas/anaconda/envs/py35/share/psi4/basis/aug-cc-pvtz.gbs 
    atoms 12    entry N          line   267 file /cbio/jclab/home/chayas/anaconda/envs/py35/share/psi4/basis/aug-cc-pvtz.gbs 
    atoms 13    entry O          line   313 file /cbio/jclab/home/chayas/anaconda/envs/py35/share/psi4/basis/aug-cc-pvtz.gbs 
    atoms 14-22 entry H          line    34 file /cbio/jclab/home/chayas/anaconda/envs/py35/share/psi4/basis/aug-cc-pvtz.gbs 


         ---------------------------------------------------------
                                   SCF
            by Justin Turney, Rob Parrish, and Andy Simmonett
                              RHF Reference
                        8 Threads,   4768 MiB Core
         ---------------------------------------------------------

  ==> Geometry <==

    Molecular point group: c1
    Full point group: C1

    Geometry (in Angstrom), charge = 0, multiplicity = 1:

       Center              X                  Y                   Z               Mass       
    ------------   -----------------  -----------------  -----------------  -----------------
           C         -1.252941960505     0.710669916973    -0.590603646352    12.000000000000
           C         -0.259941960505     0.094669916973     1.523396353648    12.000000000000
           C         -2.330941960505     1.283669916973     0.082396353648    12.000000000000
           C         -1.337941960505     0.667669916973     2.197396353648    12.000000000000
           C          1.769058039495    -1.334330083027     0.102396353648    12.000000000000
           C          1.113058039495    -0.197330083027    -1.913603646352    12.000000000000
           C          2.824058039495    -1.878330083027    -0.611603646352    12.000000000000
           C          2.198058039495    -0.793330083027    -2.537603646352    12.000000000000
           C         -0.216941960505     0.115669916973     0.129396353648    12.000000000000
           C          0.902058039495    -0.478330083027    -0.568603646352    12.000000000000
           C         -2.373941960505     1.262669916973     1.476396353648    12.000000000000
           N          3.062058039495    -1.629330083027    -1.919603646352    14.003074004780
           O         -3.425941960505     1.822669916973     2.133396353648    15.994914619560
           H         -1.233941960505     0.734669916973    -1.677603646352     1.007825032070
           H          0.540058039495    -0.365330083027     2.099396353648     1.007825032070
           H         -3.134941960505     1.745669916973    -0.484603646352     1.007825032070
           H         -1.365941960505     0.648669916973     3.283396353648     1.007825032070
           H          1.635058039495    -1.578330083027     1.151396353648     1.007825032070
           H          0.458058039495     0.464669916973    -2.469603646352     1.007825032070
           H          3.527058039495    -2.553330083027    -0.134603646352     1.007825032070
           H          2.407058039495    -0.605330083027    -3.585603646352     1.007825032070
           H         -3.312941960505     1.728669916973     3.092396353648     1.007825032070

  Running in c1 symmetry.

  Rotational constants: A =      0.09693  B =      0.01364  C =      0.01201 [cm^-1]
  Rotational constants: A =   2905.77951  B =    409.00788  C =    360.04802 [MHz]
  Nuclear repulsion =  698.986736568485185

  Charge       = 0
  Multiplicity = 1
  Electrons    = 90
  Nalpha       = 45
  Nbeta        = 45

  ==> Algorithm <==

  SCF Algorithm Type is DF.
  DIIS enabled.
  MOM disabled.
  Fractional occupation disabled.
  Guess Type is SAD.
  Energy threshold   = 1.00e-10
  Density threshold  = 1.00e-10
  Integral threshold = 0.00e+00

  ==> Primary Basis <==

  Basis Set: AUG-CC-PVTZ
    Blend: AUG-CC-PVTZ
    Number of shells: 263
    Number of basis function: 805
    Number of Cartesian functions: 940
    Spherical Harmonics?: true
    Max angular momentum: 3

   => Loading Basis Set <=

    Name: (AUG-CC-PVTZ AUX)
    Role: JKFIT
    Keyword: DF_BASIS_SCF
    atoms 1-11  entry C          line   161 file /cbio/jclab/home/chayas/anaconda/envs/py35/share/psi4/basis/aug-cc-pvtz-jkfit.gbs 
    atoms 12    entry N          line   223 file /cbio/jclab/home/chayas/anaconda/envs/py35/share/psi4/basis/aug-cc-pvtz-jkfit.gbs 
    atoms 13    entry O          line   285 file /cbio/jclab/home/chayas/anaconda/envs/py35/share/psi4/basis/aug-cc-pvtz-jkfit.gbs 
    atoms 14-22 entry H          line    69 file /cbio/jclab/home/chayas/anaconda/envs/py35/share/psi4/basis/aug-cc-pvtz-jkfit.gbs 

  ==> Pre-Iterations <==

   -------------------------------------------------------
    Irrep   Nso     Nmo     Nalpha   Nbeta   Ndocc  Nsocc
   -------------------------------------------------------
     A        805     805       0       0       0       0
   -------------------------------------------------------
    Total     805     805      45      45      45       0
   -------------------------------------------------------

  ==> Integral Setup <==

  ==> DFJK: Density-Fitted J/K Matrices <==

    J tasked:                  Yes
    K tasked:                  Yes
    wK tasked:                  No
    OpenMP threads:              8
    Integrals threads:           8
    Memory (MB):              3576
    Algorithm:                Disk
    Integral Cache:           NONE
    Schwarz Cutoff:          1E-12
    Fitting Condition:       1E-12

   => Auxiliary Basis Set <=

  Basis Set: (AUG-CC-PVTZ AUX)
    Blend: AUG-CC-PVTZ-JKFIT
    Number of shells: 516
    Number of basis function: 1766
    Number of Cartesian functions: 2198
    Spherical Harmonics?: true
    Max angular momentum: 4

  Minimum eigenvalue in the overlap matrix is 5.1519522549E-07.
  Using Symmetric Orthogonalization.

  SCF Guess: Superposition of Atomic Densities via on-the-fly atomic UHF.

  ==> Iterations <==

                           Total Energy        Delta E     RMS |[F,P]|

   @DF-RHF iter   0:  -559.78627365712009   -5.59786e+02   1.73737e-02 
   @DF-RHF iter   1:  -550.97009168302907    8.81618e+00   1.74080e-03 
   @DF-RHF iter   2:  -551.22606913025265   -2.55977e-01   9.04042e-04 DIIS
   @DF-RHF iter   3:  -551.26625930094963   -4.01902e-02   3.83321e-04 DIIS
   @DF-RHF iter   4:  -551.27952240466004   -1.32631e-02   7.20203e-05 DIIS
   @DF-RHF iter   5:  -551.28124260743698   -1.72020e-03   4.89299e-05 DIIS
   @DF-RHF iter   6:  -551.28153969411778   -2.97087e-04   1.88395e-05 DIIS
   @DF-RHF iter   7:  -551.28158876439716   -4.90703e-05   5.65446e-06 DIIS
   @DF-RHF iter   8:  -551.28159533081669   -6.56642e-06   3.01670e-06 DIIS
   @DF-RHF iter   9:  -551.28159740017952   -2.06936e-06   1.58268e-06 DIIS
   @DF-RHF iter  10:  -551.28159826927697   -8.69097e-07   3.70535e-07 DIIS
   @DF-RHF iter  11:  -551.28159837149724   -1.02220e-07   2.35779e-07 DIIS
   @DF-RHF iter  12:  -551.28159838455917   -1.30619e-08   8.41323e-08 DIIS
   @DF-RHF iter  13:  -551.28159838618910   -1.62993e-09   2.84172e-08 DIIS
   @DF-RHF iter  14:  -551.28159838662793   -4.38831e-10   1.18672e-08 DIIS
   @DF-RHF iter  15:  -551.28159838671968   -9.17453e-11   5.83316e-09 DIIS
   @DF-RHF iter  16:  -551.28159838673525   -1.55751e-11   2.68875e-09 DIIS
   @DF-RHF iter  17:  -551.28159838676618   -3.09228e-11   1.08854e-09 DIIS
   @DF-RHF iter  18:  -551.28159838672047    4.57021e-11   3.49054e-10 DIIS
   @DF-RHF iter  19:  -551.28159838673321   -1.27329e-11   1.57841e-10 DIIS
   @DF-RHF iter  20:  -551.28159838672764    5.57066e-12   1.04284e-10 DIIS
   @DF-RHF iter  21:  -551.28159838673002   -2.38742e-12   2.88655e-11 DIIS

  ==> Post-Iterations <==

    Orbital Energies (a.u.)
    -----------------------

    Doubly Occupied:                                                      

       1A    -20.602406     2A    -15.560026     3A    -11.317662  
       4A    -11.273652     5A    -11.273629     6A    -11.263341  
       7A    -11.256005     8A    -11.254698     9A    -11.246805  
      10A    -11.244492    11A    -11.243316    12A    -11.234997  
      13A    -11.234773    14A     -1.417512    15A     -1.247258  
      16A     -1.175001    17A     -1.104188    18A     -1.041052  
      19A     -1.027885    20A     -1.009596    21A     -0.883319  
      22A     -0.876242    23A     -0.836637    24A     -0.810550  
      25A     -0.751646    26A     -0.725523    27A     -0.685960  
      28A     -0.669728    29A     -0.646927    30A     -0.631098  
      31A     -0.617548    32A     -0.607983    33A     -0.603399  
      34A     -0.588677    35A     -0.573869    36A     -0.547074  
      37A     -0.532602    38A     -0.524250    39A     -0.500134  
      40A     -0.494530    41A     -0.416368    42A     -0.399445  
      43A     -0.357931    44A     -0.347396    45A     -0.302697  

    Virtual:                                                              

      46A      0.021023    47A      0.029284    48A      0.032022  
      49A      0.040169    50A      0.043137    51A      0.046666  
      52A      0.057828    53A      0.059465    54A      0.066032  
      55A      0.074445    56A      0.077300    57A      0.082920  
      58A      0.086065    59A      0.090525    60A      0.096058  
      61A      0.101338    62A      0.103196    63A      0.108922  
      64A      0.110084    65A      0.111508    66A      0.116151  
      67A      0.120239    68A      0.126244    69A      0.128325  
      70A      0.133258    71A      0.135357    72A      0.138927  
      73A      0.139439    74A      0.143746    75A      0.144643  
      76A      0.149174    77A      0.150565    78A      0.155857  
      79A      0.164083    80A      0.167275    81A      0.170628  
      82A      0.172186    83A      0.179589    84A      0.182946  
      85A      0.187422    86A      0.189972    87A      0.197123  
      88A      0.201482    89A      0.208949    90A      0.214949  
      91A      0.220159    92A      0.226740    93A      0.229769  
      94A      0.236368    95A      0.238633    96A      0.248412  
      97A      0.249623    98A      0.252052    99A      0.254301  
     100A      0.257709   101A      0.259519   102A      0.264543  
     103A      0.266520   104A      0.270531   105A      0.274964  
     106A      0.280206   107A      0.289180   108A      0.289847  
     109A      0.293015   110A      0.298155   111A      0.301542  
     112A      0.305752   113A      0.308155   114A      0.311440  
     115A      0.318255   116A      0.321263   117A      0.328507  
     118A      0.329271   119A      0.331866   120A      0.336777  
     121A      0.343160   122A      0.345933   123A      0.353337  
     124A      0.359371   125A      0.364241   126A      0.368749  
     127A      0.373520   128A      0.381413   129A      0.384449  
     130A      0.393918   131A      0.397113   132A      0.400470  
     133A      0.407270   134A      0.412987   135A      0.417421  
     136A      0.421185   137A      0.422843   138A      0.429723  
     139A      0.432645   140A      0.436066   141A      0.437148  
     142A      0.438810   143A      0.443711   144A      0.448083  
     145A      0.448956   146A      0.452069   147A      0.457957  
     148A      0.465845   149A      0.466883   150A      0.468823  
     151A      0.474270   152A      0.478823   153A      0.487052  
     154A      0.487838   155A      0.492353   156A      0.496431  
     157A      0.499118   158A      0.500841   159A      0.503404  
     160A      0.505367   161A      0.509076   162A      0.510409  
     163A      0.513270   164A      0.517187   165A      0.519407  
     166A      0.522758   167A      0.525426   168A      0.531116  
     169A      0.539203   170A      0.543544   171A      0.550461  
     172A      0.552069   173A      0.556621   174A      0.564975  
     175A      0.568534   176A      0.571101   177A      0.572910  
     178A      0.580692   179A      0.588892   180A      0.594354  
     181A      0.596398   182A      0.603253   183A      0.609887  
     184A      0.614850   185A      0.623828   186A      0.630108  
     187A      0.634540   188A      0.642993   189A      0.648332  
     190A      0.655746   191A      0.658000   192A      0.659006  
     193A      0.679062   194A      0.686328   195A      0.690053  
     196A      0.695892   197A      0.698872   198A      0.700565  
     199A      0.703894   200A      0.709355   201A      0.710806  
     202A      0.716354   203A      0.721924   204A      0.727848  
     205A      0.737210   206A      0.743400   207A      0.746845  
     208A      0.751061   209A      0.755711   210A      0.768827  
     211A      0.773415   212A      0.777614   213A      0.782221  
     214A      0.796987   215A      0.801578   216A      0.807213  
     217A      0.809462   218A      0.811572   219A      0.821753  
     220A      0.825383   221A      0.832789   222A      0.835892  
     223A      0.840353   224A      0.844788   225A      0.848782  
     226A      0.857459   227A      0.860898   228A      0.871203  
     229A      0.875002   230A      0.881956   231A      0.882973  
     232A      0.886288   233A      0.891169   234A      0.891357  
     235A      0.898587   236A      0.900011   237A      0.905681  
     238A      0.915768   239A      0.916521   240A      0.922595  
     241A      0.927981   242A      0.935745   243A      0.937174  
     244A      0.940565   245A      0.944465   246A      0.945812  
     247A      0.954531   248A      0.960347   249A      0.966335  
     250A      0.974200   251A      0.976714   252A      0.979176  
     253A      0.984988   254A      0.988582   255A      0.992151  
     256A      0.994772   257A      0.996181   258A      1.000018  
     259A      1.008246   260A      1.015440   261A      1.020041  
     262A      1.024217   263A      1.027500   264A      1.028201  
     265A      1.030989   266A      1.038800   267A      1.040675  
     268A      1.042736   269A      1.046785   270A      1.056352  
     271A      1.058951   272A      1.066030   273A      1.069892  
     274A      1.071915   275A      1.080629   276A      1.082415  
     277A      1.086571   278A      1.096123   279A      1.099149  
     280A      1.100271   281A      1.104432   282A      1.112387  
     283A      1.120976   284A      1.127289   285A      1.128584  
     286A      1.136938   287A      1.141290   288A      1.144566  
     289A      1.149820   290A      1.155339   291A      1.160525  
     292A      1.165549   293A      1.169339   294A      1.175658  
     295A      1.178255   296A      1.182576   297A      1.185241  
     298A      1.192650   299A      1.193821   300A      1.203271  
     301A      1.208634   302A      1.211425   303A      1.216080  
     304A      1.217773   305A      1.225160   306A      1.230500  
     307A      1.234796   308A      1.242981   309A      1.249206  
     310A      1.255049   311A      1.256625   312A      1.265501  
     313A      1.278221   314A      1.281859   315A      1.286692  
     316A      1.291417   317A      1.302131   318A      1.305647  
     319A      1.309054   320A      1.313984   321A      1.317840  
     322A      1.327576   323A      1.332132   324A      1.334102  
     325A      1.345618   326A      1.353404   327A      1.367948  
     328A      1.381144   329A      1.385898   330A      1.388640  
     331A      1.393124   332A      1.400215   333A      1.408036  
     334A      1.414269   335A      1.416826   336A      1.434892  
     337A      1.443755   338A      1.459969   339A      1.462737  
     340A      1.464730   341A      1.471906   342A      1.480925  
     343A      1.485700   344A      1.497297   345A      1.499345  
     346A      1.504169   347A      1.508033   348A      1.519794  
     349A      1.534431   350A      1.541285   351A      1.547861  
     352A      1.563355   353A      1.564592   354A      1.586251  
     355A      1.589485   356A      1.595828   357A      1.605491  
     358A      1.619344   359A      1.620423   360A      1.626249  
     361A      1.639245   362A      1.645003   363A      1.654751  
     364A      1.663752   365A      1.668156   366A      1.674673  
     367A      1.682610   368A      1.688418   369A      1.704952  
     370A      1.706148   371A      1.711636   372A      1.715635  
     373A      1.725728   374A      1.734512   375A      1.736775  
     376A      1.739990   377A      1.757984   378A      1.758861  
     379A      1.770846   380A      1.780062   381A      1.789137  
     382A      1.805309   383A      1.806677   384A      1.811729  
     385A      1.819391   386A      1.827370   387A      1.829539  
     388A      1.844797   389A      1.847289   390A      1.852909  
     391A      1.855244   392A      1.869850   393A      1.876376  
     394A      1.884328   395A      1.887992   396A      1.895719  
     397A      1.910391   398A      1.925083   399A      1.932552  
     400A      1.941479   401A      1.948792   402A      1.954365  
     403A      1.959428   404A      1.969537   405A      1.975534  
     406A      1.978132   407A      1.993425   408A      1.996809  
     409A      2.003992   410A      2.005010   411A      2.012516  
     412A      2.028649   413A      2.033700   414A      2.037526  
     415A      2.043883   416A      2.048252   417A      2.051704  
     418A      2.054822   419A      2.061816   420A      2.064863  
     421A      2.079240   422A      2.101593   423A      2.102121  
     424A      2.108263   425A      2.114600   426A      2.120172  
     427A      2.126447   428A      2.146858   429A      2.149521  
     430A      2.153226   431A      2.160444   432A      2.176253  
     433A      2.177380   434A      2.186084   435A      2.193093  
     436A      2.200860   437A      2.210684   438A      2.216804  
     439A      2.220754   440A      2.228030   441A      2.236570  
     442A      2.247586   443A      2.261791   444A      2.269672  
     445A      2.273420   446A      2.280195   447A      2.292030  
     448A      2.315268   449A      2.316982   450A      2.327063  
     451A      2.328485   452A      2.345054   453A      2.362128  
     454A      2.368358   455A      2.385142   456A      2.389724  
     457A      2.393205   458A      2.401595   459A      2.419983  
     460A      2.430076   461A      2.433651   462A      2.449083  
     463A      2.456742   464A      2.469872   465A      2.477311  
     466A      2.481778   467A      2.498048   468A      2.504942  
     469A      2.525843   470A      2.538113   471A      2.543651  
     472A      2.557626   473A      2.569618   474A      2.575649  
     475A      2.584935   476A      2.594106   477A      2.610021  
     478A      2.621496   479A      2.635158   480A      2.653237  
     481A      2.659071   482A      2.694109   483A      2.703091  
     484A      2.727005   485A      2.734457   486A      2.765822  
     487A      2.779245   488A      2.780882   489A      2.802333  
     490A      2.829470   491A      2.838273   492A      2.848659  
     493A      2.854675   494A      2.859962   495A      2.874807  
     496A      2.890022   497A      2.905362   498A      2.908928  
     499A      2.955631   500A      2.970484   501A      3.010129  
     502A      3.023904   503A      3.041798   504A      3.074112  
     505A      3.075348   506A      3.095321   507A      3.110089  
     508A      3.131913   509A      3.151169   510A      3.178075  
     511A      3.205202   512A      3.220219   513A      3.228048  
     514A      3.240413   515A      3.256229   516A      3.264449  
     517A      3.274684   518A      3.299660   519A      3.306441  
     520A      3.308607   521A      3.326966   522A      3.344105  
     523A      3.352912   524A      3.363134   525A      3.369718  
     526A      3.371999   527A      3.383988   528A      3.385417  
     529A      3.398826   530A      3.417996   531A      3.431950  
     532A      3.439412   533A      3.440228   534A      3.450911  
     535A      3.453828   536A      3.470980   537A      3.480056  
     538A      3.493256   539A      3.507610   540A      3.520281  
     541A      3.528426   542A      3.530689   543A      3.537558  
     544A      3.541083   545A      3.553742   546A      3.565230  
     547A      3.570483   548A      3.572644   549A      3.585948  
     550A      3.596727   551A      3.600922   552A      3.615960  
     553A      3.631571   554A      3.645905   555A      3.649477  
     556A      3.658066   557A      3.664743   558A      3.665304  
     559A      3.676712   560A      3.686635   561A      3.692425  
     562A      3.704166   563A      3.721250   564A      3.737285  
     565A      3.753519   566A      3.764944   567A      3.770647  
     568A      3.780295   569A      3.788187   570A      3.797225  
     571A      3.804842   572A      3.809122   573A      3.828489  
     574A      3.830302   575A      3.851820   576A      3.857262  
     577A      3.871024   578A      3.874575   579A      3.878079  
     580A      3.888712   581A      3.889780   582A      3.902414  
     583A      3.917214   584A      3.920287   585A      3.928217  
     586A      3.931891   587A      3.949157   588A      3.953034  
     589A      3.961257   590A      3.963657   591A      3.968598  
     592A      3.976698   593A      3.989700   594A      3.999448  
     595A      4.006089   596A      4.007626   597A      4.024297  
     598A      4.030907   599A      4.036783   600A      4.039438  
     601A      4.055504   602A      4.070488   603A      4.075633  
     604A      4.101010   605A      4.105103   606A      4.118197  
     607A      4.125923   608A      4.140078   609A      4.144738  
     610A      4.155124   611A      4.162571   612A      4.172891  
     613A      4.178113   614A      4.184622   615A      4.197040  
     616A      4.204493   617A      4.218131   618A      4.222205  
     619A      4.224762   620A      4.230315   621A      4.242859  
     622A      4.246506   623A      4.266152   624A      4.271960  
     625A      4.284655   626A      4.299024   627A      4.311086  
     628A      4.312816   629A      4.320086   630A      4.324690  
     631A      4.342173   632A      4.344440   633A      4.349694  
     634A      4.358562   635A      4.376071   636A      4.386252  
     637A      4.393448   638A      4.401376   639A      4.413311  
     640A      4.420143   641A      4.429319   642A      4.440818  
     643A      4.448880   644A      4.457998   645A      4.463279  
     646A      4.468690   647A      4.479878   648A      4.484935  
     649A      4.490662   650A      4.498738   651A      4.517397  
     652A      4.522412   653A      4.540389   654A      4.541745  
     655A      4.557768   656A      4.568734   657A      4.575363  
     658A      4.596761   659A      4.603590   660A      4.621523  
     661A      4.635097   662A      4.641819   663A      4.656187  
     664A      4.665686   665A      4.675869   666A      4.680039  
     667A      4.715478   668A      4.718396   669A      4.737344  
     670A      4.741109   671A      4.765777   672A      4.778295  
     673A      4.798604   674A      4.815738   675A      4.819609  
     676A      4.843927   677A      4.854666   678A      4.874969  
     679A      4.882536   680A      4.883870   681A      4.912683  
     682A      4.925748   683A      4.931003   684A      4.940127  
     685A      4.955259   686A      4.967717   687A      4.983519  
     688A      4.988090   689A      5.017101   690A      5.024041  
     691A      5.034051   692A      5.038577   693A      5.040209  
     694A      5.049261   695A      5.086481   696A      5.098256  
     697A      5.101970   698A      5.108840   699A      5.115818  
     700A      5.140214   701A      5.151082   702A      5.151338  
     703A      5.156233   704A      5.167571   705A      5.171637  
     706A      5.173117   707A      5.195297   708A      5.206138  
     709A      5.229142   710A      5.241173   711A      5.262528  
     712A      5.282911   713A      5.298770   714A      5.299992  
     715A      5.320826   716A      5.341425   717A      5.346583  
     718A      5.357887   719A      5.382950   720A      5.408818  
     721A      5.431220   722A      5.439546   723A      5.446399  
     724A      5.463540   725A      5.469223   726A      5.496991  
     727A      5.516544   728A      5.539516   729A      5.555156  
     730A      5.556301   731A      5.563600   732A      5.615159  
     733A      5.626760   734A      5.694313   735A      5.703724  
     736A      5.722853   737A      5.744321   738A      5.750121  
     739A      5.775997   740A      5.799917   741A      5.809935  
     742A      5.823310   743A      5.831484   744A      5.848439  
     745A      5.897065   746A      5.911271   747A      5.914663  
     748A      5.958626   749A      5.991220   750A      6.086401  
     751A      6.100300   752A      6.130035   753A      6.180769  
     754A      6.185002   755A      6.244300   756A      6.274836  
     757A      6.295794   758A      6.351570   759A      6.394381  
     760A      6.414971   761A      6.460426   762A      6.471435  
     763A      6.491343   764A      6.547335   765A      6.584303  
     766A      6.624649   767A      6.658652   768A      6.721978  
     769A      6.736368   770A      6.746546   771A      6.752142  
     772A      6.891122   773A      6.895337   774A      6.912469  
     775A      6.918069   776A      6.960491   777A      6.963322  
     778A      7.001099   779A      7.059439   780A      7.101448  
     781A      7.132038   782A      7.228568   783A      7.257186  
     784A      7.420671   785A      7.425051   786A      7.460223  
     787A      7.680768   788A      7.716601   789A      7.756978  
     790A      8.013393   791A      8.391161   792A      8.639519  
     793A     15.602975   794A     16.412128   795A     16.713028  
     796A     16.964238   797A     17.260571   798A     18.564521  
     799A     18.889563   800A     19.536175   801A     19.719390  
     802A     20.353164   803A     20.432657   804A     20.781881  
     805A     21.507211  

    Final Occupation by Irrep:
              A 
    DOCC [    45 ]

  Energy converged.

  @DF-RHF Final Energy:  -551.28159838673002

   => Energetics <=

    Nuclear Repulsion Energy =            698.9867365684851848
    One-Electron Energy =               -2134.6170122839180294
    Two-Electron Energy =                 884.3486773287028200
    DFT Exchange-Correlation Energy =       0.0000000000000000
    Empirical Dispersion Energy =           0.0000000000000000
    PCM Polarization Energy =               0.0000000000000000
    EFP Energy =                            0.0000000000000000
    Total Energy =                       -551.2815983867300247



Properties will be evaluated at   0.000000,   0.000000,   0.000000 Bohr

Properties computed using the SCF density matrix

  Nuclear Dipole Moment: (a.u.)
     X:    -0.4758      Y:     0.2198      Z:     1.2107

  Electronic Dipole Moment: (a.u.)
     X:    -0.2208      Y:     0.1321      Z:    -0.1848

  Dipole Moment: (a.u.)
     X:    -0.6966      Y:     0.3519      Z:     1.0259     Total:     1.2890

  Dipole Moment: (Debye)
     X:    -1.7705      Y:     0.8944      Z:     2.6076     Total:     3.2763


*** tstop() called on gpu-1-14.local at Sun Nov 12 11:43:09 2017
Module time:
	user time   =    1154.80 seconds =      19.25 minutes
	system time =      51.34 seconds =       0.86 minutes
	total time  =        480 seconds =       8.00 minutes
Total time:
	user time   =    1154.80 seconds =      19.25 minutes
	system time =      51.34 seconds =       0.86 minutes
	total time  =        480 seconds =       8.00 minutes

  //>>>>>>>>>>>>>>>>>>>>>>>>>>>>>>>>>>>//
  //               DFMP2               //
  //<<<<<<<<<<<<<<<<<<<<<<<<<<<<<<<<<<<//

   => Loading Basis Set <=

    Name: (AUG-CC-PVTZ AUX)
    Role: RIFIT
    Keyword: DF_BASIS_MP2
    atoms 1-11  entry C          line   147 file /cbio/jclab/home/chayas/anaconda/envs/py35/share/psi4/basis/aug-cc-pvtz-ri.gbs 
    atoms 12    entry N          line   205 file /cbio/jclab/home/chayas/anaconda/envs/py35/share/psi4/basis/aug-cc-pvtz-ri.gbs 
    atoms 13    entry O          line   263 file /cbio/jclab/home/chayas/anaconda/envs/py35/share/psi4/basis/aug-cc-pvtz-ri.gbs 
    atoms 14-22 entry H          line    29 file /cbio/jclab/home/chayas/anaconda/envs/py35/share/psi4/basis/aug-cc-pvtz-ri.gbs 

	 --------------------------------------------------------
	                          DF-MP2                         
	      2nd-Order Density-Fitted Moller-Plesset Theory     
	              RMP2 Wavefunction,   8 Threads             
	                                                         
	        Rob Parrish, Justin Turney, Andy Simmonett,      
	           Ed Hohenstein, and C. David Sherrill          
	 --------------------------------------------------------

   => Auxiliary Basis Set <=

  Basis Set: (AUG-CC-PVTZ AUX)
    Blend: AUG-CC-PVTZ-RI
    Number of shells: 490
    Number of basis function: 1792
    Number of Cartesian functions: 2263
    Spherical Harmonics?: true
    Max angular momentum: 4

	 --------------------------------------------------------
	                 NBF =   805, NAUX =  1792
	 --------------------------------------------------------
	   CLASS    FOCC     OCC    AOCC    AVIR     VIR    FVIR
	   PAIRS       0      45      45     760     760       0
	 --------------------------------------------------------


         ------------------------------------------------------------
                                     CPHF                           
                                  Rob Parrish                       
         ------------------------------------------------------------

  ==> Geometry <==

    Molecular point group: c1
    Full point group: C1

    Geometry (in Angstrom), charge = 0, multiplicity = 1:

       Center              X                  Y                   Z               Mass       
    ------------   -----------------  -----------------  -----------------  -----------------
           C         -1.252941960505     0.710669916973    -0.590603646352    12.000000000000
           C         -0.259941960505     0.094669916973     1.523396353648    12.000000000000
           C         -2.330941960505     1.283669916973     0.082396353648    12.000000000000
           C         -1.337941960505     0.667669916973     2.197396353648    12.000000000000
           C          1.769058039495    -1.334330083027     0.102396353648    12.000000000000
           C          1.113058039495    -0.197330083027    -1.913603646352    12.000000000000
           C          2.824058039495    -1.878330083027    -0.611603646352    12.000000000000
           C          2.198058039495    -0.793330083027    -2.537603646352    12.000000000000
           C         -0.216941960505     0.115669916973     0.129396353648    12.000000000000
           C          0.902058039495    -0.478330083027    -0.568603646352    12.000000000000
           C         -2.373941960505     1.262669916973     1.476396353648    12.000000000000
           N          3.062058039495    -1.629330083027    -1.919603646352    14.003074004780
           O         -3.425941960505     1.822669916973     2.133396353648    15.994914619560
           H         -1.233941960505     0.734669916973    -1.677603646352     1.007825032070
           H          0.540058039495    -0.365330083027     2.099396353648     1.007825032070
           H         -3.134941960505     1.745669916973    -0.484603646352     1.007825032070
           H         -1.365941960505     0.648669916973     3.283396353648     1.007825032070
           H          1.635058039495    -1.578330083027     1.151396353648     1.007825032070
           H          0.458058039495     0.464669916973    -2.469603646352     1.007825032070
           H          3.527058039495    -2.553330083027    -0.134603646352     1.007825032070
           H          2.407058039495    -0.605330083027    -3.585603646352     1.007825032070
           H         -3.312941960505     1.728669916973     3.092396353648     1.007825032070

  Nuclear repulsion =  698.986736568485185
  Reference energy  = -551.281598386730025

  ==> Basis Set <==

  Basis Set: AUG-CC-PVTZ
    Blend: AUG-CC-PVTZ
    Number of shells: 263
    Number of basis function: 805
    Number of Cartesian functions: 940
    Spherical Harmonics?: true
    Max angular momentum: 3

  ==> CGRSolver (by Rob Parrish) <==

   Number of roots    =         1
   Preconditioning    =    JACOBI
   Convergence cutoff =     1E-06
   Maximum iterations =       100

  ==> CPHFRHamiltonian (by Rob Parrish) <== 

  ==> DFJK: Density-Fitted J/K Matrices <==

    J tasked:                  Yes
    K tasked:                  Yes
    wK tasked:                  No
    OpenMP threads:              8
    Integrals threads:           8
    Memory (MB):              3576
    Algorithm:                Disk
    Integral Cache:           NONE
    Schwarz Cutoff:          1E-12
    Fitting Condition:       1E-12

   => Auxiliary Basis Set <=

  Basis Set: (AUG-CC-PVTZ AUX)
    Blend: AUG-CC-PVTZ-JKFIT
    Number of shells: 516
    Number of basis function: 1766
    Number of Cartesian functions: 2198
    Spherical Harmonics?: true
    Max angular momentum: 4

  ==> CPHF Iterations <==

  => Iterations <=

             Iter  Converged  Remaining    Residual
  CGR           1          0          1   9.351E-02
  CGR           2          0          1   4.011E-02
  CGR           3          0          1   2.820E-02
  CGR           4          0          1   1.100E-02
  CGR           5          0          1   4.416E-03
  CGR           6          0          1   1.887E-03
  CGR           7          0          1   5.381E-04
  CGR           8          0          1   1.789E-04
  CGR           9          0          1   9.040E-05
  CGR          10          0          1   4.084E-05
  CGR          11          0          1   1.497E-05
  CGR          12          0          1   5.216E-06
  CGR          13          0          1   1.536E-06
  CGR          14          1          0   4.962E-07

    CGRSolver converged.

  ==> DFCorrGrad: Density-Fitted Correlated Gradients <==

    OpenMP threads:              8
    Integrals threads:           8
    Memory (MB):              3576
    Schwarz Cutoff:          0E+00
    Fitting Condition:       1E-12

   => Auxiliary Basis Set <=

  Basis Set: (AUG-CC-PVTZ AUX)
    Blend: AUG-CC-PVTZ-JKFIT
    Number of shells: 516
    Number of basis function: 1766
    Number of Cartesian functions: 2198
    Spherical Harmonics?: true
    Max angular momentum: 4

	-----------------------------------------------------------
	 ==================> DF-MP2 Energies <==================== 
	-----------------------------------------------------------
	 Reference Energy          =    -551.2815983867300247 [Eh]
	 Singles Energy            =      -0.0000000000000000 [Eh]
	 Same-Spin Energy          =      -0.6056768805897023 [Eh]
	 Opposite-Spin Energy      =      -1.8321671131956903 [Eh]
	 Correlation Energy        =      -2.4378439937853926 [Eh]
	 Total Energy              =    -553.7194423805153747 [Eh]
	-----------------------------------------------------------
	 ================> DF-SCS-MP2 Energies <================== 
	-----------------------------------------------------------
	 SCS Same-Spin Scale       =       0.3333333333333333 [-]
	 SCS Opposite-Spin Scale   =       1.2000000000000000 [-]
	 SCS Same-Spin Energy      =      -0.2018922935299007 [Eh]
	 SCS Opposite-Spin Energy  =      -2.1986005358348284 [Eh]
	 SCS Correlation Energy    =      -2.4004928293647292 [Eh]
	 SCS Total Energy          =    -553.6820912160947046 [Eh]
	-----------------------------------------------------------


  -Total Gradient:
     Atom            X                  Y                   Z
    ------   -----------------  -----------------  -----------------
       1        0.009003823631    -0.005575079094    -0.010739240904
       2        0.011283130693    -0.004770682511    -0.005533392188
       3        0.001029253222    -0.000990563736     0.003044261255
       4       -0.007368349426     0.003912413403     0.007276445869
       5       -0.007731060743     0.001693843661     0.009273590377
       6       -0.010412640099     0.007940279598     0.002024097348
       7       -0.005803633369     0.000485853771     0.011450422416
       8       -0.009251332882     0.007449235591    -0.001660119053
       9        0.002534083114    -0.001472993858    -0.002155706554
      10        0.004111350732    -0.001866258508    -0.002968120398
      11       -0.006525066621     0.003881908603    -0.008517008803
      12        0.012617275662    -0.006645568220    -0.008254214562
      13        0.005514981318    -0.003077465677     0.000740677606
      14        0.002312492761     0.000753576865    -0.008340409075
      15        0.005829331835    -0.005219302851     0.003529074838
      16       -0.002564373873     0.001845472081    -0.005216859465
      17        0.000863374371    -0.000733957693     0.003670215282
      18       -0.001100022350     0.000379770146     0.007279630363
      19       -0.005709186606     0.003047880819    -0.002663406378
      20        0.002023210337    -0.001671804075     0.000679087299
      21        0.000979179812     0.000039364286    -0.002536314595
      22       -0.001635821523     0.000594077406     0.009617289322


*** tstop() called on gpu-1-14.local at Sun Nov 12 12:15:37 2017
Module time:
	user time   =    5233.75 seconds =      87.23 minutes
	system time =     107.75 seconds =       1.80 minutes
	total time  =       2428 seconds =      40.47 minutes
Total time:
	user time   =    5233.75 seconds =      87.23 minutes
	system time =     107.75 seconds =       1.80 minutes
	total time  =       2428 seconds =      40.47 minutes

			-----------------------------------------
			 OPTKING 2.0: for geometry optimizations 
			  - R.A. King,  Bethel University        
			-----------------------------------------

	Internal coordinates to be generated automatically.
	Detected frag 1 with atoms:  1 2 3 4 5 6 7 8 9 10 11 12 13 14 15 16 17 18 19 20
	 21 22
	---Fragment 1 Bond Connectivity---
	 1 : 3 9 14
	 2 : 4 9 15
	 3 : 1 11 16
	 4 : 2 11 17
	 5 : 7 10 18
	 6 : 8 10 19
	 7 : 5 12 20
	 8 : 6 12 21
	 9 : 1 2 10
	 10 : 5 6 9
	 11 : 3 4 13
	 12 : 7 8
	 13 : 11 22
	 14 : 1
	 15 : 2
	 16 : 3
	 17 : 4
	 18 : 5
	 19 : 6
	 20 : 7
	 21 : 8
	 22 : 13

	Assuming in current code that numbering for constraints corresponds to unified fragment.
	Fixed dihedral atom list: 
	     1     9    10     5
	---Fragment 1 Geometry and Gradient---
	 C          -2.3677171658        1.3429715140       -1.1160791447
	 C          -0.4912191158        0.1789002161        2.8788019002
	 C          -4.4048419370        2.4257845881        0.1557065427
	 C          -2.5283438871        1.2617132902        4.1524773138
	 C           3.3430352078       -2.5215184278        0.1935010654
	 C           2.1033748647       -0.3728998147       -3.6161868185
	 C           5.3366962780       -3.5495294441       -1.1557633935
	 C           4.1537277188       -1.4991765899       -4.7953759254
	 C          -0.4099608921        0.2185844649        0.2445236710
	 C           1.7046426506       -0.9039128580       -1.0745051698
	 C          -4.4861001607        2.3861003393        2.7899847720
	 N           5.7864510976       -3.0789876370       -3.6275251753
	 O          -6.4740920525        3.4443469737        4.0315348413
	 H          -2.3318123692        1.3883249411       -3.1702114511
	 H           1.0205617905       -0.6903738050        3.9672841528
	 H          -5.9241817478        3.2988380615       -0.9157681746
	 H          -2.5812562188        1.2258084937        6.2047198941
	 H           3.0898119060       -2.9826116042        2.1758237788
	 H           0.8656042476        0.8780988853       -4.6668745484
	 H           6.6651737494       -4.8250945838       -0.2543640281
	 H           4.5486804806       -1.1439080769       -6.7758089127
	 H          -6.2605529995        3.2667127172        5.8437822027
	             0.0090038236       -0.0055750791       -0.0107392409
	             0.0112831307       -0.0047706825       -0.0055333922
	             0.0010292532       -0.0009905637        0.0030442613
	            -0.0073683494        0.0039124134        0.0072764459
	            -0.0077310607        0.0016938437        0.0092735904
	            -0.0104126401        0.0079402796        0.0020240973
	            -0.0058036334        0.0004858538        0.0114504224
	            -0.0092513329        0.0074492356       -0.0016601191
	             0.0025340831       -0.0014729939       -0.0021557066
	             0.0041113507       -0.0018662585       -0.0029681204
	            -0.0065250666        0.0038819086       -0.0085170088
	             0.0126172757       -0.0066455682       -0.0082542146
	             0.0055149813       -0.0030774657        0.0007406776
	             0.0023124928        0.0007535769       -0.0083404091
	             0.0058293318       -0.0052193029        0.0035290748
	            -0.0025643739        0.0018454721       -0.0052168595
	             0.0008633744       -0.0007339577        0.0036702153
	            -0.0011000224        0.0003797701        0.0072796304
	            -0.0057091866        0.0030478808       -0.0026634064
	             0.0020232103       -0.0016718041        0.0006790873
	             0.0009791798        0.0000393643       -0.0025363146
	            -0.0016358215        0.0005940774        0.0096172893

	Previous optimization step data not found.  Starting new optimization.

	---Fragment 1 Intrafragment Coordinates---
	 - Coordinate -           - BOHR/RAD -       - ANG/DEG -
	 R(1,3)           =         2.634350	       1.394038
	 R(1,9)           =         2.635962	       1.394891
	 R(1,14)          =         2.054947	       1.087431
	 R(2,4)           =         2.635263	       1.394521
	 R(2,9)           =         2.635830	       1.394821
	 R(2,15)          =         2.055702	       1.087831
	 R(3,11)          =         2.635830	       1.394821
	 R(3,16)          =         2.053941	       1.086899
	 R(4,11)          =         2.636938	       1.395407
	 R(4,17)          =         2.053239	       1.086527
	 R(5,7)           =         2.617634	       1.385192
	 R(5,10)          =         2.628463	       1.390923
	 R(5,18)          =         2.050934	       1.085308
	 R(6,8)           =         2.619720	       1.386296
	 R(6,10)          =         2.626996	       1.390146
	 R(6,19)          =         2.049639	       1.084622
	 R(7,12)          =         2.556031	       1.352593
	 R(7,20)          =         2.050473	       1.085064
	 R(8,12)          =         2.554499	       1.351783
	 R(8,21)          =         2.050443	       1.085048
	 R(9,10)          =         2.733384	       1.446444
	 R(11,13)         =         2.571662	       1.360865
	 R(13,22)         =         1.833410	       0.970199
	 B(1,3,11)        =         2.094553	     120.009056
	 B(1,3,16)        =         2.088505	     119.662516
	 B(1,9,2)         =         2.093692	     119.959722
	 B(1,9,10)        =         2.095161	     120.043881
	 B(2,4,11)        =         2.093699	     119.960108
	 B(2,4,17)        =         2.089577	     119.723926
	 B(2,9,10)        =         2.094332	     119.996376
	 B(3,1,9)         =         2.094940	     120.031219
	 B(3,1,14)        =         2.079469	     119.144799
	 B(3,11,4)        =         2.094306	     119.994870
	 B(3,11,13)       =         2.094549	     120.008801
	 B(4,2,9)         =         2.095181	     120.045019
	 B(4,2,15)        =         2.078675	     119.099297
	 B(4,11,13)       =         2.094331	     119.996326
	 B(5,7,12)        =         2.165394	     124.067945
	 B(5,7,20)        =         2.107332	     120.741241
	 B(5,10,6)        =         2.090399	     119.771048
	 B(5,10,9)        =         2.096884	     120.142587
	 B(6,8,12)        =         2.165595	     124.079430
	 B(6,8,21)        =         2.107163	     120.731523
	 B(6,10,9)        =         2.095901	     120.086254
	 B(7,5,10)        =         2.057565	     117.889802
	 B(7,5,18)        =         2.098964	     120.261758
	 B(7,12,8)        =         2.030281	     116.326542
	 B(8,6,10)        =         2.057136	     117.865218
	 B(8,6,19)        =         2.099378	     120.285505
	 B(9,1,14)        =         2.108776	     120.823969
	 B(9,2,15)        =         2.109330	     120.855683
	 B(10,5,18)       =         2.126656	     121.848398
	 B(10,6,19)       =         2.126671	     121.849275
	 B(11,3,16)       =         2.100127	     120.328425
	 B(11,4,17)       =         2.099910	     120.315955
	 B(11,13,22)      =         1.925489	     110.322421
	 B(12,7,20)       =         2.010455	     115.190598
	 B(12,8,21)       =         2.010427	     115.188980
	 D(1,3,11,4)      =        -0.000325	      -0.018609
	 D(1,3,11,13)     =         3.140978	     179.964785
	 D(1,9,2,4)       =         0.000325	       0.018608
	 D(1,9,2,15)      =        -3.141497	    -179.994534
	 D(1,9,10,5)      =        -2.879683	    -164.993694
	 D(1,9,10,6)      =         0.259785	      14.884598
	 D(2,4,11,3)      =         0.000301	       0.017261
	 D(2,4,11,13)     =        -3.141002	    -179.966135
	 D(2,9,1,3)       =        -0.000348	      -0.019945
	 D(2,9,1,14)      =        -3.141221	    -179.978731
	 D(2,9,10,5)      =         0.262826	      15.058809
	 D(2,9,10,6)      =        -2.880891	    -165.062899
	 D(3,1,9,10)      =        -3.141025	    -179.967461
	 D(3,11,4,17)     =         3.141223	     179.978848
	 D(3,11,13,22)    =         3.140828	     179.956172
	 D(4,2,9,10)      =         3.141002	     179.966149
	 D(4,11,3,16)     =         3.141593	     180.000000
	 D(4,11,13,22)    =        -0.001055	      -0.060434
	 D(5,7,12,8)      =         0.000436	       0.024968
	 D(5,10,6,8)      =        -0.000238	      -0.013646
	 D(5,10,6,19)     =         3.141077	     179.970430
	 D(6,8,12,7)      =         0.000073	       0.004178
	 D(6,10,5,7)      =         0.000694	       0.039738
	 D(6,10,5,18)     =        -3.139616	    -179.886767
	 D(7,5,10,9)      =         3.140169	     179.918415
	 D(7,12,8,21)     =         3.140033	     179.910641
	 D(8,6,10,9)      =        -3.139715	    -179.892393
	 D(8,12,7,20)     =         3.139084	     179.856261
	 D(9,1,3,11)      =         0.000348	       0.019955
	 D(9,1,3,16)      =        -3.141571	    -179.998735
	 D(9,2,4,11)      =        -0.000301	      -0.017270
	 D(9,2,4,17)      =        -3.141228	    -179.979086
	 D(9,10,5,18)     =        -0.000141	      -0.008090
	 D(9,10,6,19)     =         0.001600	       0.091684
	 D(10,5,7,12)     =        -0.000821	      -0.047047
	 D(10,5,7,20)     =        -3.139314	    -179.869426
	 D(10,6,8,12)     =        -0.000162	      -0.009265
	 D(10,6,8,21)     =        -3.140036	    -179.910794
	 D(10,9,1,14)     =         0.001287	       0.073752
	 D(10,9,2,15)     =        -0.000820	      -0.046992
	 D(11,3,1,14)     =         3.141234	     179.979432
	 D(11,4,2,15)     =         3.141517	     179.995641
	 D(12,7,5,18)     =         3.139510	     179.880673
	 D(12,8,6,19)     =        -3.141481	    -179.993601
	 D(13,11,3,16)    =        -0.000286	      -0.016400
	 D(13,11,4,17)    =        -0.000079	      -0.004548
	 D(14,1,3,16)     =        -0.000685	      -0.039257
	 D(15,2,4,17)     =         0.000590	       0.033826
	 D(18,5,7,20)     =         0.001017	       0.058294
	 D(19,6,8,21)     =         0.001830	       0.104870

	Current energy   :      -553.7194423805

	Generating empirical Hessian (Schlegel '84) for each fragment.
	Adding user-defined constraint: Fragment 1; Coordinate 63:
		Value =    -2.879683; Fixed value    =    -2.879793
		Force =    -0.000055; Force constant =     0.500000
	Removing off-diagonal coupling between coordinate 63 and others.
	Taking RFO optimization step.
	Going to follow RFO solution 1.
	Using RFO vector 1.

	Determining step-restricting scale parameter for RS-RFO.
	Maximum step size allowed    0.10000

	 Iter      |step|        alpha        rfo_root  
	------------------------------------------------
	    0     0.24314       1.00000           1
	    1     0.18502       4.55278           1
	    2     0.14135      15.44983           1
	    3     0.11382      32.95497           1
	    4     0.10234      45.73011           1
	    5     0.10009      48.84892           1
	    6     0.10000      48.97408           1
	------------------------------------------------
	Norm of target step-size    0.10000
	Projected energy change by RFO approximation:        -0.0059446211

	Back-transformation to cartesian coordinates...
	Could not converge backtransformation.
	Using first guess instead.

	--- Internal Coordinate Step in ANG or DEG, aJ/ANG or AJ/DEG ---
	 ---------------------------------------------------------------------------
	   Coordinate                Previous        Force       Change         New 
	   ----------                --------       ------       ------       ------
	    1 R(1,3)          =      1.394038    -0.063054    -0.005358     1.388680
	    2 R(1,9)          =      1.394891     0.018829     0.001916     1.396807
	    3 R(1,14)         =      1.087431    -0.069157    -0.006816     1.080614
	    4 R(2,4)          =      1.394521    -0.065626    -0.005531     1.388990
	    5 R(2,9)          =      1.394821     0.007047     0.000853     1.395675
	    6 R(2,15)         =      1.087831    -0.068897    -0.006835     1.080996
	    7 R(3,11)         =      1.394821    -0.094486    -0.008168     1.386653
	    8 R(3,16)         =      1.086899    -0.044512    -0.004414     1.082485
	    9 R(4,11)         =      1.395407    -0.048729    -0.004258     1.391150
	   10 R(4,17)         =      1.086527    -0.030146    -0.002995     1.083532
	   11 R(5,7)          =      1.385192    -0.001882    -0.000166     1.385026
	   12 R(5,10)         =      1.390923     0.023918     0.002621     1.393544
	   13 R(5,18)         =      1.085308    -0.058384    -0.005683     1.079625
	   14 R(6,8)          =      1.386296    -0.007236    -0.000615     1.385681
	   15 R(6,10)         =      1.390146     0.028268     0.002887     1.393033
	   16 R(6,19)         =      1.084622    -0.054980    -0.005386     1.079236
	   17 R(7,12)         =      1.352593    -0.137512    -0.010831     1.341762
	   18 R(7,20)         =      1.085064    -0.021827    -0.002164     1.082900
	   19 R(8,12)         =      1.351783    -0.134259    -0.010556     1.341227
	   20 R(8,21)         =      1.085048    -0.021793    -0.002147     1.082901
	   21 R(9,10)         =      1.446444     0.216147     0.020413     1.466857
	   22 R(11,13)        =      1.360865    -0.008074    -0.000372     1.360493
	   23 R(13,22)        =      0.970199    -0.076276    -0.005902     0.964297
	   24 B(1,3,11)       =    120.009056     0.000038     0.005927   120.014984
	   25 B(1,3,16)       =    119.662516     0.000202     0.364658   120.027174
	   26 B(1,9,2)        =    119.959722    -0.001141    -1.551080   118.408642
	   27 B(1,9,10)       =    120.043881     0.000585     0.796598   120.840479
	   28 B(2,4,11)       =    119.960108     0.000183     0.232736   120.192845
	   29 B(2,4,17)       =    119.723926    -0.000001     0.034957   119.758883
	   30 B(2,9,10)       =    119.996376     0.000556     0.754324   120.750700
	   31 B(3,1,9)        =    120.031219     0.000655     0.961283   120.992502
	   32 B(3,1,14)       =    119.144799    -0.000455    -0.696338   118.448462
	   33 B(3,11,4)       =    119.994870    -0.000186    -0.323259   119.671612
	   34 B(3,11,13)      =    120.008801    -0.000794    -1.068105   118.940696
	   35 B(4,2,9)        =    120.045019     0.000451     0.674356   120.719375
	   36 B(4,2,15)       =    119.099297    -0.000304    -0.471331   118.627966
	   37 B(4,11,13)      =    119.996326     0.000980     1.391359   121.387685
	   38 B(5,7,12)       =    124.067945     0.000097     0.076784   124.144729
	   39 B(5,7,20)       =    120.741241    -0.000093    -0.113112   120.628129
	   40 B(5,10,6)       =    119.771048    -0.001571    -2.083874   117.687173
	   41 B(5,10,9)       =    120.142587     0.000778     1.033133   121.175720
	   42 B(6,8,12)       =    124.079430     0.000098     0.079322   124.158752
	   43 B(6,8,21)       =    120.731523    -0.000098    -0.120828   120.610695
	   44 B(6,10,9)       =    120.086254     0.000793     1.050852   121.137106
	   45 B(7,5,10)       =    117.889802     0.000689     1.051602   118.941405
	   46 B(7,5,18)       =    120.261758    -0.000450    -0.706570   119.555188
	   47 B(7,12,8)       =    116.326542    -0.000007    -0.181489   116.145053
	   48 B(8,6,10)       =    117.865218     0.000694     1.057663   118.922881
	   49 B(8,6,19)       =    120.285505    -0.000457    -0.715531   119.569974
	   50 B(9,1,14)       =    120.823969    -0.000201    -0.265237   120.558732
	   51 B(9,2,15)       =    120.855683    -0.000147    -0.203192   120.652491
	   52 B(10,5,18)      =    121.848398    -0.000239    -0.345374   121.503024
	   53 B(10,6,19)      =    121.849275    -0.000237    -0.342263   121.507012
	   54 B(11,3,16)      =    120.328425    -0.000239    -0.370584   119.957841
	   55 B(11,4,17)      =    120.315955    -0.000183    -0.267720   120.048235
	   56 B(11,13,22)     =    110.322421    -0.000437    -0.723972   109.598448
	   57 B(12,7,20)      =    115.190598    -0.000004     0.036271   115.226869
	   58 B(12,8,21)      =    115.188980    -0.000000     0.041428   115.230408
	   59 D(1,3,11,4)     =     -0.018609    -0.000001    -0.006047    -0.024655
	   60 D(1,3,11,13)    =    179.964785    -0.000001    -0.018744   179.946041
	   61 D(1,9,2,4)      =      0.018608     0.000001     0.024778     0.043386
	   62 D(1,9,2,15)     =   -179.994534     0.000017     0.189011  -179.805522
	   63 D(1,9,10,5)     =   -164.993694     0.000023     0.153950  -164.839744
	   64 D(1,9,10,6)     =     14.884598     0.000030     0.268156    15.152755
	   65 D(2,4,11,3)     =      0.017261    -0.000002    -0.025743    -0.008482
	   66 D(2,4,11,13)    =   -179.966135    -0.000002    -0.012307  -179.978442
	   67 D(2,9,1,3)      =     -0.019945    -0.000004    -0.057061    -0.077006
	   68 D(2,9,1,14)     =   -179.978731     0.000011     0.105579  -179.873152
	   69 D(2,9,10,5)     =     15.058809     0.000030     0.257892    15.316701
	   70 D(2,9,10,6)     =   -165.062899     0.000037     0.372099  -164.690800
	   71 D(3,1,9,10)     =   -179.967461     0.000002     0.043312  -179.924150
	   72 D(3,11,4,17)    =    179.978848    -0.000005    -0.057617   179.921231
	   73 D(3,11,13,22)   =    179.956172     0.000000     0.004684   179.960856
	   74 D(4,2,9,10)     =    179.966149    -0.000005    -0.075477   179.890672
	   75 D(4,11,3,16)    =    180.000000    -0.000004    -0.035070   179.964930
	   76 D(4,11,13,22)   =     -0.060434    -0.000000    -0.008535    -0.068970
	   77 D(5,7,12,8)     =      0.024968    -0.000001    -0.004626     0.020343
	   78 D(5,10,6,8)     =     -0.013646     0.000002     0.037488     0.023841
	   79 D(5,10,6,19)    =    179.970430     0.000017     0.186225   180.156655
	   80 D(6,8,12,7)     =      0.004178    -0.000002    -0.020944    -0.016766
	   81 D(6,10,5,7)     =      0.039738    -0.000004    -0.060352    -0.020614
	   82 D(6,10,5,18)    =   -179.886767     0.000010     0.092305  -179.794462
	   83 D(7,5,10,9)     =    179.918415     0.000003     0.053720   179.972135
	   84 D(7,12,8,21)    =    179.910641    -0.000006    -0.065352   179.845289
	   85 D(8,6,10,9)     =   -179.892393    -0.000005    -0.076518  -179.968911
	   86 D(8,12,7,20)    =    179.856261    -0.000003    -0.025605   179.830656
	   87 D(9,1,3,11)     =      0.019955     0.000004     0.048471     0.068426
	   88 D(9,1,3,16)     =   -179.998735     0.000007     0.077583  -179.921152
	   89 D(9,2,4,11)     =     -0.017270     0.000002     0.015907    -0.001363
	   90 D(9,2,4,17)     =   -179.979086     0.000005     0.047806  -179.931280
	   91 D(9,10,5,18)    =     -0.008090     0.000018     0.206377     0.198287
	   92 D(9,10,6,19)    =      0.091684     0.000009     0.072219     0.163903
	   93 D(10,5,7,12)    =     -0.047047     0.000004     0.045232    -0.001816
	   94 D(10,5,7,20)    =   -179.869426     0.000006     0.067026  -179.802400
	   95 D(10,6,8,12)    =     -0.009265     0.000001     0.004072    -0.005193
	   96 D(10,6,8,21)    =   -179.910794     0.000005     0.050591  -179.860203
	   97 D(10,9,1,14)    =      0.073752     0.000017     0.205952     0.279705
	   98 D(10,9,2,15)    =     -0.046992     0.000011     0.088756     0.041764
	   99 D(11,3,1,14)    =    179.979432    -0.000011    -0.110655   179.868777
	  100 D(11,4,2,15)    =    179.995641    -0.000013    -0.145088   179.850553
	  101 D(12,7,5,18)    =    179.880673    -0.000011    -0.104151   179.776522
	  102 D(12,8,6,19)    =   -179.993601    -0.000013    -0.141783  -180.135384
	  103 D(13,11,3,16)   =     -0.016400    -0.000004    -0.047974    -0.064373
	  104 D(13,11,4,17)   =     -0.004548    -0.000004    -0.044181    -0.048729
	  105 D(14,1,3,16)    =     -0.039257    -0.000008    -0.081544    -0.120801
	  106 D(15,2,4,17)    =      0.033826    -0.000011    -0.113189    -0.079364
	  107 D(18,5,7,20)    =      0.058294    -0.000008    -0.082356    -0.024062
	  108 D(19,6,8,21)    =      0.104870    -0.000009    -0.095264     0.009606
	 ---------------------------------------------------------------------------
	Successfully symmetrized geometry.
	 Forces used to impose fixed constraints are not included.
	  Forces zeroed: 63 

  ==> Convergence Check <==

  Measures of convergence in internal coordinates in au.
  Criteria marked as inactive (o), active & met (*), and active & unmet ( ).
  --------------------------------------------------------------------------------------------- ~
   Step     Total Energy     Delta E     MAX Force     RMS Force      MAX Disp      RMS Disp    ~
  --------------------------------------------------------------------------------------------- ~
    Convergence Criteria    1.00e-06 *    3.00e-04 *             o    1.20e-03 *             o  ~
  --------------------------------------------------------------------------------------------- ~
      1    -553.71944238   -5.54e+02      2.62e-02      5.85e-03 o    3.86e-02      9.61e-03 o  ~
  ---------------------------------------------------------------------------------------------

	Writing optimization data to binary file.
	Structure for next step:
	Cartesian Geometry (in Angstrom)
	    C    -1.2732941494   0.7167709145  -0.5629756229
	    C    -0.2797422669   0.1068812937   1.5334095114
	    C    -2.3472357754   1.2885141370   0.1064947536
	    C    -1.3523833797   0.6786218144   2.2056053126
	    C     1.7908691024  -1.3465292926   0.0764974339
	    C     1.1405963892  -0.2131229697  -1.9182516275
	    C     2.8453748424  -1.8888266971  -0.6392043161
	    C     2.2248692560  -0.8068403835  -2.5443212960
	    C    -0.2248998048   0.1172902656   0.1388516959
	    C     0.9087012096  -0.4841919979  -0.5716676300
	    C    -2.3894582609   1.2711639214   1.4923963363
	    N     3.0829754851  -1.6389266726  -1.9359009626
	    O    -3.4513745272   1.8386209134   2.1258535685
	    H    -1.2673154015   0.7426405732  -1.6432638126
	    H     0.5134409592  -0.3444731030   2.1127985973
	    H    -3.1519873711   1.7478415405  -0.4531177255
	    H    -1.3785183231   0.6627525792   3.2887059180
	    H     1.6672953275  -1.6015917314   1.1182566188
	    H     0.4977593459   0.4476447510  -2.4794082474
	    H     3.5453248856  -2.5644978103  -0.1635882956
	    H     2.4319446439  -0.6134856685  -3.5895045822
	    H    -3.3436653180   1.7504817961   3.0800541525
			--------------------------
			 OPTKING Finished Execution 
			--------------------------

    Structure for next step:
    Molecular point group: c1
    Full point group: C1

    Geometry (in Angstrom), charge = 0, multiplicity = 1:

    C           -1.273282089353     0.716978803458    -0.562842192060
    C           -0.279730206809     0.107089182662     1.533542942210
    C           -2.347223715338     1.288722025927     0.106628184409
    C           -1.352371319620     0.678829703309     2.205738743410
    C            1.790881162441    -1.346321403697     0.076630864722
    C            1.140608449284    -0.212915080774    -1.918118196720
    C            2.845386902499    -1.888618808192    -0.639070885243
    C            2.224881316039    -0.806632494542    -2.544187865139
    C           -0.224887744791     0.117498154571     0.138985126694
    C            0.908713269672    -0.483984108971    -0.571534199214
    C           -2.389446200852     1.271371810311     1.492529767093
    N            3.082987545194    -1.638718783652    -1.935767531781
    O           -3.451362467139     1.838828802322     2.125986999269
    H           -1.267303341485     0.742848462079    -1.643130381812
    H            0.513453019277    -0.344265214061     2.112932028142
    H           -3.151975311047     1.748049429439    -0.452984294711
    H           -1.378506263002     0.662960468080     3.288839348769
    H            1.667307387532    -1.601383842442     1.118390049658
    H            0.497771405967     0.447852639950    -2.479274816541
    H            3.545336945669    -2.564289921410    -0.163454864831
    H            2.431956703950    -0.613277779580    -3.589371151351
    H           -3.343653257988     1.750689685000     3.080187583274

gradient() will perform analytic gradient computation.

*** tstart() called on gpu-1-14.local
*** at Sun Nov 12 12:15:38 2017

    SCF Algorithm Type (re)set to DF.

*** tstart() called on gpu-1-14.local
*** at Sun Nov 12 12:15:38 2017

   => Loading Basis Set <=

    Name: AUG-CC-PVTZ
    Role: ORBITAL
    Keyword: BASIS
    atoms 1-11  entry C          line   221 file /cbio/jclab/home/chayas/anaconda/envs/py35/share/psi4/basis/aug-cc-pvtz.gbs 
    atoms 12    entry N          line   267 file /cbio/jclab/home/chayas/anaconda/envs/py35/share/psi4/basis/aug-cc-pvtz.gbs 
    atoms 13    entry O          line   313 file /cbio/jclab/home/chayas/anaconda/envs/py35/share/psi4/basis/aug-cc-pvtz.gbs 
    atoms 14-22 entry H          line    34 file /cbio/jclab/home/chayas/anaconda/envs/py35/share/psi4/basis/aug-cc-pvtz.gbs 


         ---------------------------------------------------------
                                   SCF
            by Justin Turney, Rob Parrish, and Andy Simmonett
                              RHF Reference
                        8 Threads,   4768 MiB Core
         ---------------------------------------------------------

  ==> Geometry <==

    Molecular point group: c1
    Full point group: C1

    Geometry (in Angstrom), charge = 0, multiplicity = 1:

       Center              X                  Y                   Z               Mass       
    ------------   -----------------  -----------------  -----------------  -----------------
           C         -1.273282089353     0.716978803458    -0.562842192060    12.000000000000
           C         -0.279730206809     0.107089182662     1.533542942210    12.000000000000
           C         -2.347223715338     1.288722025927     0.106628184409    12.000000000000
           C         -1.352371319620     0.678829703309     2.205738743410    12.000000000000
           C          1.790881162441    -1.346321403697     0.076630864722    12.000000000000
           C          1.140608449284    -0.212915080774    -1.918118196720    12.000000000000
           C          2.845386902499    -1.888618808192    -0.639070885243    12.000000000000
           C          2.224881316039    -0.806632494542    -2.544187865139    12.000000000000
           C         -0.224887744791     0.117498154571     0.138985126694    12.000000000000
           C          0.908713269672    -0.483984108971    -0.571534199214    12.000000000000
           C         -2.389446200852     1.271371810311     1.492529767093    12.000000000000
           N          3.082987545194    -1.638718783652    -1.935767531781    14.003074004780
           O         -3.451362467139     1.838828802322     2.125986999269    15.994914619560
           H         -1.267303341485     0.742848462079    -1.643130381812     1.007825032070
           H          0.513453019277    -0.344265214061     2.112932028142     1.007825032070
           H         -3.151975311047     1.748049429439    -0.452984294711     1.007825032070
           H         -1.378506263002     0.662960468080     3.288839348769     1.007825032070
           H          1.667307387532    -1.601383842442     1.118390049658     1.007825032070
           H          0.497771405967     0.447852639950    -2.479274816541     1.007825032070
           H          3.545336945669    -2.564289921410    -0.163454864831     1.007825032070
           H          2.431956703950    -0.613277779580    -3.589371151351     1.007825032070
           H         -3.343653257988     1.750689685000     3.080187583274     1.007825032070

  Running in c1 symmetry.

  Rotational constants: A =      0.09832  B =      0.01341  C =      0.01185 [cm^-1]
  Rotational constants: A =   2947.54379  B =    401.97277  C =    355.23577 [MHz]
  Nuclear repulsion =  697.558567119223426

  Charge       = 0
  Multiplicity = 1
  Electrons    = 90
  Nalpha       = 45
  Nbeta        = 45

  ==> Algorithm <==

  SCF Algorithm Type is DF.
  DIIS enabled.
  MOM disabled.
  Fractional occupation disabled.
  Guess Type is READ.
  Energy threshold   = 1.00e-10
  Density threshold  = 1.00e-10
  Integral threshold = 0.00e+00

  ==> Primary Basis <==

  Basis Set: AUG-CC-PVTZ
    Blend: AUG-CC-PVTZ
    Number of shells: 263
    Number of basis function: 805
    Number of Cartesian functions: 940
    Spherical Harmonics?: true
    Max angular momentum: 3

   => Loading Basis Set <=

    Name: (AUG-CC-PVTZ AUX)
    Role: JKFIT
    Keyword: DF_BASIS_SCF
    atoms 1-11  entry C          line   161 file /cbio/jclab/home/chayas/anaconda/envs/py35/share/psi4/basis/aug-cc-pvtz-jkfit.gbs 
    atoms 12    entry N          line   223 file /cbio/jclab/home/chayas/anaconda/envs/py35/share/psi4/basis/aug-cc-pvtz-jkfit.gbs 
    atoms 13    entry O          line   285 file /cbio/jclab/home/chayas/anaconda/envs/py35/share/psi4/basis/aug-cc-pvtz-jkfit.gbs 
    atoms 14-22 entry H          line    69 file /cbio/jclab/home/chayas/anaconda/envs/py35/share/psi4/basis/aug-cc-pvtz-jkfit.gbs 

  Reading orbitals from file 180, no projection.

  ==> Pre-Iterations <==

   -------------------------------------------------------
    Irrep   Nso     Nmo     Nalpha   Nbeta   Ndocc  Nsocc
   -------------------------------------------------------
     A        805     805       0       0       0       0
   -------------------------------------------------------
    Total     805     805      45      45      45       0
   -------------------------------------------------------

  ==> Integral Setup <==

  ==> DFJK: Density-Fitted J/K Matrices <==

    J tasked:                  Yes
    K tasked:                  Yes
    wK tasked:                  No
    OpenMP threads:              8
    Integrals threads:           8
    Memory (MB):              3576
    Algorithm:                Disk
    Integral Cache:           NONE
    Schwarz Cutoff:          1E-12
    Fitting Condition:       1E-12

   => Auxiliary Basis Set <=

  Basis Set: (AUG-CC-PVTZ AUX)
    Blend: AUG-CC-PVTZ-JKFIT
    Number of shells: 516
    Number of basis function: 1766
    Number of Cartesian functions: 2198
    Spherical Harmonics?: true
    Max angular momentum: 4

  Minimum eigenvalue in the overlap matrix is 5.1092352630E-07.
  Using Symmetric Orthogonalization.

  SCF Guess: Orbitals guess was supplied from a previous computation.

  ==> Iterations <==

                           Total Energy        Delta E     RMS |[F,P]|

   @DF-RHF iter   0:  -551.44994379624018   -5.51450e+02   4.18699e-04 
   @DF-RHF iter   1:  -551.28637346155710    1.63570e-01   1.61393e-04 
   @DF-RHF iter   2:  -551.28764835900859   -1.27490e-03   9.39812e-05 DIIS
   @DF-RHF iter   3:  -551.28889455433443   -1.24620e-03   1.43228e-05 DIIS
   @DF-RHF iter   4:  -551.28891249254548   -1.79382e-05   3.54198e-06 DIIS
   @DF-RHF iter   5:  -551.28891473082524   -2.23828e-06   9.33472e-07 DIIS
   @DF-RHF iter   6:  -551.28891502680756   -2.95982e-07   8.86190e-07 DIIS
   @DF-RHF iter   7:  -551.28891513331166   -1.06504e-07   2.53236e-07 DIIS
   @DF-RHF iter   8:  -551.28891516928968   -3.59780e-08   1.18011e-07 DIIS
   @DF-RHF iter   9:  -551.28891517569377   -6.40409e-09   5.38900e-08 DIIS
   @DF-RHF iter  10:  -551.28891517632724   -6.33463e-10   2.00593e-08 DIIS
   @DF-RHF iter  11:  -551.28891517641716   -8.99263e-11   5.78474e-09 DIIS
   @DF-RHF iter  12:  -551.28891517644638   -2.92175e-11   2.38116e-09 DIIS
   @DF-RHF iter  13:  -551.28891517643490    1.14824e-11   1.24741e-09 DIIS
   @DF-RHF iter  14:  -551.28891517643751   -2.61480e-12   5.97954e-10 DIIS
   @DF-RHF iter  15:  -551.28891517643638    1.13687e-12   2.24387e-10 DIIS
   @DF-RHF iter  16:  -551.28891517644274   -6.36646e-12   8.04276e-11 DIIS

  ==> Post-Iterations <==

    Orbital Energies (a.u.)
    -----------------------

    Doubly Occupied:                                                      

       1A    -20.602805     2A    -15.558987     3A    -11.315681  
       4A    -11.271803     5A    -11.271742     6A    -11.266939  
       7A    -11.255188     8A    -11.253440     9A    -11.247938  
      10A    -11.245368    11A    -11.240083    12A    -11.235081  
      13A    -11.234827    14A     -1.419833    15A     -1.253106  
      16A     -1.174849    17A     -1.104483    18A     -1.040661  
      19A     -1.029045    20A     -1.012284    21A     -0.883061  
      22A     -0.875071    23A     -0.839976    24A     -0.812677  
      25A     -0.752403    26A     -0.725889    27A     -0.686417  
      28A     -0.667804    29A     -0.649805    30A     -0.633642  
      31A     -0.615015    32A     -0.609281    33A     -0.604633  
      34A     -0.589660    35A     -0.577143    36A     -0.547874  
      37A     -0.532997    38A     -0.525627    39A     -0.501774  
      40A     -0.494803    41A     -0.416908    42A     -0.400579  
      43A     -0.358003    44A     -0.347043    45A     -0.305313  

    Virtual:                                                              

      46A      0.021097    47A      0.029476    48A      0.032044  
      49A      0.040177    50A      0.043021    51A      0.047356  
      52A      0.057814    53A      0.059473    54A      0.066271  
      55A      0.075095    56A      0.077554    57A      0.083565  
      58A      0.086778    59A      0.090548    60A      0.095830  
      61A      0.101495    62A      0.103111    63A      0.108995  
      64A      0.110191    65A      0.111381    66A      0.115841  
      67A      0.120297    68A      0.126594    69A      0.128409  
      70A      0.133155    71A      0.135288    72A      0.138780  
      73A      0.139184    74A      0.143577    75A      0.144747  
      76A      0.148906    77A      0.150415    78A      0.155366  
      79A      0.164101    80A      0.167087    81A      0.170584  
      82A      0.172102    83A      0.179367    84A      0.182622  
      85A      0.186987    86A      0.189910    87A      0.197445  
      88A      0.201451    89A      0.209198    90A      0.215083  
      91A      0.220093    92A      0.226261    93A      0.229396  
      94A      0.236259    95A      0.237884    96A      0.248191  
      97A      0.249824    98A      0.252160    99A      0.254585  
     100A      0.258332   101A      0.259837   102A      0.264778  
     103A      0.267515   104A      0.270713   105A      0.274971  
     106A      0.280332   107A      0.289117   108A      0.290929  
     109A      0.293627   110A      0.298134   111A      0.301993  
     112A      0.305815   113A      0.308173   114A      0.311553  
     115A      0.318283   116A      0.320801   117A      0.328215  
     118A      0.328520   119A      0.331114   120A      0.336035  
     121A      0.342778   122A      0.345549   123A      0.352842  
     124A      0.359034   125A      0.364089   126A      0.367939  
     127A      0.373555   128A      0.381512   129A      0.384075  
     130A      0.394091   131A      0.396510   132A      0.400401  
     133A      0.406400   134A      0.412390   135A      0.417432  
     136A      0.421183   137A      0.422759   138A      0.429737  
     139A      0.431448   140A      0.435800   141A      0.438374  
     142A      0.439513   143A      0.444140   144A      0.447433  
     145A      0.449857   146A      0.450367   147A      0.457905  
     148A      0.464330   149A      0.465595   150A      0.468741  
     151A      0.474096   152A      0.477921   153A      0.486594  
     154A      0.487859   155A      0.493056   156A      0.496243  
     157A      0.500352   158A      0.500775   159A      0.503579  
     160A      0.506132   161A      0.508930   162A      0.510415  
     163A      0.513522   164A      0.517119   165A      0.519357  
     166A      0.522428   167A      0.526448   168A      0.531549  
     169A      0.538513   170A      0.543512   171A      0.549842  
     172A      0.551429   173A      0.555747   174A      0.562856  
     175A      0.567815   176A      0.569521   177A      0.571206  
     178A      0.579444   179A      0.588147   180A      0.593123  
     181A      0.594309   182A      0.601784   183A      0.609895  
     184A      0.614725   185A      0.621647   186A      0.630979  
     187A      0.634899   188A      0.639865   189A      0.648960  
     190A      0.657023   191A      0.659366   192A      0.660061  
     193A      0.680525   194A      0.686868   195A      0.690179  
     196A      0.694378   197A      0.699442   198A      0.700694  
     199A      0.705166   200A      0.707689   201A      0.708069  
     202A      0.716074   203A      0.722258   204A      0.727123  
     205A      0.736622   206A      0.740930   207A      0.747067  
     208A      0.749501   209A      0.755271   210A      0.768501  
     211A      0.771818   212A      0.775811   213A      0.781854  
     214A      0.795636   215A      0.800140   216A      0.807154  
     217A      0.807785   218A      0.811309   219A      0.821507  
     220A      0.825190   221A      0.833210   222A      0.836159  
     223A      0.840896   224A      0.846695   225A      0.847722  
     226A      0.858856   227A      0.860374   228A      0.872175  
     229A      0.874407   230A      0.881008   231A      0.883264  
     232A      0.886096   233A      0.890874   234A      0.892712  
     235A      0.898178   236A      0.899657   237A      0.904669  
     238A      0.914752   239A      0.915806   240A      0.921282  
     241A      0.927076   242A      0.936165   243A      0.937104  
     244A      0.938839   245A      0.942062   246A      0.946209  
     247A      0.955206   248A      0.959972   249A      0.965669  
     250A      0.972980   251A      0.973734   252A      0.976288  
     253A      0.984026   254A      0.986807   255A      0.990989  
     256A      0.992987   257A      0.995245   258A      0.999230  
     259A      1.006760   260A      1.013805   261A      1.016858  
     262A      1.024118   263A      1.025803   264A      1.028599  
     265A      1.030405   266A      1.038392   267A      1.039354  
     268A      1.043146   269A      1.045827   270A      1.054677  
     271A      1.057781   272A      1.064679   273A      1.068298  
     274A      1.069615   275A      1.078646   276A      1.080009  
     277A      1.084852   278A      1.093964   279A      1.097958  
     280A      1.099202   281A      1.104225   282A      1.109728  
     283A      1.120068   284A      1.126797   285A      1.127444  
     286A      1.133982   287A      1.140042   288A      1.144798  
     289A      1.149775   290A      1.154754   291A      1.160929  
     292A      1.166253   293A      1.168848   294A      1.177306  
     295A      1.178208   296A      1.182682   297A      1.183103  
     298A      1.191331   299A      1.193715   300A      1.201243  
     301A      1.207097   302A      1.211555   303A      1.215446  
     304A      1.217940   305A      1.220751   306A      1.228610  
     307A      1.233678   308A      1.242133   309A      1.249354  
     310A      1.253924   311A      1.258855   312A      1.265152  
     313A      1.278529   314A      1.282108   315A      1.284429  
     316A      1.288871   317A      1.301074   318A      1.304908  
     319A      1.308492   320A      1.311322   321A      1.315887  
     322A      1.323370   323A      1.329850   324A      1.331919  
     325A      1.344233   326A      1.352781   327A      1.363573  
     328A      1.378420   329A      1.385383   330A      1.389295  
     331A      1.393041   332A      1.399342   333A      1.405957  
     334A      1.412187   335A      1.419700   336A      1.436388  
     337A      1.440574   338A      1.457961   339A      1.459143  
     340A      1.466522   341A      1.469179   342A      1.480308  
[...]
	 R(7,12)          =         2.522392	       1.334793
	 R(7,20)          =         2.043187	       1.081208
	 R(8,12)          =         2.522255	       1.334720
	 R(8,21)          =         2.043122	       1.081174
	 R(9,10)          =         2.768621	       1.465091
	 R(11,13)         =         2.571886	       1.360984
	 R(13,22)         =         1.818009	       0.962049
	 B(1,3,11)        =         2.094113	     119.983854
	 B(1,3,16)        =         2.111571	     120.984083
	 B(1,9,2)         =         2.049100	     117.404808
	 B(1,9,10)        =         2.117633	     121.331458
	 B(2,4,11)        =         2.097010	     120.149798
	 B(2,4,17)        =         2.092017	     119.863759
	 B(2,9,10)        =         2.115880	     121.230990
	 B(3,1,9)         =         2.123203	     121.650578
	 B(3,1,14)        =         2.064002	     118.258627
	 B(3,11,4)        =         2.083728	     119.388843
	 B(3,11,13)       =         2.050014	     117.457174
	 B(4,2,9)         =         2.119153	     121.418505
	 B(4,2,15)        =         2.066028	     118.374666
	 B(4,11,13)       =         2.149437	     123.153680
	 B(5,7,12)        =         2.161985	     123.872604
	 B(5,7,20)        =         2.091875	     119.855629
	 B(5,10,6)        =         2.021909	     115.846868
	 B(5,10,9)        =         2.131053	     122.100349
	 B(6,8,12)        =         2.162259	     123.888290
	 B(6,8,21)        =         2.091591	     119.839328
	 B(6,10,9)        =         2.129748	     122.025591
	 B(7,5,10)        =         2.096281	     120.108082
	 B(7,5,18)        =         2.073192	     118.785152
	 B(7,12,8)        =         2.027937	     116.192232
	 B(8,6,10)        =         2.095940	     120.088490
	 B(8,6,19)        =         2.073593	     118.808134
	 B(9,1,14)        =         2.095561	     120.066817
	 B(9,2,15)        =         2.097591	     120.183123
	 B(10,5,18)       =         2.113316	     121.084063
	 B(10,6,19)       =         2.113383	     121.087920
	 B(11,3,16)       =         2.077472	     119.030404
	 B(11,4,17)       =         2.094115	     119.983977
	 B(11,13,22)      =         1.902447	     109.002185
	 B(12,7,20)       =         2.029318	     116.271347
	 B(12,8,21)       =         2.029311	     116.270933
	 D(1,3,11,4)      =         0.004364	       0.250033
	 D(1,3,11,13)     =        -3.140616	    -179.944030
	 D(1,9,2,4)       =         0.011120	       0.637127
	 D(1,9,2,15)      =        -3.099057	    -177.562880
	 D(1,9,10,5)      =        -2.874687	    -164.707405
	 D(1,9,10,6)      =         0.301394	      17.268592
	 D(2,4,11,3)      =        -0.004351	      -0.249279
	 D(2,4,11,13)     =         3.140832	     179.956409
	 D(2,9,1,3)       =        -0.011126	      -0.637499
	 D(2,9,1,14)      =        -3.121086	    -178.825054
	 D(2,9,10,5)      =         0.304178	      17.428120
	 D(2,9,10,6)      =        -2.802927	    -160.595882
	 D(3,1,9,10)      =        -3.116820	    -178.580649
	 D(3,11,4,17)     =         3.127258	     179.178689
	 D(3,11,13,22)    =         3.138323	     179.812649
	 D(4,2,9,10)      =         3.116852	     178.582469
	 D(4,11,3,16)     =         3.137860	     179.786125
	 D(4,11,13,22)    =        -0.006795	      -0.389319
	 D(5,7,12,8)      =         0.002125	       0.121742
	 D(5,10,6,8)      =         0.012089	       0.692639
	 D(5,10,6,19)     =        -3.104245	    -177.860147
	 D(6,8,12,7)      =         0.000027	       0.001534
	 D(6,10,5,7)      =        -0.010110	      -0.579254
	 D(6,10,5,18)     =        -3.121084	    -178.824947
	 D(7,5,10,9)      =        -3.119214	    -178.717803
	 D(7,12,8,21)     =         3.133944	     179.561749
	 D(8,6,10,9)      =         3.121220	     178.832710
	 D(8,12,7,20)     =         3.139587	     179.885069
	 D(9,1,3,11)      =         0.003563	       0.204163
	 D(9,1,3,16)      =        -3.129772	    -179.322702
	 D(9,2,4,11)      =        -0.003596	      -0.206020
	 D(9,2,4,17)      =        -3.135217	    -179.634679
	 D(9,10,5,18)     =         0.052997	       3.036503
	 D(9,10,6,19)     =         0.004886	       0.279924
	 D(10,5,7,12)     =         0.003200	       0.183347
	 D(10,5,7,20)     =        -3.134122	    -179.571951
	 D(10,6,8,12)     =        -0.007486	      -0.428917
	 D(10,6,8,21)     =        -3.141144	    -179.974284
	 D(10,9,1,14)     =         0.056405	       3.231795
	 D(10,9,2,15)     =         0.006675	       0.382462
	 D(11,3,1,14)     =         3.114075	     178.423371
	 D(11,4,2,15)     =         3.107132	     178.025575
	 D(12,7,5,18)     =         3.114874	     178.469127
	 D(12,8,6,19)     =         3.109421	     178.156681
	 D(13,11,3,16)    =        -0.007120	      -0.407938
	 D(13,11,4,17)    =        -0.010745	      -0.615624
	 D(14,1,3,16)     =        -0.019260	      -1.103494
	 D(15,2,4,17)     =        -0.024488	      -1.403083
	 D(18,5,7,20)     =        -0.022448	      -1.286171
	 D(19,6,8,21)     =        -0.024237	      -1.388686

	Current energy   :      -553.7245837086

	Energy change for the previous step:
		Projected    :        -0.0000151240
		Actual       :        -0.0000096500

	Performing BFGS update.
	Previous computed or guess Hessian on step 1.
	Steps to be used in Hessian update: 4 3
	Adding user-defined constraint: Fragment 1; Coordinate 63:
		Value =    -2.874687; Fixed value    =    -2.879790
		Force =    -0.003062; Force constant =     0.600000
	Removing off-diagonal coupling between coordinate 63 and others.
	Taking RFO optimization step.
	Going to follow RFO solution 1.
	Using RFO vector 1.
	Norm of target step-size    0.00424
	Projected energy change by RFO approximation:        -0.0000001527

	Back-transformation to cartesian coordinates...
	Successfully converged to displaced geometry.

	--- Internal Coordinate Step in ANG or DEG, aJ/ANG or AJ/DEG ---
	 ---------------------------------------------------------------------------
	   Coordinate                Previous        Force       Change         New 
	   ----------                --------       ------       ------       ------
	    1 R(1,3)          =      1.382797    -0.000565    -0.000106     1.382691
	    2 R(1,9)          =      1.396276     0.000591     0.000102     1.396378
	    3 R(1,14)         =      1.078655    -0.000350    -0.000075     1.078580
	    4 R(2,4)          =      1.384940     0.000208     0.000031     1.384971
	    5 R(2,9)          =      1.394354    -0.000345    -0.000068     1.394286
	    6 R(2,15)         =      1.078542    -0.000210    -0.000047     1.078494
	    7 R(3,11)         =      1.387444     0.000212     0.000019     1.387463
	    8 R(3,16)         =      1.078868    -0.000072    -0.000018     1.078850
	    9 R(4,11)         =      1.387869    -0.000329    -0.000058     1.387811
	   10 R(4,17)         =      1.081320    -0.000115    -0.000037     1.081283
	   11 R(5,7)          =      1.385155    -0.000597    -0.000088     1.385067
	   12 R(5,10)         =      1.393657     0.000121     0.000021     1.393678
	   13 R(5,18)         =      1.078613    -0.000288    -0.000064     1.078549
	   14 R(6,8)          =      1.385276    -0.000360    -0.000052     1.385224
	   15 R(6,10)         =      1.393658     0.000269     0.000031     1.393689
	   16 R(6,19)         =      1.078452    -0.000404    -0.000081     1.078371
	   17 R(7,12)         =      1.334793     0.000168     0.000007     1.334800
	   18 R(7,20)         =      1.081208     0.000125     0.000020     1.081228
	   19 R(8,12)         =      1.334720     0.000088     0.000007     1.334726
	   20 R(8,21)         =      1.081174     0.000159     0.000019     1.081193
	   21 R(9,10)         =      1.465091     0.000303     0.000013     1.465104
	   22 R(11,13)        =      1.360984     0.000272     0.000014     1.360998
	   23 R(13,22)        =      0.962049    -0.000244    -0.000043     0.962006
	   24 B(1,3,11)       =    119.983854     0.000001     0.004082   119.987937
	   25 B(1,3,16)       =    120.984083     0.000003     0.019301   121.003384
	   26 B(1,9,2)        =    117.404808     0.000002     0.008359   117.413167
	   27 B(1,9,10)       =    121.331458     0.000002     0.006584   121.338042
	   28 B(2,4,11)       =    120.149798    -0.000002    -0.007012   120.142786
	   29 B(2,4,17)       =    119.863759    -0.000000    -0.002238   119.861521
	   30 B(2,9,10)       =    121.230990    -0.000005    -0.014859   121.216131
	   31 B(3,1,9)        =    121.650578    -0.000003    -0.011472   121.639106
	   32 B(3,1,14)       =    118.258627     0.000007     0.032695   118.291322
	   33 B(3,11,4)       =    119.388843     0.000002     0.006650   119.395493
	   34 B(3,11,13)      =    117.457174    -0.000001    -0.006367   117.450807
	   35 B(4,2,9)        =    121.418505    -0.000000    -0.000649   121.417856
	   36 B(4,2,15)       =    118.374666     0.000005     0.028573   118.403239
	   37 B(4,11,13)      =    123.153680    -0.000001    -0.000254   123.153425
	   38 B(5,7,12)       =    123.872604    -0.000001    -0.003562   123.869042
	   39 B(5,7,20)       =    119.855629     0.000001     0.004038   119.859667
	   40 B(5,10,6)       =    115.846868     0.000003     0.007855   115.854723
	   41 B(5,10,9)       =    122.100349    -0.000004    -0.010420   122.089929
	   42 B(6,8,12)       =    123.888290    -0.000003    -0.006904   123.881386
	   43 B(6,8,21)       =    119.839328     0.000002     0.008389   119.847718
	   44 B(6,10,9)       =    122.025591     0.000001     0.000998   122.026588
	   45 B(7,5,10)       =    120.108082    -0.000001    -0.004784   120.103298
	   46 B(7,5,18)       =    118.785152     0.000003     0.015904   118.801056
	   47 B(7,12,8)       =    116.192232     0.000004     0.010738   116.202970
	   48 B(8,6,10)       =    120.088490    -0.000001    -0.003375   120.085115
	   49 B(8,6,19)       =    118.808134     0.000003     0.016879   118.825013
	   50 B(9,1,14)       =    120.066817    -0.000003    -0.022655   120.044162
	   51 B(9,2,15)       =    120.183123    -0.000005    -0.026947   120.156177
	   52 B(10,5,18)      =    121.084063    -0.000002    -0.011786   121.072277
	   53 B(10,6,19)      =    121.087920    -0.000002    -0.014185   121.073735
	   54 B(11,3,16)      =    119.030404    -0.000004    -0.023151   119.007253
	   55 B(11,4,17)      =    119.983977     0.000002     0.009344   119.993321
	   56 B(11,13,22)     =    109.002185     0.000004     0.013355   109.015540
	   57 B(12,7,20)      =    116.271347     0.000000    -0.000253   116.271094
	   58 B(12,8,21)      =    116.270933     0.000000    -0.001218   116.269715
	   59 D(1,3,11,4)     =      0.250033    -0.000000    -0.052688     0.197345
	   60 D(1,3,11,13)    =   -179.944030    -0.000000    -0.043121  -179.987151
	   61 D(1,9,2,4)      =      0.637127     0.000000    -0.000517     0.636611
	   62 D(1,9,2,15)     =   -177.562880    -0.000000    -0.038499  -177.601379
	   63 D(1,9,10,5)     =   -164.707405    -0.000000     0.002397  -164.705008
	   64 D(1,9,10,6)     =     17.268592     0.000000     0.058376    17.326969
	   65 D(2,4,11,3)     =     -0.249279     0.000000     0.020451    -0.228828
	   66 D(2,4,11,13)    =    179.956409     0.000000     0.010322   179.966730
	   67 D(2,9,1,3)      =     -0.637499    -0.000000    -0.032424    -0.669923
	   68 D(2,9,1,14)     =   -178.825054     0.000000     0.020310  -178.804744
	   69 D(2,9,10,5)     =     17.428120    -0.000000    -0.000503    17.427617
	   70 D(2,9,10,6)     =   -160.595882     0.000000     0.055476  -160.540406
	   71 D(3,1,9,10)     =   -178.580649    -0.000000    -0.034738  -178.615388
	   72 D(3,11,4,17)    =    179.178689     0.000000     0.031383   179.210071
	   73 D(3,11,13,22)   =    179.812649     0.000000    -0.000946   179.811703
	   74 D(4,2,9,10)     =    178.582469     0.000000     0.002262   178.584731
	   75 D(4,11,3,16)    =    179.786125    -0.000000    -0.018824   179.767301
	   76 D(4,11,13,22)   =     -0.389319     0.000000     0.009024    -0.380295
	   77 D(5,7,12,8)     =      0.121742    -0.000000    -0.008289     0.113453
	   78 D(5,10,6,8)     =      0.692639    -0.000000    -0.008397     0.684242
	   79 D(5,10,6,19)    =   -177.860147     0.000000     0.022866  -177.837281
	   80 D(6,8,12,7)     =      0.001534    -0.000000    -0.033064    -0.031530
	   81 D(6,10,5,7)     =     -0.579254    -0.000000    -0.029671    -0.608925
	   82 D(6,10,5,18)    =   -178.824947    -0.000000    -0.004434  -178.829381
	   83 D(7,5,10,9)     =   -178.717803     0.000000     0.023168  -178.694636
	   84 D(7,12,8,21)    =    179.561749     0.000000     0.009540   179.571289
	   85 D(8,6,10,9)     =    178.832710    -0.000000    -0.061431   178.771279
	   86 D(8,12,7,20)    =    179.885069     0.000000     0.066163   179.951233
	   87 D(9,1,3,11)     =      0.204163     0.000000     0.059619     0.263782
	   88 D(9,1,3,16)     =   -179.322702     0.000000     0.025269  -179.297433
	   89 D(9,2,4,11)     =     -0.206020     0.000000     0.006181    -0.199839
	   90 D(9,2,4,17)     =   -179.634679    -0.000000    -0.004802  -179.639481
	   91 D(9,10,5,18)    =      3.036503     0.000000     0.048404     3.084908
	   92 D(9,10,6,19)    =      0.279924    -0.000000    -0.030168     0.249755
	   93 D(10,5,7,12)    =      0.183347     0.000000     0.040273     0.223620
	   94 D(10,5,7,20)    =   -179.571951    -0.000000    -0.036698  -179.608649
	   95 D(10,6,8,12)    =     -0.428917     0.000000     0.042135    -0.386782
	   96 D(10,6,8,21)    =   -179.974284     0.000000    -0.001868  -179.976153
	   97 D(10,9,1,14)    =      3.231795     0.000000     0.017996     3.249791
	   98 D(10,9,2,15)    =      0.382462    -0.000000    -0.035720     0.346741
	   99 D(11,3,1,14)    =    178.423371     0.000000     0.006825   178.430196
	  100 D(11,4,2,15)    =    178.025575     0.000000     0.042556   178.068132
	  101 D(12,7,5,18)    =    178.469127     0.000000     0.015133   178.484260
	  102 D(12,8,6,19)    =    178.156681     0.000000     0.011131   178.167812
	  103 D(13,11,3,16)   =     -0.407938    -0.000000    -0.009257    -0.417195
	  104 D(13,11,4,17)   =     -0.615624     0.000000     0.021253    -0.594370
	  105 D(14,1,3,16)    =     -1.103494    -0.000000    -0.027526    -1.131020
	  106 D(15,2,4,17)    =     -1.403083     0.000000     0.031573    -1.371510
	  107 D(18,5,7,20)    =     -1.286171    -0.000000    -0.061839    -1.348009
	  108 D(19,6,8,21)    =     -1.388686    -0.000000    -0.032872    -1.421558
	 ---------------------------------------------------------------------------
	Successfully symmetrized geometry.
	 Forces used to impose fixed constraints are not included.
	  Forces zeroed: 63 

  ==> Convergence Check <==

  Measures of convergence in internal coordinates in au.
  Criteria marked as inactive (o), active & met (*), and active & unmet ( ).
  ---------------------------------------------------------------------------------------------
   Step     Total Energy     Delta E     MAX Force     RMS Force      MAX Disp      RMS Disp   
  ---------------------------------------------------------------------------------------------
    Convergence Criteria    1.00e-06 *    3.00e-04 *             o    1.20e-03 *             o
  ---------------------------------------------------------------------------------------------
      5    -553.72458371   -9.65e-06      8.73e-05 *    2.88e-05 o    1.15e-03 *    4.08e-04 o  ~
  ---------------------------------------------------------------------------------------------


  **** Optimization is complete! (in 5 steps) ****

  ==> Optimization Summary <==

  Measures of convergence in internal coordinates in au.
  --------------------------------------------------------------------------------------------------------------- ~
   Step         Total Energy             Delta E       MAX Force       RMS Force        MAX Disp        RMS Disp  ~
  --------------------------------------------------------------------------------------------------------------- ~
      1    -553.719442380515   -553.719442380515      0.02623555      0.00585407      0.03857476      0.00961473  ~
      2    -553.723486199506     -0.004043818991      0.00819946      0.00217679      0.02725283      0.00960256  ~
      3    -553.724491570093     -0.001005370587      0.00129423      0.00035627      0.03785620      0.00752947  ~
      4    -553.724574058580     -0.000082488487      0.00053104      0.00011579      0.00863760      0.00207162  ~
      5    -553.724583708576     -0.000009649996      0.00008726      0.00002882      0.00115477      0.00040783  ~
  --------------------------------------------------------------------------------------------------------------- ~

	Writing optimization data to binary file.
	Final energy is   -553.7245837085763
	Final (previous) structure:
	Cartesian Geometry (in Angstrom)
	    C    -1.3010170233   0.6862229744  -0.5478771103
	    C    -0.2889643018   0.1110887601   1.5332279515
	    C    -2.3593348476   1.2754272642   0.1191535076
	    C    -1.3440621280   0.6984155577   2.2113693818
	    C     1.7831590210  -1.3770921640   0.0506789403
	    C     1.1598061250  -0.2131145273  -1.9075585795
	    C     2.8556510869  -1.8954884138  -0.6562018525
	    C     2.2562646848  -0.7804905871  -2.5359309755
	    C    -0.2451556145   0.0847029267   0.1398118732
	    C     0.8877718280  -0.5104712377  -0.5734448177
	    C    -2.3873247657   1.2820764534   1.5062995016
	    N     3.1081699842  -1.6150306443  -1.9365333694
	    O    -3.4536084717   1.8748114615   2.1096074262
	    H    -1.3202194041   0.6740554268  -1.6262922115
	    H     0.5222313306  -0.3053584912   2.1092360908
	    H    -3.1750220826   1.7276844002  -0.4231320894
	    H    -1.3494989309   0.7098605861   3.2926151343
	    H     1.6426783406  -1.6789181426   1.0766284409
	    H     0.5415216672   0.4749159029  -2.4619935256
	    H     3.5438675168  -2.5729185853  -0.1699330886
	    H     2.4637704013  -0.5466767110  -3.5709233676
	    H    -3.3508513595   1.8077039268   3.0637958931
	Saving final (previous) structure.
			--------------------------
			 OPTKING Finished Execution 
			--------------------------

    Final optimized geometry and variables:
    Molecular point group: c1
    Full point group: C1

    Geometry (in Angstrom), charge = 0, multiplicity = 1:

    C           -1.301017023308     0.686222974372    -0.547877110288
    C           -0.288964301835     0.111088760140     1.533227951472
    C           -2.359334847643     1.275427264233     0.119153507563
    C           -1.344062128018     0.698415557696     2.211369381830
    C            1.783159021019    -1.377092163957     0.050678940342
    C            1.159806124961    -0.213114527310    -1.907558579503
    C            2.855651086854    -1.895488413821    -0.656201852523
    C            2.256264684829    -0.780490587105    -2.535930975510
    C           -0.245155614484     0.084702926711     0.139811873160
    C            0.887771827977    -0.510471237689    -0.573444817743
    C           -2.387324765700     1.282076453369     1.506299501550
    N            3.108169984245    -1.615030644291    -1.936533369390
    O           -3.453608471737     1.874811461515     2.109607426172
    H           -1.320219404085     0.674055426792    -1.626292211513
    H            0.522231330578    -0.305358491176     2.109236090839
    H           -3.175022082639     1.727684400187    -0.423132089404
    H           -1.349498930896     0.709860586141     3.292615134274
    H            1.642678340551    -1.678918142587     1.076628440860
    H            0.541521667233     0.474915902919    -2.461993525554
    H            3.543867516818    -2.572918585267    -0.169933088611
    H            2.463770401255    -0.546676711006    -3.570923367635
    H           -3.350851359488     1.807703926775     3.063795893068

	Cleaning optimization helper files.

*** Psi4 exiting successfully. Buy a developer a beer!
