
    -----------------------------------------------------------------------
          Psi4: An Open-Source Ab Initio Electronic Structure Package
                               Psi4 1.1 release

                         Git: Rev {HEAD} add49b9 


    R. M. Parrish, L. A. Burns, D. G. A. Smith, A. C. Simmonett,
    A. E. DePrince III, E. G. Hohenstein, U. Bozkaya, A. Yu. Sokolov,
    R. Di Remigio, R. M. Richard, J. F. Gonthier, A. M. James,
    H. R. McAlexander, A. Kumar, M. Saitow, X. Wang, B. P. Pritchard,
    P. Verma, H. F. Schaefer III, K. Patkowski, R. A. King, E. F. Valeev,
    F. A. Evangelista, J. M. Turney, T. D. Crawford, and C. D. Sherrill,
    J. Chem. Theory Comput. in press (2017).
    (doi: 10.1021/acs.jctc.7b00174)

    -----------------------------------------------------------------------


    Psi4 started on: Sunday, 12 November 2017 01:19PM

    Process ID:  19116
    PSIDATADIR: /cbio/jclab/home/chayas/anaconda/envs/py35/share/psi4
    Memory:     500.0 MiB
    Threads:    8
    
  ==> Input File <==

--------------------------------------------------------------------------

memory 5 Gb

molecule phepyrOH_neutral {
  symmetry C1
  0 1 
  C      1.885   -1.036   -0.112
  C      2.878   -1.652   2.002
  C      0.807   -0.463   0.561
  C      1.800   -1.079   2.676
  C      3.862   -2.773   -1.356
  C      5.298   -2.250   0.501
  C      4.965   -3.329   -1.983
  C      6.337   -2.829   -0.209
  C      2.921   -1.631   0.608
  C      4.040   -2.225   -0.090
  C      0.764   -0.484   1.955
  N      6.202   -3.372   -1.440
  O      -0.288   0.076   2.612
  H      1.904   -1.012   -1.199
  H      3.678   -2.112   2.578
  H      0.003   -0.001   -0.006
  H      1.772   -1.098   3.762
  H      2.895   -2.772   -1.850
  H      5.475   -1.833   1.487
  H      4.879   -3.768   -2.972
  H      7.337   -2.875   0.208
  H      -0.445   -0.385   3.452
  units Angstrom
}

dih_string = "3 11 13 22 150"
set optking fixed_dihedral = $dih_string

optimize('MP2/aug-cc-PVTZ')
--------------------------------------------------------------------------

  Memory set to   4.657 GiB by Python driver.
gradient() will perform analytic gradient computation.

*** tstart() called on gpu-2-10.local
*** at Sun Nov 12 13:19:46 2017

    SCF Algorithm Type (re)set to DF.

*** tstart() called on gpu-2-10.local
*** at Sun Nov 12 13:19:46 2017

   => Loading Basis Set <=

    Name: AUG-CC-PVTZ
    Role: ORBITAL
    Keyword: BASIS
    atoms 1-11  entry C          line   221 file /cbio/jclab/home/chayas/anaconda/envs/py35/share/psi4/basis/aug-cc-pvtz.gbs 
    atoms 12    entry N          line   267 file /cbio/jclab/home/chayas/anaconda/envs/py35/share/psi4/basis/aug-cc-pvtz.gbs 
    atoms 13    entry O          line   313 file /cbio/jclab/home/chayas/anaconda/envs/py35/share/psi4/basis/aug-cc-pvtz.gbs 
    atoms 14-22 entry H          line    34 file /cbio/jclab/home/chayas/anaconda/envs/py35/share/psi4/basis/aug-cc-pvtz.gbs 


         ---------------------------------------------------------
                                   SCF
            by Justin Turney, Rob Parrish, and Andy Simmonett
                              RHF Reference
                        8 Threads,   4768 MiB Core
         ---------------------------------------------------------

  ==> Geometry <==

    Molecular point group: c1
    Full point group: C1

    Geometry (in Angstrom), charge = 0, multiplicity = 1:

       Center              X                  Y                   Z               Mass       
    ------------   -----------------  -----------------  -----------------  -----------------
           C         -1.251977131103     0.711808487274    -0.589896610043    12.000000000000
           C         -0.258977131103     0.095808487274     1.524103389957    12.000000000000
           C         -2.329977131103     1.284808487274     0.083103389957    12.000000000000
           C         -1.336977131103     0.668808487274     2.198103389957    12.000000000000
           C          0.725022868897    -1.025191512726    -1.833896610043    12.000000000000
           C          2.161022868897    -0.502191512726     0.023103389957    12.000000000000
           C          1.828022868897    -1.581191512726    -2.460896610043    12.000000000000
           C          3.200022868897    -1.081191512726    -0.686896610043    12.000000000000
           C         -0.215977131103     0.116808487274     0.130103389957    12.000000000000
           C          0.903022868897    -0.477191512726    -0.567896610043    12.000000000000
           C         -2.372977131103     1.263808487274     1.477103389957    12.000000000000
           N          3.065022868897    -1.624191512726    -1.917896610043    14.003074004780
           O         -3.424977131103     1.823808487274     2.134103389957    15.994914619560
           H         -1.232977131103     0.735808487274    -1.676896610043     1.007825032070
           H          0.541022868897    -0.364191512726     2.100103389957     1.007825032070
           H         -3.133977131103     1.746808487274    -0.483896610043     1.007825032070
           H         -1.364977131103     0.649808487274     3.284103389957     1.007825032070
           H         -0.241977131103    -1.024191512726    -2.327896610043     1.007825032070
           H          2.338022868897    -0.085191512726     1.009103389957     1.007825032070
           H          1.742022868897    -2.020191512726    -3.449896610043     1.007825032070
           H          4.200022868897    -1.127191512726    -0.269896610043     1.007825032070
           H         -3.581977131103     1.362808487274     2.974103389957     1.007825032070

  Running in c1 symmetry.

  Rotational constants: A =      0.09693  B =      0.01354  C =      0.01209 [cm^-1]
  Rotational constants: A =   2906.03763  B =    406.02402  C =    362.38356 [MHz]
  Nuclear repulsion =  698.555166539596485

  Charge       = 0
  Multiplicity = 1
  Electrons    = 90
  Nalpha       = 45
  Nbeta        = 45

  ==> Algorithm <==

  SCF Algorithm Type is DF.
  DIIS enabled.
  MOM disabled.
  Fractional occupation disabled.
  Guess Type is SAD.
  Energy threshold   = 1.00e-10
  Density threshold  = 1.00e-10
  Integral threshold = 0.00e+00

  ==> Primary Basis <==

  Basis Set: AUG-CC-PVTZ
    Blend: AUG-CC-PVTZ
    Number of shells: 263
    Number of basis function: 805
    Number of Cartesian functions: 940
    Spherical Harmonics?: true
    Max angular momentum: 3

   => Loading Basis Set <=

    Name: (AUG-CC-PVTZ AUX)
    Role: JKFIT
    Keyword: DF_BASIS_SCF
    atoms 1-11  entry C          line   161 file /cbio/jclab/home/chayas/anaconda/envs/py35/share/psi4/basis/aug-cc-pvtz-jkfit.gbs 
    atoms 12    entry N          line   223 file /cbio/jclab/home/chayas/anaconda/envs/py35/share/psi4/basis/aug-cc-pvtz-jkfit.gbs 
    atoms 13    entry O          line   285 file /cbio/jclab/home/chayas/anaconda/envs/py35/share/psi4/basis/aug-cc-pvtz-jkfit.gbs 
    atoms 14-22 entry H          line    69 file /cbio/jclab/home/chayas/anaconda/envs/py35/share/psi4/basis/aug-cc-pvtz-jkfit.gbs 

  ==> Pre-Iterations <==

   -------------------------------------------------------
    Irrep   Nso     Nmo     Nalpha   Nbeta   Ndocc  Nsocc
   -------------------------------------------------------
     A        805     805       0       0       0       0
   -------------------------------------------------------
    Total     805     805      45      45      45       0
   -------------------------------------------------------

  ==> Integral Setup <==

  ==> DFJK: Density-Fitted J/K Matrices <==

    J tasked:                  Yes
    K tasked:                  Yes
    wK tasked:                  No
    OpenMP threads:              8
    Integrals threads:           8
    Memory (MB):              3576
    Algorithm:                Disk
    Integral Cache:           NONE
    Schwarz Cutoff:          1E-12
    Fitting Condition:       1E-12

   => Auxiliary Basis Set <=

  Basis Set: (AUG-CC-PVTZ AUX)
    Blend: AUG-CC-PVTZ-JKFIT
    Number of shells: 516
    Number of basis function: 1766
    Number of Cartesian functions: 2198
    Spherical Harmonics?: true
    Max angular momentum: 4

  Minimum eigenvalue in the overlap matrix is 6.1672226452E-07.
  Using Symmetric Orthogonalization.

  SCF Guess: Superposition of Atomic Densities via on-the-fly atomic UHF.

  ==> Iterations <==

                           Total Energy        Delta E     RMS |[F,P]|

   @DF-RHF iter   0:  -556.43119527833846   -5.56431e+02   2.00762e-02 
   @DF-RHF iter   1:  -550.90952421932457    5.52167e+00   1.97088e-03 
   @DF-RHF iter   2:  -551.22382814232162   -3.14304e-01   8.02432e-04 DIIS
   @DF-RHF iter   3:  -551.26975823149360   -4.59301e-02   4.41567e-04 DIIS
   @DF-RHF iter   4:  -551.28266884407924   -1.29106e-02   1.08281e-04 DIIS
   @DF-RHF iter   5:  -551.28404795938229   -1.37912e-03   4.98890e-05 DIIS
   @DF-RHF iter   6:  -551.28435283737781   -3.04878e-04   1.88033e-05 DIIS
   @DF-RHF iter   7:  -551.28439330823039   -4.04709e-05   5.29634e-06 DIIS
   @DF-RHF iter   8:  -551.28439701858235   -3.71035e-06   1.80635e-06 DIIS
   @DF-RHF iter   9:  -551.28439755380134   -5.35219e-07   9.06688e-07 DIIS
   @DF-RHF iter  10:  -551.28439773689354   -1.83092e-07   3.54495e-07 DIIS
   @DF-RHF iter  11:  -551.28439781097268   -7.40791e-08   1.88702e-07 DIIS
   @DF-RHF iter  12:  -551.28439782088674   -9.91406e-09   7.09357e-08 DIIS
   @DF-RHF iter  13:  -551.28439782171438   -8.27640e-10   2.40531e-08 DIIS
   @DF-RHF iter  14:  -551.28439782184034   -1.25965e-10   7.03190e-09 DIIS
   @DF-RHF iter  15:  -551.28439782186706   -2.67164e-11   4.16676e-09 DIIS
   @DF-RHF iter  16:  -551.28439782187490   -7.84439e-12   1.64829e-09 DIIS
   @DF-RHF iter  17:  -551.28439782189980   -2.48974e-11   5.95301e-10 DIIS
   @DF-RHF iter  18:  -551.28439782189628    3.52429e-12   2.25343e-10 DIIS
   @DF-RHF iter  19:  -551.28439782188252    1.37561e-11   9.55588e-11 DIIS

  ==> Post-Iterations <==

    Orbital Energies (a.u.)
    -----------------------

    Doubly Occupied:                                                      

       1A    -20.598298     2A    -15.561449     3A    -11.314103  
       4A    -11.273931     5A    -11.273882     6A    -11.263167  
       7A    -11.254528     8A    -11.253400     9A    -11.245657  
      10A    -11.245258    11A    -11.242931    12A    -11.235988  
      13A    -11.235921    14A     -1.414146    15A     -1.248332  
      16A     -1.174131    17A     -1.103929    18A     -1.039474  
      19A     -1.028398    20A     -1.009285    21A     -0.881330  
      22A     -0.873168    23A     -0.837988    24A     -0.810502  
      25A     -0.748689    26A     -0.724583    27A     -0.683905  
      28A     -0.665130    29A     -0.650385    30A     -0.632265  
      31A     -0.622574    32A     -0.610457    33A     -0.598642  
      34A     -0.591659    35A     -0.567108    36A     -0.542222  
      37A     -0.529825    38A     -0.522162    39A     -0.497800  
      40A     -0.496163    41A     -0.417326    42A     -0.396864  
      43A     -0.355354    44A     -0.348917    45A     -0.307715  

    Virtual:                                                              

      46A      0.021867    47A      0.029290    48A      0.032011  
      49A      0.039233    50A      0.042917    51A      0.044399  
      52A      0.054942    53A      0.056456    54A      0.062303  
      55A      0.076527    56A      0.078716    57A      0.083058  
      58A      0.087419    59A      0.094136    60A      0.095589  
      61A      0.102608    62A      0.104893    63A      0.108368  
      64A      0.111506    65A      0.112461    66A      0.114692  
      67A      0.120209    68A      0.121119    69A      0.125901  
      70A      0.129287    71A      0.132820    72A      0.134471  
      73A      0.136693    74A      0.142683    75A      0.147857  
      76A      0.148640    77A      0.151921    78A      0.153844  
      79A      0.157389    80A      0.163047    81A      0.168412  
      82A      0.173476    83A      0.175459    84A      0.183297  
      85A      0.184288    86A      0.186719    87A      0.201578  
      88A      0.204209    89A      0.213414    90A      0.216485  
      91A      0.220743    92A      0.225251    93A      0.226892  
      94A      0.236020    95A      0.241085    96A      0.242230  
      97A      0.246114    98A      0.250205    99A      0.252776  
     100A      0.256666   101A      0.259693   102A      0.265482  
     103A      0.265553   104A      0.270627   105A      0.274272  
     106A      0.275617   107A      0.285442   108A      0.288715  
     109A      0.291965   110A      0.296505   111A      0.299481  
     112A      0.301983   113A      0.305481   114A      0.312765  
     115A      0.317302   116A      0.321216   117A      0.323000  
     118A      0.327672   119A      0.329906   120A      0.333965  
     121A      0.339567   122A      0.342776   123A      0.349551  
     124A      0.356631   125A      0.361184   126A      0.365923  
     127A      0.369305   128A      0.374396   129A      0.386137  
     130A      0.387057   131A      0.395731   132A      0.397809  
     133A      0.401478   134A      0.411266   135A      0.419102  
     136A      0.421626   137A      0.424629   138A      0.427588  
     139A      0.430230   140A      0.434718   141A      0.437605  
     142A      0.439799   143A      0.445509   144A      0.448382  
     145A      0.450528   146A      0.451608   147A      0.457368  
     148A      0.461003   149A      0.466458   150A      0.467601  
     151A      0.474549   152A      0.475343   153A      0.484227  
     154A      0.486639   155A      0.488532   156A      0.492913  
     157A      0.498814   158A      0.502274   159A      0.504490  
     160A      0.506237   161A      0.508559   162A      0.512095  
     163A      0.514194   164A      0.518899   165A      0.520376  
     166A      0.526283   167A      0.527656   168A      0.532589  
     169A      0.535719   170A      0.538765   171A      0.543705  
     172A      0.548162   173A      0.552674   174A      0.553641  
     175A      0.558704   176A      0.563121   177A      0.569275  
     178A      0.579112   179A      0.582351   180A      0.585948  
     181A      0.592622   182A      0.599044   183A      0.604151  
     184A      0.613665   185A      0.614078   186A      0.624350  
     187A      0.628518   188A      0.633947   189A      0.637581  
     190A      0.641055   191A      0.651662   192A      0.657609  
     193A      0.666333   194A      0.677134   195A      0.685145  
     196A      0.689090   197A      0.692108   198A      0.700728  
     199A      0.702817   200A      0.708240   201A      0.710348  
     202A      0.718668   203A      0.723629   204A      0.729450  
     205A      0.734085   206A      0.738659   207A      0.744243  
     208A      0.750925   209A      0.756230   210A      0.759850  
     211A      0.765316   212A      0.770071   213A      0.775706  
     214A      0.780257   215A      0.793429   216A      0.801219  
     217A      0.805331   218A      0.809379   219A      0.819999  
     220A      0.823621   221A      0.830014   222A      0.836449  
     223A      0.839251   224A      0.844000   225A      0.851437  
     226A      0.855245   227A      0.860814   228A      0.865822  
     229A      0.873574   230A      0.879868   231A      0.880240  
     232A      0.883395   233A      0.885298   234A      0.894432  
     235A      0.897452   236A      0.900838   237A      0.907569  
     238A      0.909095   239A      0.916709   240A      0.919408  
     241A      0.926747   242A      0.932823   243A      0.939902  
     244A      0.940708   245A      0.947457   246A      0.954285  
     247A      0.960208   248A      0.964046   249A      0.967290  
     250A      0.972809   251A      0.973589   252A      0.982246  
     253A      0.984496   254A      0.986930   255A      0.989868  
     256A      0.998855   257A      0.999441   258A      1.008077  
     259A      1.009881   260A      1.013301   261A      1.017108  
     262A      1.022480   263A      1.024788   264A      1.028043  
     265A      1.033369   266A      1.036090   267A      1.040496  
     268A      1.044131   269A      1.048386   270A      1.052354  
     271A      1.056797   272A      1.066266   273A      1.070642  
     274A      1.080376   275A      1.084612   276A      1.087504  
     277A      1.092200   278A      1.095199   279A      1.097574  
     280A      1.101599   281A      1.104472   282A      1.107315  
     283A      1.113935   284A      1.116388   285A      1.119733  
     286A      1.122475   287A      1.135617   288A      1.139195  
     289A      1.144762   290A      1.153112   291A      1.159354  
     292A      1.160984   293A      1.165263   294A      1.169541  
     295A      1.174183   296A      1.180181   297A      1.182837  
     298A      1.187824   299A      1.192674   300A      1.197050  
     301A      1.200187   302A      1.210468   303A      1.214353  
     304A      1.216514   305A      1.220663   306A      1.224697  
     307A      1.225913   308A      1.236287   309A      1.240222  
     310A      1.249527   311A      1.261593   312A      1.269800  
     313A      1.272374   314A      1.277493   315A      1.284063  
     316A      1.287924   317A      1.296720   318A      1.300852  
     319A      1.308043   320A      1.308733   321A      1.318492  
     322A      1.328377   323A      1.330735   324A      1.335500  
     325A      1.343352   326A      1.346901   327A      1.357506  
     328A      1.363935   329A      1.371734   330A      1.379605  
     331A      1.384343   332A      1.398124   333A      1.406935  
     334A      1.409002   335A      1.417823   336A      1.432966  
     337A      1.445101   338A      1.451473   339A      1.457804  
     340A      1.458566   341A      1.461349   342A      1.476179  
     343A      1.490679   344A      1.496801   345A      1.501963  
     346A      1.512854   347A      1.518237   348A      1.520115  
     349A      1.530488   350A      1.536288   351A      1.539245  
     352A      1.543173   353A      1.554828   354A      1.579161  
     355A      1.586479   356A      1.591225   357A      1.605088  
     358A      1.607663   359A      1.609852   360A      1.619757  
     361A      1.631889   362A      1.636280   363A      1.647605  
     364A      1.654310   365A      1.664522   366A      1.672235  
     367A      1.677194   368A      1.686850   369A      1.694601  
     370A      1.704310   371A      1.713415   372A      1.714658  
     373A      1.717905   374A      1.720859   375A      1.732144  
     376A      1.735254   377A      1.742082   378A      1.744482  
     379A      1.756661   380A      1.772753   381A      1.782546  
     382A      1.786096   383A      1.787523   384A      1.802572  
     385A      1.812983   386A      1.818894   387A      1.826469  
     388A      1.828337   389A      1.837311   390A      1.842572  
     391A      1.849819   392A      1.861177   393A      1.865400  
     394A      1.872814   395A      1.880936   396A      1.897908  
     397A      1.906269   398A      1.909991   399A      1.911168  
     400A      1.931151   401A      1.938599   402A      1.944004  
     403A      1.948569   404A      1.963903   405A      1.965669  
     406A      1.971833   407A      1.978877   408A      1.985447  
     409A      1.997006   410A      2.005921   411A      2.008644  
     412A      2.014632   413A      2.021582   414A      2.034615  
     415A      2.044762   416A      2.047075   417A      2.056356  
     418A      2.065199   419A      2.067982   420A      2.072419  
     421A      2.079828   422A      2.090653   423A      2.102409  
     424A      2.104481   425A      2.108018   426A      2.114665  
     427A      2.120894   428A      2.132901   429A      2.138583  
     430A      2.143257   431A      2.149484   432A      2.156132  
     433A      2.166971   434A      2.184091   435A      2.190010  
     436A      2.194585   437A      2.199882   438A      2.208739  
     439A      2.227493   440A      2.230814   441A      2.238785  
     442A      2.249649   443A      2.251152   444A      2.264578  
     445A      2.270908   446A      2.296367   447A      2.304194  
     448A      2.311574   449A      2.312741   450A      2.329057  
     451A      2.343657   452A      2.352786   453A      2.363973  
     454A      2.369067   455A      2.373512   456A      2.378751  
     457A      2.398965   458A      2.402739   459A      2.407893  
     460A      2.409406   461A      2.416407   462A      2.441698  
     463A      2.447342   464A      2.455327   465A      2.466247  
     466A      2.481203   467A      2.496010   468A      2.514352  
     469A      2.519299   470A      2.537138   471A      2.551590  
     472A      2.563051   473A      2.566884   474A      2.573112  
     475A      2.583026   476A      2.585475   477A      2.597922  
     478A      2.621427   479A      2.627081   480A      2.641207  
     481A      2.648525   482A      2.671242   483A      2.691410  
     484A      2.706767   485A      2.728570   486A      2.742988  
     487A      2.752056   488A      2.770559   489A      2.791261  
     490A      2.807085   491A      2.815630   492A      2.824679  
     493A      2.837374   494A      2.857061   495A      2.863916  
     496A      2.876629   497A      2.888589   498A      2.903751  
     499A      2.929135   500A      2.974792   501A      2.991768  
     502A      3.005315   503A      3.028400   504A      3.051911  
     505A      3.060134   506A      3.066497   507A      3.097802  
     508A      3.101153   509A      3.135516   510A      3.165869  
     511A      3.192733   512A      3.208425   513A      3.222270  
     514A      3.224668   515A      3.240562   516A      3.245928  
     517A      3.269446   518A      3.303692   519A      3.311912  
     520A      3.319724   521A      3.326895   522A      3.338103  
     523A      3.345648   524A      3.363422   525A      3.367604  
     526A      3.369366   527A      3.386076   528A      3.401817  
     529A      3.411846   530A      3.422724   531A      3.426193  
     532A      3.432430   533A      3.442322   534A      3.454179  
     535A      3.458110   536A      3.480490   537A      3.484915  
     538A      3.492388   539A      3.500713   540A      3.514175  
     541A      3.520287   542A      3.530494   543A      3.539129  
     544A      3.540816   545A      3.553151   546A      3.558865  
     547A      3.566239   548A      3.578430   549A      3.580155  
     550A      3.589825   551A      3.591743   552A      3.602411  
     553A      3.615216   554A      3.631854   555A      3.639362  
     556A      3.645910   557A      3.653301   558A      3.657402  
     559A      3.677610   560A      3.688517   561A      3.694005  
     562A      3.704149   563A      3.720828   564A      3.731633  
     565A      3.743250   566A      3.753674   567A      3.769600  
     568A      3.779650   569A      3.781148   570A      3.784197  
     571A      3.790157   572A      3.813449   573A      3.816265  
     574A      3.832903   575A      3.835419   576A      3.845787  
     577A      3.851911   578A      3.855839   579A      3.869632  
     580A      3.877938   581A      3.886703   582A      3.891455  
     583A      3.901447   584A      3.910932   585A      3.922276  
     586A      3.935182   587A      3.941472   588A      3.942729  
     589A      3.951037   590A      3.961250   591A      3.967164  
     592A      3.974131   593A      3.983924   594A      3.997003  
     595A      4.002128   596A      4.016117   597A      4.021245  
     598A      4.027176   599A      4.034601   600A      4.038214  
     601A      4.040440   602A      4.042038   603A      4.081863  
     604A      4.094713   605A      4.098468   606A      4.112945  
     607A      4.115804   608A      4.130508   609A      4.134771  
     610A      4.142854   611A      4.152650   612A      4.160513  
     613A      4.163513   614A      4.174487   615A      4.186089  
     616A      4.204684   617A      4.209678   618A      4.213427  
     619A      4.232072   620A      4.234133   621A      4.252241  
     622A      4.256934   623A      4.261828   624A      4.271367  
     625A      4.284126   626A      4.291196   627A      4.307470  
     628A      4.311516   629A      4.316394   630A      4.334497  
     631A      4.338847   632A      4.340566   633A      4.355333  
     634A      4.361203   635A      4.369254   636A      4.383605  
     637A      4.393986   638A      4.398480   639A      4.403647  
     640A      4.407372   641A      4.428015   642A      4.440431  
     643A      4.441937   644A      4.450264   645A      4.457207  
     646A      4.466573   647A      4.476205   648A      4.479330  
     649A      4.499610   650A      4.505276   651A      4.506585  
     652A      4.515162   653A      4.522313   654A      4.537092  
     655A      4.558234   656A      4.568455   657A      4.581825  
     658A      4.589305   659A      4.604497   660A      4.621727  
     661A      4.641032   662A      4.646129   663A      4.669636  
     664A      4.688207   665A      4.697577   666A      4.700609  
     667A      4.716121   668A      4.725842   669A      4.740613  
     670A      4.758708   671A      4.768266   672A      4.796907  
     673A      4.806628   674A      4.814777   675A      4.841536  
     676A      4.845836   677A      4.867875   678A      4.874207  
     679A      4.878529   680A      4.895339   681A      4.914581  
     682A      4.933726   683A      4.941385   684A      4.945360  
     685A      4.961937   686A      4.965500   687A      4.973190  
     688A      4.991450   689A      5.002205   690A      5.026768  
     691A      5.029625   692A      5.039959   693A      5.048932  
     694A      5.056532   695A      5.077959   696A      5.092787  
     697A      5.102540   698A      5.117174   699A      5.120706  
     700A      5.133646   701A      5.143797   702A      5.148720  
     703A      5.159632   704A      5.165462   705A      5.169233  
     706A      5.180241   707A      5.210227   708A      5.222582  
     709A      5.228810   710A      5.237178   711A      5.274792  
     712A      5.280406   713A      5.295763   714A      5.309697  
     715A      5.315785   716A      5.332913   717A      5.357135  
     718A      5.360065   719A      5.381201   720A      5.407094  
     721A      5.417471   722A      5.430190   723A      5.440734  
     724A      5.459063   725A      5.467302   726A      5.486807  
     727A      5.490658   728A      5.525458   729A      5.552437  
     730A      5.558512   731A      5.563408   732A      5.574752  
     733A      5.619581   734A      5.635258   735A      5.641545  
     736A      5.701031   737A      5.710648   738A      5.723293  
     739A      5.757296   740A      5.760431   741A      5.801187  
     742A      5.815415   743A      5.826521   744A      5.850787  
     745A      5.874164   746A      5.879291   747A      5.916195  
     748A      5.931111   749A      5.985942   750A      6.052309  
     751A      6.086775   752A      6.117679   753A      6.156904  
     754A      6.188267   755A      6.217016   756A      6.261456  
     757A      6.281513   758A      6.293130   759A      6.359986  
     760A      6.404411   761A      6.431740   762A      6.467935  
     763A      6.483383   764A      6.502328   765A      6.525646  
     766A      6.598554   767A      6.624242   768A      6.703038  
     769A      6.711431   770A      6.721437   771A      6.742380  
     772A      6.885727   773A      6.887934   774A      6.906535  
     775A      6.919880   776A      6.944761   777A      6.957674  
     778A      6.977151   779A      7.087768   780A      7.104777  
     781A      7.123198   782A      7.241343   783A      7.291591  
     784A      7.399728   785A      7.436184   786A      7.506664  
     787A      7.664951   788A      7.688613   789A      7.776480  
     790A      7.937724   791A      8.342536   792A      8.590432  
     793A     15.628072   794A     16.381046   795A     16.656124  
     796A     16.759716   797A     16.820179   798A     18.433226  
     799A     18.820568   800A     19.173126   801A     19.572887  
     802A     20.058513   803A     20.084508   804A     20.601610  
     805A     21.784430  

    Final Occupation by Irrep:
              A 
    DOCC [    45 ]

  Energy converged.

  @DF-RHF Final Energy:  -551.28439782188252

   => Energetics <=

    Nuclear Repulsion Energy =            698.5551665395964847
    One-Electron Energy =               -2133.8212522129397257
    Two-Electron Energy =                 883.9816878514607197
    DFT Exchange-Correlation Energy =       0.0000000000000000
    Empirical Dispersion Energy =           0.0000000000000000
    PCM Polarization Energy =               0.0000000000000000
    EFP Energy =                            0.0000000000000000
    Total Energy =                       -551.2843978218825214



Properties will be evaluated at   0.000000,   0.000000,   0.000000 Bohr

Properties computed using the SCF density matrix

  Nuclear Dipole Moment: (a.u.)
     X:    -0.7142      Y:    -0.1044      Z:     1.1023

  Electronic Dipole Moment: (a.u.)
     X:    -0.0912      Y:     0.1937      Z:    -0.1758

  Dipole Moment: (a.u.)
     X:    -0.8054      Y:     0.0893      Z:     0.9265     Total:     1.2309

  Dipole Moment: (Debye)
     X:    -2.0471      Y:     0.2271      Z:     2.3548     Total:     3.1285


*** tstop() called on gpu-2-10.local at Sun Nov 12 13:26:25 2017
Module time:
	user time   =     997.61 seconds =      16.63 minutes
	system time =      44.90 seconds =       0.75 minutes
	total time  =        399 seconds =       6.65 minutes
Total time:
	user time   =     997.62 seconds =      16.63 minutes
	system time =      44.90 seconds =       0.75 minutes
	total time  =        399 seconds =       6.65 minutes

  //>>>>>>>>>>>>>>>>>>>>>>>>>>>>>>>>>>>//
  //               DFMP2               //
  //<<<<<<<<<<<<<<<<<<<<<<<<<<<<<<<<<<<//

   => Loading Basis Set <=

    Name: (AUG-CC-PVTZ AUX)
    Role: RIFIT
    Keyword: DF_BASIS_MP2
    atoms 1-11  entry C          line   147 file /cbio/jclab/home/chayas/anaconda/envs/py35/share/psi4/basis/aug-cc-pvtz-ri.gbs 
    atoms 12    entry N          line   205 file /cbio/jclab/home/chayas/anaconda/envs/py35/share/psi4/basis/aug-cc-pvtz-ri.gbs 
    atoms 13    entry O          line   263 file /cbio/jclab/home/chayas/anaconda/envs/py35/share/psi4/basis/aug-cc-pvtz-ri.gbs 
    atoms 14-22 entry H          line    29 file /cbio/jclab/home/chayas/anaconda/envs/py35/share/psi4/basis/aug-cc-pvtz-ri.gbs 

	 --------------------------------------------------------
	                          DF-MP2                         
	      2nd-Order Density-Fitted Moller-Plesset Theory     
	              RMP2 Wavefunction,   8 Threads             
	                                                         
	        Rob Parrish, Justin Turney, Andy Simmonett,      
	           Ed Hohenstein, and C. David Sherrill          
	 --------------------------------------------------------

   => Auxiliary Basis Set <=

  Basis Set: (AUG-CC-PVTZ AUX)
    Blend: AUG-CC-PVTZ-RI
    Number of shells: 490
    Number of basis function: 1792
    Number of Cartesian functions: 2263
    Spherical Harmonics?: true
    Max angular momentum: 4

	 --------------------------------------------------------
	                 NBF =   805, NAUX =  1792
	 --------------------------------------------------------
	   CLASS    FOCC     OCC    AOCC    AVIR     VIR    FVIR
	   PAIRS       0      45      45     760     760       0
	 --------------------------------------------------------


         ------------------------------------------------------------
                                     CPHF                           
                                  Rob Parrish                       
         ------------------------------------------------------------

  ==> Geometry <==

    Molecular point group: c1
    Full point group: C1

    Geometry (in Angstrom), charge = 0, multiplicity = 1:

       Center              X                  Y                   Z               Mass       
    ------------   -----------------  -----------------  -----------------  -----------------
           C         -1.251977131103     0.711808487274    -0.589896610043    12.000000000000
           C         -0.258977131103     0.095808487274     1.524103389957    12.000000000000
           C         -2.329977131103     1.284808487274     0.083103389957    12.000000000000
           C         -1.336977131103     0.668808487274     2.198103389957    12.000000000000
           C          0.725022868897    -1.025191512726    -1.833896610043    12.000000000000
           C          2.161022868897    -0.502191512726     0.023103389957    12.000000000000
           C          1.828022868897    -1.581191512726    -2.460896610043    12.000000000000
           C          3.200022868897    -1.081191512726    -0.686896610043    12.000000000000
           C         -0.215977131103     0.116808487274     0.130103389957    12.000000000000
           C          0.903022868897    -0.477191512726    -0.567896610043    12.000000000000
           C         -2.372977131103     1.263808487274     1.477103389957    12.000000000000
           N          3.065022868897    -1.624191512726    -1.917896610043    14.003074004780
           O         -3.424977131103     1.823808487274     2.134103389957    15.994914619560
           H         -1.232977131103     0.735808487274    -1.676896610043     1.007825032070
           H          0.541022868897    -0.364191512726     2.100103389957     1.007825032070
           H         -3.133977131103     1.746808487274    -0.483896610043     1.007825032070
           H         -1.364977131103     0.649808487274     3.284103389957     1.007825032070
           H         -0.241977131103    -1.024191512726    -2.327896610043     1.007825032070
           H          2.338022868897    -0.085191512726     1.009103389957     1.007825032070
           H          1.742022868897    -2.020191512726    -3.449896610043     1.007825032070
           H          4.200022868897    -1.127191512726    -0.269896610043     1.007825032070
           H         -3.581977131103     1.362808487274     2.974103389957     1.007825032070

  Nuclear repulsion =  698.555166539596485
  Reference energy  = -551.284397821882521

  ==> Basis Set <==

  Basis Set: AUG-CC-PVTZ
    Blend: AUG-CC-PVTZ
    Number of shells: 263
    Number of basis function: 805
    Number of Cartesian functions: 940
    Spherical Harmonics?: true
    Max angular momentum: 3

  ==> CGRSolver (by Rob Parrish) <==

   Number of roots    =         1
   Preconditioning    =    JACOBI
   Convergence cutoff =     1E-06
   Maximum iterations =       100

  ==> CPHFRHamiltonian (by Rob Parrish) <== 

  ==> DFJK: Density-Fitted J/K Matrices <==

    J tasked:                  Yes
    K tasked:                  Yes
    wK tasked:                  No
    OpenMP threads:              8
    Integrals threads:           8
    Memory (MB):              3576
    Algorithm:                Disk
    Integral Cache:           NONE
    Schwarz Cutoff:          1E-12
    Fitting Condition:       1E-12

   => Auxiliary Basis Set <=

  Basis Set: (AUG-CC-PVTZ AUX)
    Blend: AUG-CC-PVTZ-JKFIT
    Number of shells: 516
    Number of basis function: 1766
    Number of Cartesian functions: 2198
    Spherical Harmonics?: true
    Max angular momentum: 4

  ==> CPHF Iterations <==

  => Iterations <=

             Iter  Converged  Remaining    Residual
  CGR           1          0          1   9.006E-02
  CGR           2          0          1   3.708E-02
  CGR           3          0          1   2.589E-02
  CGR           4          0          1   1.042E-02
  CGR           5          0          1   4.127E-03
  CGR           6          0          1   1.737E-03
  CGR           7          0          1   4.972E-04
  CGR           8          0          1   1.651E-04
  CGR           9          0          1   8.302E-05
  CGR          10          0          1   3.824E-05
  CGR          11          0          1   1.393E-05
  CGR          12          0          1   5.048E-06
  CGR          13          0          1   1.479E-06
  CGR          14          1          0   4.810E-07

    CGRSolver converged.

  ==> DFCorrGrad: Density-Fitted Correlated Gradients <==

    OpenMP threads:              8
    Integrals threads:           8
    Memory (MB):              3576
    Schwarz Cutoff:          0E+00
    Fitting Condition:       1E-12

   => Auxiliary Basis Set <=

  Basis Set: (AUG-CC-PVTZ AUX)
    Blend: AUG-CC-PVTZ-JKFIT
    Number of shells: 516
    Number of basis function: 1766
    Number of Cartesian functions: 2198
    Spherical Harmonics?: true
    Max angular momentum: 4

	-----------------------------------------------------------
	 ==================> DF-MP2 Energies <==================== 
	-----------------------------------------------------------
	 Reference Energy          =    -551.2843978218825214 [Eh]
	 Singles Energy            =      -0.0000000000000004 [Eh]
	 Same-Spin Energy          =      -0.6051240200607727 [Eh]
	 Opposite-Spin Energy      =      -1.8308341442252911 [Eh]
	 Correlation Energy        =      -2.4359581642860642 [Eh]
	 Total Energy              =    -553.7203559861685562 [Eh]
	-----------------------------------------------------------
	 ================> DF-SCS-MP2 Energies <================== 
	-----------------------------------------------------------
	 SCS Same-Spin Scale       =       0.3333333333333333 [-]
	 SCS Opposite-Spin Scale   =       1.2000000000000000 [-]
	 SCS Same-Spin Energy      =      -0.2017080066869242 [Eh]
	 SCS Opposite-Spin Energy  =      -2.1970009730703493 [Eh]
	 SCS Correlation Energy    =      -2.3987089797572740 [Eh]
	 SCS Total Energy          =    -553.6831068016398376 [Eh]
	-----------------------------------------------------------


  -Total Gradient:
     Atom            X                  Y                   Z
    ------   -----------------  -----------------  -----------------
       1        0.008429229900    -0.003627102404    -0.009009845808
       2        0.008808292204    -0.006169137226    -0.005199424658
       3        0.000323280746    -0.001683883221     0.002311836400
       4       -0.006679417287     0.003364360255     0.006130896209
       5       -0.009899431643     0.001544523560     0.002149206998
       6       -0.004967517886     0.006279318704     0.007160687214
       7       -0.012667948212     0.002138403838    -0.000269720710
       8       -0.003056711520     0.006971932724     0.011004591303
       9        0.002620177354    -0.001515808228    -0.001897628679
      10        0.004274944213    -0.001908813141    -0.002089142348
      11       -0.007039433402     0.008683033666    -0.004792138675
      12        0.012423848734    -0.006969885096    -0.008125766044
      13        0.010824432299    -0.000455910089    -0.001153791807
      14       -0.001065978753    -0.001082059531    -0.006601297943
      15        0.005246115705    -0.001030887919     0.004280855912
      16       -0.002624908829     0.001705679172    -0.005333086310
      17        0.001111078074    -0.000893264283     0.004105009094
      18       -0.004511607899     0.001193495391    -0.003918949702
      19        0.001090154001     0.000259511671     0.005492522724
      20        0.000492264654    -0.001033795396    -0.002851983719
      21        0.002301019395    -0.000747310770     0.000443213052
      22       -0.005431881854    -0.005022401667     0.008163957495


*** tstop() called on gpu-2-10.local at Sun Nov 12 13:59:04 2017
Module time:
	user time   =    5179.05 seconds =      86.32 minutes
	system time =     103.58 seconds =       1.73 minutes
	total time  =       2358 seconds =      39.30 minutes
Total time:
	user time   =    5179.06 seconds =      86.32 minutes
	system time =     103.58 seconds =       1.73 minutes
	total time  =       2358 seconds =      39.30 minutes

			-----------------------------------------
			 OPTKING 2.0: for geometry optimizations 
			  - R.A. King,  Bethel University        
			-----------------------------------------

	Internal coordinates to be generated automatically.
	Detected frag 1 with atoms:  1 2 3 4 5 6 7 8 9 10 11 12 13 14 15 16 17 18 19 20
	 21 22
	---Fragment 1 Bond Connectivity---
	 1 : 3 9 14
	 2 : 4 9 15
	 3 : 1 11 16
	 4 : 2 11 17
	 5 : 7 10 18
	 6 : 8 10 19
	 7 : 5 12 20
	 8 : 6 12 21
	 9 : 1 2 10
	 10 : 5 6 9
	 11 : 3 4 13
	 12 : 7 8
	 13 : 11 22
	 14 : 1
	 15 : 2
	 16 : 3
	 17 : 4
	 18 : 5
	 19 : 6
	 20 : 7
	 21 : 8
	 22 : 13

	Assuming in current code that numbering for constraints corresponds to unified fragment.
	Fixed dihedral atom list: 
	     3    11    13    22
	---Fragment 1 Geometry and Gradient---
	 C          -2.3658939024        1.3451231000       -1.1147430397
	 C          -0.4893958525        0.1810518022        2.8801380052
	 C          -4.4030186737        2.4279361742        0.1570426477
	 C          -2.5265206237        1.2638648763        4.1538134188
	 C           1.3700946623       -1.9373311928       -3.4655623490
	 C           4.0837413891       -0.9490044253        0.0436590798
	 C           3.4544625869       -2.9880189227       -4.6504206343
	 C           6.0471668412       -2.0431558563       -1.2980464746
	 C          -0.4081376288        0.2207360509        0.2458597760
	 C           1.7064659139       -0.9017612720       -1.0731690648
	 C          -4.4842768974        2.3882519254        2.7913208770
	 N           5.7920538132       -3.0692771464       -3.6242993442
	 O          -6.4722687892        3.4464985598        4.0328709463
	 H          -2.3299891059        1.3904765272       -3.1688753461
	 H           1.0223850538       -0.6882222190        3.9686202578
	 H          -5.9223584845        3.3009896475       -0.9144320696
	 H          -2.5794329554        1.2279600798        6.2060559991
	 H          -0.4572705082       -1.9354414667       -4.3990870587
	 H           4.4182229146       -0.1609886279        1.9069290468
	 H           3.2919461394       -3.8176086950       -6.5193597798
	 H           7.9368929741       -2.1300832584       -0.5100306772
	 H          -6.7689557920        2.5753348125        5.6202408979
	             0.0084292299       -0.0036271024       -0.0090098458
	             0.0088082922       -0.0061691372       -0.0051994247
	             0.0003232807       -0.0016838832        0.0023118364
	            -0.0066794173        0.0033643603        0.0061308962
	            -0.0098994316        0.0015445236        0.0021492070
	            -0.0049675179        0.0062793187        0.0071606872
	            -0.0126679482        0.0021384038       -0.0002697207
	            -0.0030567115        0.0069719327        0.0110045913
	             0.0026201774       -0.0015158082       -0.0018976287
	             0.0042749442       -0.0019088131       -0.0020891423
	            -0.0070394334        0.0086830337       -0.0047921387
	             0.0124238487       -0.0069698851       -0.0081257660
	             0.0108244323       -0.0004559101       -0.0011537918
	            -0.0010659788       -0.0010820595       -0.0066012979
	             0.0052461157       -0.0010308879        0.0042808559
	            -0.0026249088        0.0017056792       -0.0053330863
	             0.0011110781       -0.0008932643        0.0041050091
	            -0.0045116079        0.0011934954       -0.0039189497
	             0.0010901540        0.0002595117        0.0054925227
	             0.0004922647       -0.0010337954       -0.0028519837
	             0.0023010194       -0.0007473108        0.0004432131
	            -0.0054318819       -0.0050224017        0.0081639575

	Previous optimization step data not found.  Starting new optimization.

	---Fragment 1 Intrafragment Coordinates---
	 - Coordinate -           - BOHR/RAD -       - ANG/DEG -
	 R(1,3)           =         2.634350	       1.394038
	 R(1,9)           =         2.635962	       1.394891
	 R(1,14)          =         2.054947	       1.087431
	 R(2,4)           =         2.635263	       1.394521
	 R(2,9)           =         2.635830	       1.394821
	 R(2,15)          =         2.055702	       1.087831
	 R(3,11)          =         2.635830	       1.394821
	 R(3,16)          =         2.053941	       1.086899
	 R(4,11)          =         2.636938	       1.395407
	 R(4,17)          =         2.053239	       1.086527
	 R(5,7)           =         2.617713	       1.385234
	 R(5,10)          =         2.628516	       1.390951
	 R(5,18)          =         2.052008	       1.085876
	 R(6,8)           =         2.617705	       1.385230
	 R(6,10)          =         2.626971	       1.390133
	 R(6,19)          =         2.050517	       1.085087
	 R(7,12)          =         2.554185	       1.351616
	 R(7,20)          =         2.051235	       1.085467
	 R(8,12)          =         2.555281	       1.352196
	 R(8,21)          =         2.049290	       1.084438
	 R(9,10)          =         2.733384	       1.446444
	 R(11,13)         =         2.571662	       1.360865
	 R(13,22)         =         1.834855	       0.970963
	 B(1,3,11)        =         2.094553	     120.009056
	 B(1,3,16)        =         2.088505	     119.662516
	 B(1,9,2)         =         2.093692	     119.959722
	 B(1,9,10)        =         2.095161	     120.043881
	 B(2,4,11)        =         2.093699	     119.960108
	 B(2,4,17)        =         2.089577	     119.723926
	 B(2,9,10)        =         2.094332	     119.996376
	 B(3,1,9)         =         2.094940	     120.031219
	 B(3,1,14)        =         2.079469	     119.144799
	 B(3,11,4)        =         2.094306	     119.994870
	 B(3,11,13)       =         2.094549	     120.008801
	 B(4,2,9)         =         2.095181	     120.045019
	 B(4,2,15)        =         2.078675	     119.099297
	 B(4,11,13)       =         2.094331	     119.996326
	 B(5,7,12)        =         2.164774	     124.032419
	 B(5,7,20)        =         2.107900	     120.773750
	 B(5,10,6)        =         2.089402	     119.713913
	 B(5,10,9)        =         2.096711	     120.132663
	 B(6,8,12)        =         2.164670	     124.026428
	 B(6,8,21)        =         2.108649	     120.816676
	 B(6,10,9)        =         2.097073	     120.153413
	 B(7,5,10)        =         2.058056	     117.917911
	 B(7,5,18)        =         2.098486	     120.234396
	 B(7,12,8)        =         2.031222	     116.380442
	 B(8,6,10)        =         2.058246	     117.928826
	 B(8,6,19)        =         2.099051	     120.266760
	 B(9,1,14)        =         2.108776	     120.823969
	 B(9,2,15)        =         2.109330	     120.855683
	 B(10,5,18)       =         2.126643	     121.847689
	 B(10,6,19)       =         2.125888	     121.804412
	 B(11,3,16)       =         2.100127	     120.328425
	 B(11,4,17)       =         2.099910	     120.315955
	 B(11,13,22)      =         1.925470	     110.321296
	 B(12,7,20)       =         2.010511	     115.193804
	 B(12,8,21)       =         2.009864	     115.156734
	 D(1,3,11,4)      =        -0.000325	      -0.018609
	 D(1,3,11,13)     =         3.140978	     179.964785
	 D(1,9,2,4)       =         0.000325	       0.018608
	 D(1,9,2,15)      =        -3.141497	    -179.994534
	 D(1,9,10,5)      =        -0.524224	     -30.035797
	 D(1,9,10,6)      =         2.616694	     149.925506
	 D(2,4,11,3)      =         0.000301	       0.017261
	 D(2,4,11,13)     =        -3.141002	    -179.966135
	 D(2,9,1,3)       =        -0.000348	      -0.019945
	 D(2,9,1,14)      =        -3.141221	    -179.978731
	 D(2,9,10,5)      =         2.618285	     150.016707
	 D(2,9,10,6)      =        -0.523983	     -30.021991
	 D(3,1,9,10)      =        -3.141025	    -179.967461
	 D(3,11,4,17)     =         3.141223	     179.978848
	 D(3,11,13,22)    =         2.617497	     149.971503
	 D(4,2,9,10)      =         3.141002	     179.966149
	 D(4,11,3,16)     =         3.141593	     180.000000
	 D(4,11,13,22)    =        -0.524386	     -30.045103
	 D(5,7,12,8)      =        -0.001332	      -0.076323
	 D(5,10,6,8)      =         0.000381	       0.021838
	 D(5,10,6,19)     =        -3.140989	    -179.965395
	 D(6,8,12,7)      =         0.001671	       0.095732
	 D(6,10,5,7)      =        -0.000077	      -0.004437
	 D(6,10,5,18)     =        -3.141299	    -179.983151
	 D(7,5,10,9)      =         3.140843	     179.957036
	 D(7,12,8,21)     =         3.140716	     179.949799
	 D(8,6,10,9)      =        -3.140539	    -179.939628
	 D(8,12,7,20)     =         3.139212	     179.863574
	 D(9,1,3,11)      =         0.000348	       0.019955
	 D(9,1,3,16)      =        -3.141571	    -179.998735
	 D(9,2,4,11)      =        -0.000301	      -0.017270
	 D(9,2,4,17)      =        -3.141228	    -179.979086
	 D(9,10,5,18)     =        -0.000378	      -0.021678
	 D(9,10,6,19)     =         0.001277	       0.073140
	 D(10,5,7,12)     =         0.000580	       0.033223
	 D(10,5,7,20)     =        -3.139908	    -179.903478
	 D(10,6,8,12)     =        -0.001235	      -0.070741
	 D(10,6,8,21)     =        -3.140143	    -179.916933
	 D(10,9,1,14)     =         0.001287	       0.073752
	 D(10,9,2,15)     =        -0.000820	      -0.046992
	 D(11,3,1,14)     =         3.141234	     179.979432
	 D(11,4,2,15)     =         3.141517	     179.995641
	 D(12,7,5,18)     =        -3.141378	    -179.987706
	 D(12,8,6,19)     =         3.140139	     179.916697
	 D(13,11,3,16)    =        -0.000286	      -0.016400
	 D(13,11,4,17)    =        -0.000079	      -0.004548
	 D(14,1,3,16)     =        -0.000685	      -0.039257
	 D(15,2,4,17)     =         0.000590	       0.033826
	 D(18,5,7,20)     =         0.001319	       0.075593
	 D(19,6,8,21)     =         0.001231	       0.070505

	Current energy   :      -553.7203559862

	Generating empirical Hessian (Schlegel '84) for each fragment.
	Adding user-defined constraint: Fragment 1; Coordinate 73:
		Value =     2.617497; Fixed value    =     2.617994
		Force =     0.000249; Force constant =     0.500000
	Removing off-diagonal coupling between coordinate 73 and others.
	Taking RFO optimization step.
	Going to follow RFO solution 1.
	Using RFO vector 1.

	Determining step-restricting scale parameter for RS-RFO.
	Maximum step size allowed    0.10000

	 Iter      |step|        alpha        rfo_root  
	------------------------------------------------
	    0     0.25501       1.00000           1
	    1     0.18257       3.69893           1
	    2     0.14193      10.08726           1
	    3     0.11609      22.24618           1
	    4     0.10333      33.71561           1
	    5     0.10019      37.43543           1
	    6     0.10000      37.66810           1
	------------------------------------------------
	Norm of target step-size    0.10000
	Projected energy change by RFO approximation:        -0.0048298201

	Back-transformation to cartesian coordinates...
	Could not converge backtransformation.
	Using first guess instead.

	--- Internal Coordinate Step in ANG or DEG, aJ/ANG or AJ/DEG ---
	 ---------------------------------------------------------------------------
	   Coordinate                Previous        Force       Change         New 
	   ----------                --------       ------       ------       ------
	    1 R(1,3)          =      1.394038    -0.056385    -0.005639     1.388399
	    2 R(1,9)          =      1.394891    -0.001372     0.000142     1.395033
	    3 R(1,14)         =      1.087431    -0.054015    -0.006498     1.080933
	    4 R(2,4)          =      1.394521    -0.061051    -0.006052     1.388469
	    5 R(2,9)          =      1.394821    -0.009294    -0.000698     1.394124
	    6 R(2,15)         =      1.087831    -0.054051    -0.006525     1.081306
	    7 R(3,11)         =      1.394821    -0.084134    -0.008537     1.386284
	    8 R(3,16)         =      1.086899    -0.044892    -0.005386     1.081513
	    9 R(4,11)         =      1.395407    -0.042362    -0.004337     1.391071
	   10 R(4,17)         =      1.086527    -0.033696    -0.004063     1.082464
	   11 R(5,7)          =      1.385234     0.001637     0.000148     1.385382
	   12 R(5,10)         =      1.390951     0.003791     0.000915     1.391866
	   13 R(5,18)         =      1.085876    -0.047798    -0.005722     1.080154
	   14 R(6,8)          =      1.385230     0.001608     0.000143     1.385373
	   15 R(6,10)         =      1.390133     0.009418     0.001571     1.391704
	   16 R(6,19)         =      1.085087    -0.043406    -0.005164     1.079924
	   17 R(7,12)         =      1.351616    -0.122706    -0.011159     1.340457
	   18 R(7,20)         =      1.085467    -0.024532    -0.002931     1.082536
	   19 R(8,12)         =      1.352196    -0.126612    -0.011535     1.340661
	   20 R(8,21)         =      1.084438    -0.019147    -0.002279     1.082159
	   21 R(9,10)         =      1.446444     0.154456     0.017519     1.463963
	   22 R(11,13)        =      1.360865     0.025034     0.002585     1.363449
	   23 R(13,22)        =      0.970963    -0.085069    -0.007661     0.963303
	   24 B(1,3,11)       =    120.009056     0.000011    -0.032309   119.976747
	   25 B(1,3,16)       =    119.662516     0.000223     0.525149   120.187665
	   26 B(1,9,2)        =    119.959722    -0.000797    -1.370267   118.589455
	   27 B(1,9,10)       =    120.043881     0.000404     0.696275   120.740156
	   28 B(2,4,11)       =    119.960108     0.000129     0.206802   120.166910
	   29 B(2,4,17)       =    119.723926     0.000049     0.150671   119.874597
	   30 B(2,9,10)       =    119.996376     0.000393     0.674000   120.670376
	   31 B(3,1,9)        =    120.031219     0.000475     0.891269   120.922488
	   32 B(3,1,14)       =    119.144799    -0.000203    -0.371680   118.773120
	   33 B(3,11,4)       =    119.994870    -0.000125    -0.286560   119.708310
	   34 B(3,11,13)      =    120.008801    -0.000697    -1.187796   118.821005
	   35 B(4,2,9)        =    120.045019     0.000307     0.591023   120.636042
	   36 B(4,2,15)       =    119.099297    -0.000083    -0.141842   118.957455
	   37 B(4,11,13)      =    119.996326     0.000822     1.474254   121.470580
	   38 B(5,7,12)       =    124.032419     0.000045     0.007701   124.040119
	   39 B(5,7,20)       =    120.773750    -0.000075    -0.120673   120.653077
	   40 B(5,10,6)       =    119.713913    -0.001209    -2.010344   117.703569
	   41 B(5,10,9)       =    120.132663     0.000600     0.996602   121.129265
	   42 B(6,8,12)       =    124.026428     0.000040    -0.003708   124.022720
	   43 B(6,8,21)       =    120.816676    -0.000076    -0.123996   120.692680
	   44 B(6,10,9)       =    120.153413     0.000609     1.013746   121.167158
	   45 B(7,5,10)       =    117.917911     0.000530     1.049496   118.967407
	   46 B(7,5,18)       =    120.234396    -0.000209    -0.401861   119.832535
	   47 B(7,12,8)       =    116.380442     0.000061    -0.097613   116.282829
	   48 B(8,6,10)       =    117.928826     0.000532     1.054483   118.983309
	   49 B(8,6,19)       =    120.266760    -0.000217    -0.421420   119.845340
	   50 B(9,1,14)       =    120.823969    -0.000272    -0.519744   120.304225
	   51 B(9,2,15)       =    120.855683    -0.000223    -0.449539   120.406144
	   52 B(10,5,18)      =    121.847689    -0.000321    -0.648078   121.199612
	   53 B(10,6,19)      =    121.804412    -0.000316    -0.633541   121.170872
	   54 B(11,3,16)      =    120.328425    -0.000234    -0.492985   119.835440
	   55 B(11,4,17)      =    120.315955    -0.000179    -0.357462   119.958493
	   56 B(11,13,22)     =    110.321296    -0.000370    -0.816230   109.505066
	   57 B(12,7,20)      =    115.193804     0.000029     0.112965   115.306770
	   58 B(12,8,21)      =    115.156734     0.000036     0.127865   115.284599
	   59 D(1,3,11,4)     =     -0.018609    -0.000001    -0.046857    -0.065466
	   60 D(1,3,11,13)    =    179.964785    -0.000011    -0.146104   179.818681
	   61 D(1,9,2,4)      =      0.018608    -0.000001    -0.021222    -0.002614
	   62 D(1,9,2,15)     =   -179.994534    -0.000013    -0.228286  -180.222820
	   63 D(1,9,10,5)     =    -30.035797    -0.000028    -0.482491   -30.518287
	   64 D(1,9,10,6)     =    149.925506    -0.000028    -0.477061   149.448445
	   65 D(2,4,11,3)     =      0.017261    -0.000002    -0.004415     0.012846
	   66 D(2,4,11,13)    =   -179.966135     0.000008     0.097988  -179.868146
	   67 D(2,9,1,3)      =     -0.019945    -0.000002    -0.030671    -0.050616
	   68 D(2,9,1,14)     =   -179.978731    -0.000014    -0.222597  -180.201329
	   69 D(2,9,10,5)     =    150.016707    -0.000028    -0.493426   149.523280
	   70 D(2,9,10,6)     =    -30.021991    -0.000028    -0.487997   -30.509988
	   71 D(3,1,9,10)     =   -179.967461    -0.000002    -0.042437  -180.009898
	   72 D(3,11,4,17)    =    179.978848    -0.000000     0.024126   180.002975
	   73 D(3,11,13,22)   =    149.971503     0.000024     0.153534   150.125037
	   74 D(4,2,9,10)     =    179.966149    -0.000001    -0.009451   179.956698
	   75 D(4,11,3,16)    =    180.000000     0.000006     0.074094   180.074094
	   76 D(4,11,13,22)   =    -30.045103     0.000013     0.052161   -29.992942
	   77 D(5,7,12,8)     =     -0.076323     0.000001     0.019277    -0.057046
	   78 D(5,10,6,8)     =      0.021838    -0.000000     0.001600     0.023437
	   79 D(5,10,6,19)    =   -179.965395    -0.000016    -0.263443  -180.228839
	   80 D(6,8,12,7)     =      0.095732    -0.000001    -0.011831     0.083901
	   81 D(6,10,5,7)     =     -0.004437     0.000000     0.005333     0.000895
	   82 D(6,10,5,18)    =   -179.983151    -0.000016    -0.259388  -180.242539
	   83 D(7,5,10,9)     =    179.957036     0.000001     0.011708   179.968744
	   84 D(7,12,8,21)    =    179.949799     0.000008     0.137221   180.087020
	   85 D(8,6,10,9)     =   -179.939628    -0.000000    -0.004771  -179.944398
	   86 D(8,12,7,20)    =    179.863574     0.000009     0.146662   180.010235
	   87 D(9,1,3,11)     =      0.019955     0.000003     0.065220     0.085174
	   88 D(9,1,3,16)     =   -179.998735    -0.000004    -0.056147  -180.054882
	   89 D(9,2,4,11)     =     -0.017270     0.000003     0.038567     0.021296
	   90 D(9,2,4,17)     =   -179.979086     0.000001     0.010245  -179.968840
	   91 D(9,10,5,18)    =     -0.021678    -0.000015    -0.253013    -0.274691
	   92 D(9,10,6,19)    =      0.073140    -0.000017    -0.269814    -0.196674
	   93 D(10,5,7,12)    =      0.033223    -0.000001    -0.016510     0.016712
	   94 D(10,5,7,20)    =   -179.903478    -0.000009    -0.150513  -180.053991
	   95 D(10,6,8,12)    =     -0.070741     0.000000     0.001336    -0.069404
	   96 D(10,6,8,21)    =   -179.916933    -0.000009    -0.155751  -180.072683
	   97 D(10,9,1,14)    =      0.073752    -0.000014    -0.234364    -0.160611
	   98 D(10,9,2,15)    =     -0.046992    -0.000013    -0.216515    -0.263508
	   99 D(11,3,1,14)    =    179.979432     0.000015     0.254190   180.233622
	  100 D(11,4,2,15)    =    179.995641     0.000015     0.242710   180.238351
	  101 D(12,7,5,18)    =   -179.987706     0.000015     0.244453  -179.743253
	  102 D(12,8,6,19)    =    179.916697     0.000016     0.262759   180.179456
	  103 D(13,11,3,16)   =     -0.016400    -0.000005    -0.025360    -0.041760
	  104 D(13,11,4,17)   =     -0.004548     0.000010     0.126530     0.121982
	  105 D(14,1,3,16)    =     -0.039257     0.000008     0.132823     0.093566
	  106 D(15,2,4,17)    =      0.033826     0.000013     0.214389     0.248214
	  107 D(18,5,7,20)    =      0.075593     0.000007     0.110450     0.186043
	  108 D(19,6,8,21)    =      0.070505     0.000006     0.105672     0.176177
	 ---------------------------------------------------------------------------
	Successfully symmetrized geometry.
	 Forces used to impose fixed constraints are not included.
	  Forces zeroed: 73 

  ==> Convergence Check <==

  Measures of convergence in internal coordinates in au.
  Criteria marked as inactive (o), active & met (*), and active & unmet ( ).
  --------------------------------------------------------------------------------------------- ~
   Step     Total Energy     Delta E     MAX Force     RMS Force      MAX Disp      RMS Disp    ~
  --------------------------------------------------------------------------------------------- ~
    Convergence Criteria    1.00e-06 *    3.00e-04 *             o    1.20e-03 *             o  ~
  --------------------------------------------------------------------------------------------- ~
      1    -553.72035599   -5.54e+02      1.87e-02      4.74e-03 o    3.51e-02      9.61e-03 o  ~
  ---------------------------------------------------------------------------------------------

	Writing optimization data to binary file.
	Structure for next step:
	Cartesian Geometry (in Angstrom)
	    C    -1.2652866224   0.7233331502  -0.5627314174
	    C    -0.2793204908   0.1004390030   1.5327183463
	    C    -2.3402014230   1.2932715280   0.1061333776
	    C    -1.3522865977   0.6704462729   2.2047908360
	    C     0.7512554187  -1.0375873627  -1.8350394708
	    C     2.1796920421  -0.5124730264  -0.0022743876
	    C     1.8526282535  -1.5928229711  -2.4658927838
	    C     3.2181829902  -1.0904097359  -0.7141624113
	    C    -0.2221916093   0.1196931960   0.1398989351
	    C     0.9092150280  -0.4802471219  -0.5694523497
	    C    -2.3858505682   1.2687488526   1.4914482399
	    N     3.0819986530  -1.6318894457  -1.9330249056
	    O    -3.4506374061   1.8387090724   2.1241949377
	    H    -1.2476920762   0.7568196346  -1.6430025230
	    H     0.5114564418  -0.3628367693   2.1065388996
	    H    -3.1420657459   1.7589518099  -0.4504869717
	    H    -1.3838223531   0.6489627912   3.2865816742
	    H    -0.2106496837  -1.0466775547  -2.3263528304
	    H     2.3662475733  -0.0930113915   0.9752141679
	    H     1.7605810468  -2.0344173570  -3.4499688121
	    H     4.2172221367  -1.1293919902  -0.3000744003
	    H    -3.6129718920   1.3811761355   2.9562184282
			--------------------------
			 OPTKING Finished Execution 
			--------------------------

    Structure for next step:
    Molecular point group: c1
    Full point group: C1

    Geometry (in Angstrom), charge = 0, multiplicity = 1:

    C           -1.265329548165     0.723415805168    -0.562596803254
    C           -0.279363416627     0.100521657926     1.532852960387
    C           -2.340244348786     1.293354182977     0.106267991711
    C           -1.352329523467     0.670528927849     2.204925450145
    C            0.751212492945    -1.037504707727    -1.834904856705
    C            2.179649116369    -0.512390371446    -0.002139773423
    C            1.852585327728    -1.592740316151    -2.465758169673
    C            3.218140064416    -1.090327080886    -0.714027797175
    C           -0.222234535123     0.119775850970     0.140033549228
    C            0.909172102236    -0.480164466894    -0.569317735527
    C           -2.385893494026     1.268831507528     1.491582854060
    N            3.081955727247    -1.631806790730    -1.932890291429
    O           -3.450680331832     1.838791727413     2.124329551839
    H           -1.247735002012     0.756902289519    -1.642867908826
    H            0.511413515995    -0.362754114335     2.106673513743
    H           -3.142108671702     1.759034464856    -0.450352357577
    H           -1.383865278911     0.649045446208     3.286716288354
    H           -0.210692609474    -1.046594899687    -2.326218216241
    H            2.366204647539    -0.092928736504     0.975348782056
    H            1.760538121030    -2.034334701993    -3.449834197933
    H            4.217179210945    -1.129309335235    -0.299939786143
    H           -3.613014817731     1.381258790446     2.956353042300

gradient() will perform analytic gradient computation.

*** tstart() called on gpu-2-10.local
*** at Sun Nov 12 13:59:05 2017

    SCF Algorithm Type (re)set to DF.

*** tstart() called on gpu-2-10.local
*** at Sun Nov 12 13:59:05 2017

   => Loading Basis Set <=

    Name: AUG-CC-PVTZ
    Role: ORBITAL
    Keyword: BASIS
    atoms 1-11  entry C          line   221 file /cbio/jclab/home/chayas/anaconda/envs/py35/share/psi4/basis/aug-cc-pvtz.gbs 
    atoms 12    entry N          line   267 file /cbio/jclab/home/chayas/anaconda/envs/py35/share/psi4/basis/aug-cc-pvtz.gbs 
    atoms 13    entry O          line   313 file /cbio/jclab/home/chayas/anaconda/envs/py35/share/psi4/basis/aug-cc-pvtz.gbs 
    atoms 14-22 entry H          line    34 file /cbio/jclab/home/chayas/anaconda/envs/py35/share/psi4/basis/aug-cc-pvtz.gbs 


         ---------------------------------------------------------
                                   SCF
            by Justin Turney, Rob Parrish, and Andy Simmonett
                              RHF Reference
                        8 Threads,   4768 MiB Core
         ---------------------------------------------------------

  ==> Geometry <==

    Molecular point group: c1
    Full point group: C1

    Geometry (in Angstrom), charge = 0, multiplicity = 1:

       Center              X                  Y                   Z               Mass       
    ------------   -----------------  -----------------  -----------------  -----------------
           C         -1.265329548165     0.723415805168    -0.562596803254    12.000000000000
           C         -0.279363416627     0.100521657926     1.532852960387    12.000000000000
           C         -2.340244348786     1.293354182977     0.106267991711    12.000000000000
           C         -1.352329523467     0.670528927849     2.204925450145    12.000000000000
           C          0.751212492945    -1.037504707727    -1.834904856705    12.000000000000
           C          2.179649116369    -0.512390371446    -0.002139773423    12.000000000000
           C          1.852585327728    -1.592740316151    -2.465758169673    12.000000000000
           C          3.218140064416    -1.090327080886    -0.714027797175    12.000000000000
           C         -0.222234535123     0.119775850970     0.140033549228    12.000000000000
           C          0.909172102236    -0.480164466894    -0.569317735527    12.000000000000
           C         -2.385893494026     1.268831507528     1.491582854060    12.000000000000
           N          3.081955727247    -1.631806790730    -1.932890291429    14.003074004780
           O         -3.450680331832     1.838791727413     2.124329551839    15.994914619560
           H         -1.247735002012     0.756902289519    -1.642867908826     1.007825032070
           H          0.511413515995    -0.362754114335     2.106673513743     1.007825032070
           H         -3.142108671702     1.759034464856    -0.450352357577     1.007825032070
           H         -1.383865278911     0.649045446208     3.286716288354     1.007825032070
           H         -0.210692609474    -1.046594899687    -2.326218216241     1.007825032070
           H          2.366204647539    -0.092928736504     0.975348782056     1.007825032070
           H          1.760538121030    -2.034334701993    -3.449834197933     1.007825032070
           H          4.217179210945    -1.129309335235    -0.299939786143     1.007825032070
           H         -3.613014817731     1.381258790446     2.956353042300     1.007825032070

  Running in c1 symmetry.

  Rotational constants: A =      0.09841  B =      0.01334  C =      0.01195 [cm^-1]
  Rotational constants: A =   2950.25571  B =    399.91204  C =    358.26652 [MHz]
  Nuclear repulsion =  697.651133227107380

  Charge       = 0
  Multiplicity = 1
  Electrons    = 90
  Nalpha       = 45
  Nbeta        = 45

  ==> Algorithm <==

  SCF Algorithm Type is DF.
  DIIS enabled.
  MOM disabled.
  Fractional occupation disabled.
  Guess Type is READ.
  Energy threshold   = 1.00e-10
  Density threshold  = 1.00e-10
  Integral threshold = 0.00e+00

  ==> Primary Basis <==

  Basis Set: AUG-CC-PVTZ
    Blend: AUG-CC-PVTZ
    Number of shells: 263
    Number of basis function: 805
    Number of Cartesian functions: 940
    Spherical Harmonics?: true
    Max angular momentum: 3

   => Loading Basis Set <=

    Name: (AUG-CC-PVTZ AUX)
    Role: JKFIT
    Keyword: DF_BASIS_SCF
    atoms 1-11  entry C          line   161 file /cbio/jclab/home/chayas/anaconda/envs/py35/share/psi4/basis/aug-cc-pvtz-jkfit.gbs 
    atoms 12    entry N          line   223 file /cbio/jclab/home/chayas/anaconda/envs/py35/share/psi4/basis/aug-cc-pvtz-jkfit.gbs 
    atoms 13    entry O          line   285 file /cbio/jclab/home/chayas/anaconda/envs/py35/share/psi4/basis/aug-cc-pvtz-jkfit.gbs 
    atoms 14-22 entry H          line    69 file /cbio/jclab/home/chayas/anaconda/envs/py35/share/psi4/basis/aug-cc-pvtz-jkfit.gbs 

  Reading orbitals from file 180, no projection.

  ==> Pre-Iterations <==

   -------------------------------------------------------
    Irrep   Nso     Nmo     Nalpha   Nbeta   Ndocc  Nsocc
   -------------------------------------------------------
     A        805     805       0       0       0       0
   -------------------------------------------------------
    Total     805     805      45      45      45       0
   -------------------------------------------------------

  ==> Integral Setup <==

  ==> DFJK: Density-Fitted J/K Matrices <==

    J tasked:                  Yes
    K tasked:                  Yes
    wK tasked:                  No
    OpenMP threads:              8
    Integrals threads:           8
    Memory (MB):              3576
    Algorithm:                Disk
    Integral Cache:           NONE
    Schwarz Cutoff:          1E-12
    Fitting Condition:       1E-12

   => Auxiliary Basis Set <=

  Basis Set: (AUG-CC-PVTZ AUX)
    Blend: AUG-CC-PVTZ-JKFIT
    Number of shells: 516
    Number of basis function: 1766
    Number of Cartesian functions: 2198
    Spherical Harmonics?: true
    Max angular momentum: 4

  Minimum eigenvalue in the overlap matrix is 6.0395614507E-07.
  Using Symmetric Orthogonalization.

  SCF Guess: Orbitals guess was supplied from a previous computation.

  ==> Iterations <==

                           Total Energy        Delta E     RMS |[F,P]|

   @DF-RHF iter   0:  -551.43459823712362   -5.51435e+02   4.73760e-04 
   @DF-RHF iter   1:  -551.28859596583425    1.46002e-01   1.16042e-04 
   @DF-RHF iter   2:  -551.28952439726083   -9.28431e-04   1.08130e-04 DIIS
   @DF-RHF iter   3:  -551.29040242474093   -8.78027e-04   1.38046e-05 DIIS
   @DF-RHF iter   4:  -551.29041683118305   -1.44064e-05   5.22066e-06 DIIS
   @DF-RHF iter   5:  -551.29041926476805   -2.43358e-06   1.45426e-06 DIIS
   @DF-RHF iter   6:  -551.29041959061556   -3.25848e-07   8.25354e-07 DIIS
   @DF-RHF iter   7:  -551.29041970560377   -1.14988e-07   3.20743e-07 DIIS
   @DF-RHF iter   8:  -551.29041974013444   -3.45307e-08   1.43979e-07 DIIS
   @DF-RHF iter   9:  -551.29041974632662   -6.19218e-09   5.55198e-08 DIIS
   @DF-RHF iter  10:  -551.29041974704239   -7.15772e-10   1.98608e-08 DIIS
   @DF-RHF iter  11:  -551.29041974713846   -9.60654e-11   6.42156e-09 DIIS
   @DF-RHF iter  12:  -551.29041974715699   -1.85310e-11   3.01111e-09 DIIS
   @DF-RHF iter  13:  -551.29041974716745   -1.04592e-11   1.69974e-09 DIIS
   @DF-RHF iter  14:  -551.29041974717313   -5.68434e-12   7.65131e-10 DIIS
   @DF-RHF iter  15:  -551.29041974716893    4.20641e-12   3.09113e-10 DIIS
   @DF-RHF iter  16:  -551.29041974714835    2.05773e-11   9.91448e-11 DIIS

  ==> Post-Iterations <==

    Orbital Energies (a.u.)
    -----------------------

    Doubly Occupied:                                                      

       1A    -20.598315     2A    -15.560317     3A    -11.312171  
       4A    -11.272141     5A    -11.272066     6A    -11.265760  
       7A    -11.253455     8A    -11.251855     9A    -11.247853  
      10A    -11.244329    11A    -11.239677    12A    -11.235782  
      13A    -11.235675    14A     -1.415477    15A     -1.254646  
      16A     -1.174861    17A     -1.104971    18A     -1.039431  
      19A     -1.029640    20A     -1.012256    21A     -0.881274  
      22A     -0.872973    23A     -0.841332    24A     -0.812379  
      25A     -0.749768    26A     -0.725375    27A     -0.684603  
      28A     -0.664119    29A     -0.653246    30A     -0.634868  
      31A     -0.624204    32A     -0.608320    33A     -0.600602  
      34A     -0.592016    35A     -0.568638    36A     -0.543949  
      37A     -0.531832    38A     -0.523477    39A     -0.498827  
      40A     -0.496761    41A     -0.417692    42A     -0.398442  
      43A     -0.355922    44A     -0.348225    45A     -0.310592  

    Virtual:                                                              

      46A      0.021985    47A      0.029488    48A      0.032039  
      49A      0.039285    50A      0.042841    51A      0.044624  
      52A      0.055052    53A      0.056502    54A      0.062210  
      55A      0.077322    56A      0.078901    57A      0.083270  
      58A      0.087849    59A      0.094065    60A      0.095927  
      61A      0.102489    62A      0.105074    63A      0.108451  
      64A      0.111428    65A      0.112517    66A      0.114774  
      67A      0.120031    68A      0.121221    69A      0.126006  
      70A      0.129440    71A      0.132757    72A      0.134249  
      73A      0.136617    74A      0.142673    75A      0.147832  
      76A      0.148406    77A      0.151627    78A      0.153521  
      79A      0.157583    80A      0.162682    81A      0.168215  
      82A      0.173460    83A      0.175379    84A      0.182681  
      85A      0.184068    86A      0.186710    87A      0.201568  
      88A      0.204445    89A      0.213244    90A      0.216416  
      91A      0.220653    92A      0.225604    93A      0.226508  
      94A      0.236178    95A      0.241346    96A      0.242004  
      97A      0.245785    98A      0.250179    99A      0.252952  
     100A      0.257011   101A      0.259126   102A      0.265316  
     103A      0.265743   104A      0.270804   105A      0.274603  
     106A      0.275709   107A      0.285092   108A      0.288904  
     109A      0.293156   110A      0.296876   111A      0.300594  
     112A      0.302936   113A      0.304989   114A      0.313100  
     115A      0.317881   116A      0.321362   117A      0.322384  
     118A      0.326688   119A      0.329545   120A      0.333440  
     121A      0.339704   122A      0.342565   123A      0.349138  
     124A      0.356665   125A      0.360952   126A      0.365329  
     127A      0.369513   128A      0.375566   129A      0.386398  
     130A      0.386631   131A      0.395653   132A      0.398261  
     133A      0.400662   134A      0.410608   135A      0.419242  
     136A      0.420578   137A      0.423658   138A      0.427527  
     139A      0.430581   140A      0.435872   141A      0.437324  
     142A      0.439693   143A      0.445374   144A      0.448329  
     145A      0.450136   146A      0.451942   147A      0.458455  
     148A      0.461851   149A      0.466495   150A      0.467935  
     151A      0.473612   152A      0.475518   153A      0.484094  
     154A      0.486810   155A      0.489495   156A      0.493792  
     157A      0.499286   158A      0.502766   159A      0.504557  
     160A      0.506670   161A      0.509120   162A      0.511820  
     163A      0.515054   164A      0.518887   165A      0.519820  
     166A      0.527074   167A      0.527958   168A      0.532105  
     169A      0.535627   170A      0.537769   171A      0.542786  
     172A      0.548366   173A      0.551833   174A      0.552975  
     175A      0.556522   176A      0.561512   177A      0.569202  
     178A      0.578215   179A      0.581192   180A      0.585890  
     181A      0.591412   182A      0.595751   183A      0.603459  
     184A      0.612429   185A      0.614477   186A      0.625058  
     187A      0.628791   188A      0.633037   189A      0.636153  
     190A      0.639549   191A      0.650539   192A      0.659770  
     193A      0.667964   194A      0.678120   195A      0.686208  
     196A      0.689542   197A      0.692212   198A      0.700682  
     199A      0.704513   200A      0.709052   201A      0.710398  
     202A      0.719209   203A      0.722242   204A      0.727890  
     205A      0.734378   206A      0.739018   207A      0.742866  
     208A      0.750041   209A      0.755028   210A      0.759600  
     211A      0.764096   212A      0.769057   213A      0.775758  
     214A      0.779809   215A      0.793425   216A      0.801258  
     217A      0.805849   218A      0.808712   219A      0.819170  
     220A      0.823618   221A      0.829265   222A      0.835273  
     223A      0.839963   224A      0.844855   225A      0.852668  
     226A      0.855541   227A      0.862008   228A      0.866957  
     229A      0.874095   230A      0.879343   231A      0.881125  
     232A      0.883969   233A      0.886056   234A      0.893694  
     235A      0.896793   236A      0.900987   237A      0.907454  
     238A      0.908771   239A      0.917504   240A      0.920225  
     241A      0.926941   242A      0.932803   243A      0.938324  
     244A      0.941745   245A      0.946093   246A      0.953690  
     247A      0.960531   248A      0.962523   249A      0.967805  
     250A      0.971480   251A      0.972709   252A      0.981637  
     253A      0.982262   254A      0.984558   255A      0.989500  
     256A      0.997753   257A      1.000146   258A      1.005959  
     259A      1.011393   260A      1.013562   261A      1.016714  
     262A      1.021801   263A      1.024408   264A      1.027708  
     265A      1.033262   266A      1.035359   267A      1.039710  
     268A      1.043253   269A      1.048415   270A      1.050982  
     271A      1.054430   272A      1.065737   273A      1.069824  
     274A      1.078613   275A      1.083168   276A      1.086524  
     277A      1.090721   278A      1.094755   279A      1.096714  
     280A      1.101178   281A      1.103223   282A      1.106325  
     283A      1.113737   284A      1.114725   285A      1.118336  
     286A      1.119452   287A      1.135104   288A      1.138319  
     289A      1.143485   290A      1.152192   291A      1.159404  
     292A      1.161523   293A      1.164076   294A      1.170309  
     295A      1.176067   296A      1.179499   297A      1.182503  
     298A      1.187049   299A      1.191967   300A      1.196432  
     301A      1.199668   302A      1.209398   303A      1.215152  
     304A      1.216536   305A      1.219896   306A      1.223190  
     307A      1.226683   308A      1.235301   309A      1.240911  
     310A      1.250789   311A      1.262227   312A      1.269857  
     313A      1.271834   314A      1.277201   315A      1.283596  
     316A      1.288948   317A      1.296228   318A      1.299922  
     319A      1.306187   320A      1.308925   321A      1.318827  
     322A      1.327539   323A      1.331810   324A      1.334618  
     325A      1.341935   326A      1.345822   327A      1.357744  
     328A      1.364628   329A      1.370864   330A      1.381122  
     331A      1.384178   332A      1.397708   333A      1.403722  
     334A      1.410731   335A      1.416413   336A      1.429962  
     337A      1.441851   338A      1.449450   339A      1.453047  
     340A      1.456867   341A      1.463901   342A      1.473629  
     343A      1.489333   344A      1.496546   345A      1.499568  
     346A      1.509026   347A      1.513324   348A      1.518835  
[...]
	 R(8,12)          =         2.522913	       1.335068
	 R(8,21)          =         2.043030	       1.081125
	 R(9,10)          =         2.761404	       1.461272
	 R(11,13)         =         2.582668	       1.366689
	 R(13,22)         =         1.816818	       0.961419
	 B(1,3,11)        =         2.092645	     119.899738
	 B(1,3,16)        =         2.115163	     121.189920
	 B(1,9,2)         =         2.062516	     118.173487
	 B(1,9,10)        =         2.111220	     120.963968
	 B(2,4,11)        =         2.093876	     119.970242
	 B(2,4,17)        =         2.097166	     120.158779
	 B(2,9,10)        =         2.109447	     120.862399
	 B(3,1,9)         =         2.114669	     121.161618
	 B(3,1,14)        =         2.081549	     119.263959
	 B(3,11,4)        =         2.090222	     119.760911
	 B(3,11,13)       =         2.053258	     117.642994
	 B(4,2,9)         =         2.112352	     121.028860
	 B(4,2,15)        =         2.082104	     119.295771
	 B(4,11,13)       =         2.139691	     122.595243
	 B(5,7,12)        =         2.159458	     123.727851
	 B(5,7,20)        =         2.094838	     120.025383
	 B(5,10,6)        =         2.035109	     116.603148
	 B(5,10,9)        =         2.124076	     121.700617
	 B(6,8,12)        =         2.159324	     123.720125
	 B(6,8,21)        =         2.094951	     120.031834
	 B(6,10,9)        =         2.124000	     121.696235
	 B(7,5,10)        =         2.088836	     119.681489
	 B(7,5,18)        =         2.090975	     119.804062
	 B(7,12,8)        =         2.034650	     116.576858
	 B(8,6,10)        =         2.088993	     119.690478
	 B(8,6,19)        =         2.090954	     119.802829
	 B(9,1,14)        =         2.086822	     119.566066
	 B(9,2,15)        =         2.088483	     119.661276
	 B(10,5,18)       =         2.103051	     120.495942
	 B(10,6,19)       =         2.102904	     120.487552
	 B(11,3,16)       =         2.075311	     118.906574
	 B(11,4,17)       =         2.092143	     119.870951
	 B(11,13,22)      =         1.902917	     109.029139
	 B(12,7,20)       =         2.028873	     116.245834
	 B(12,8,21)       =         2.028895	     116.247098
	 D(1,3,11,4)      =        -0.012805	      -0.733684
	 D(1,3,11,13)     =         3.123080	     178.939292
	 D(1,9,2,4)       =        -0.005905	      -0.338343
	 D(1,9,2,15)      =         3.111684	     178.286372
	 D(1,9,10,5)      =        -0.621208	     -35.592569
	 D(1,9,10,6)      =         2.520588	     144.419052
	 D(2,4,11,3)      =         0.003120	       0.178748
	 D(2,4,11,13)     =        -3.132472	    -179.477397
	 D(2,9,1,3)       =        -0.003937	      -0.225580
	 D(2,9,1,14)      =         3.119165	     178.714993
	 D(2,9,10,5)      =         2.517910	     144.265598
	 D(2,9,10,6)      =        -0.623480	     -35.722782
	 D(3,1,9,10)      =         3.135245	     179.636306
	 D(3,11,4,17)     =        -3.137420	    -179.760914
	 D(3,11,13,22)    =         2.621931	     150.225586
	 D(4,2,9,10)      =         3.138095	     179.799625
	 D(4,11,3,16)     =         3.140965	     179.964049
	 D(4,11,13,22)    =        -0.525543	     -30.111378
	 D(5,7,12,8)      =        -0.000861	      -0.049338
	 D(5,10,6,8)      =        -0.001040	      -0.059564
	 D(5,10,6,19)     =         3.112723	     178.345917
	 D(6,8,12,7)      =        -0.000213	      -0.012196
	 D(6,10,5,7)      =         0.000054	       0.003072
	 D(6,10,5,18)     =         3.114282	     178.435230
	 D(7,5,10,9)      =        -3.141346	    -179.985871
	 D(7,12,8,21)     =        -3.135626	    -179.658159
	 D(8,6,10,9)      =         3.140360	     179.929379
	 D(8,12,7,20)     =        -3.136310	    -179.697298
	 D(9,1,3,11)      =         0.013314	       0.762834
	 D(9,1,3,16)      =        -3.140740	    -179.951174
	 D(9,2,4,11)      =         0.006329	       0.362633
	 D(9,2,4,17)      =        -3.136320	    -179.697880
	 D(9,10,5,18)     =        -0.027117	      -1.553712
	 D(9,10,6,19)     =        -0.029062	      -1.665140
	 D(10,5,7,12)     =         0.000947	       0.054287
	 D(10,5,7,20)     =         3.136175	     179.689601
	 D(10,6,8,12)     =         0.001181	       0.067684
	 D(10,6,8,21)     =         3.136373	     179.700910
	 D(10,9,1,14)     =        -0.024838	      -1.423121
	 D(10,9,2,15)     =        -0.027500	      -1.575661
	 D(11,3,1,14)     =        -3.109843	    -178.180885
	 D(11,4,2,15)     =        -3.111347	    -178.267033
	 D(12,7,5,18)     =        -3.113472	    -178.388833
	 D(12,8,6,19)     =        -3.112774	    -178.348828
	 D(13,11,3,16)    =        -0.006335	      -0.362975
	 D(13,11,4,17)    =         0.010174	       0.582940
	 D(14,1,3,16)     =         0.019288	       1.105107
	 D(15,2,4,17)     =         0.029190	       1.672454
	 D(18,5,7,20)     =         0.021755	       1.246482
	 D(19,6,8,21)     =         0.022417	       1.284397

	Current energy   :      -553.7241737845

	Energy change for the previous step:
		Projected    :        -0.0000187795
		Actual       :        -0.0000005922

	Performing BFGS update.
	Previous computed or guess Hessian on step 1.
	Steps to be used in Hessian update: 5 4
	Adding user-defined constraint: Fragment 1; Coordinate 73:
		Value =     2.621931; Fixed value    =     2.617990
		Force =    -0.002463; Force constant =     0.625000
	Removing off-diagonal coupling between coordinate 73 and others.
	Taking RFO optimization step.
	Going to follow RFO solution 1.
	Using RFO vector 1.
	Norm of target step-size    0.00668
	Projected energy change by RFO approximation:        -0.0000012437

	Back-transformation to cartesian coordinates...
	Could not converge backtransformation.
	Using first guess instead.

	--- Internal Coordinate Step in ANG or DEG, aJ/ANG or AJ/DEG ---
	 ---------------------------------------------------------------------------
	   Coordinate                Previous        Force       Change         New 
	   ----------                --------       ------       ------       ------
	    1 R(1,3)          =      1.383956     0.000245     0.000067     1.384023
	    2 R(1,9)          =      1.394667     0.000161     0.000039     1.394706
	    3 R(1,14)         =      1.079791     0.000279     0.000084     1.079875
	    4 R(2,4)          =      1.385439     0.000046     0.000025     1.385464
	    5 R(2,9)          =      1.393381     0.000322     0.000076     1.393457
	    6 R(2,15)         =      1.079799     0.000334     0.000098     1.079897
	    7 R(3,11)         =      1.387291     0.000156     0.000055     1.387346
	    8 R(3,16)         =      1.078808     0.000192     0.000063     1.078871
	    9 R(4,11)         =      1.388302     0.000302     0.000072     1.388374
	   10 R(4,17)         =      1.080686     0.000193     0.000062     1.080748
	   11 R(5,7)          =      1.385520     0.000067     0.000017     1.385537
	   12 R(5,10)         =      1.392089     0.000005     0.000019     1.392108
	   13 R(5,18)         =      1.079505     0.000267     0.000082     1.079586
	   14 R(6,8)          =      1.385514     0.000066     0.000017     1.385531
	   15 R(6,10)         =      1.392064     0.000008     0.000017     1.392080
	   16 R(6,19)         =      1.079541     0.000270     0.000081     1.079622
	   17 R(7,12)         =      1.335093     0.000064     0.000055     1.335148
	   18 R(7,20)         =      1.081144     0.000059     0.000022     1.081165
	   19 R(8,12)         =      1.335068     0.000065     0.000058     1.335126
	   20 R(8,21)         =      1.081125     0.000054     0.000017     1.081142
	   21 R(9,10)         =      1.461272     0.001313     0.000162     1.461434
	   22 R(11,13)        =      1.366689     0.000360     0.000017     1.366706
	   23 R(13,22)        =      0.961419     0.000275     0.000078     0.961497
	   24 B(1,3,11)       =    119.899738    -0.000000    -0.000679   119.899059
	   25 B(1,3,16)       =    121.189920    -0.000001    -0.011238   121.178682
	   26 B(1,9,2)        =    118.173487     0.000002     0.003861   118.177348
	   27 B(1,9,10)       =    120.963968    -0.000002    -0.004693   120.959275
	   28 B(2,4,11)       =    119.970242    -0.000000     0.000817   119.971059
	   29 B(2,4,17)       =    120.158779     0.000001     0.001100   120.159879
	   30 B(2,9,10)       =    120.862399     0.000000     0.000813   120.863212
	   31 B(3,1,9)        =    121.161618    -0.000001    -0.002116   121.159502
	   32 B(3,1,14)       =    119.263959     0.000000    -0.011186   119.252773
	   33 B(3,11,4)       =    119.760911     0.000001     0.000882   119.761793
	   34 B(3,11,13)      =    117.642994     0.000002     0.012402   117.655397
	   35 B(4,2,9)        =    121.028860    -0.000001    -0.002864   121.025995
	   36 B(4,2,15)       =    119.295771    -0.000000    -0.012119   119.283652
	   37 B(4,11,13)      =    122.595243    -0.000003    -0.013222   122.582021
	   38 B(5,7,12)       =    123.727851    -0.000000     0.001699   123.729551
	   39 B(5,7,20)       =    120.025383     0.000002     0.008196   120.033579
	   40 B(5,10,6)       =    116.603148     0.000004     0.011925   116.615073
	   41 B(5,10,9)       =    121.700617    -0.000002    -0.007389   121.693228
	   42 B(6,8,12)       =    123.720125    -0.000000     0.001658   123.721783
	   43 B(6,8,21)       =    120.031834     0.000002     0.008228   120.040062
	   44 B(6,10,9)       =    121.696235    -0.000002    -0.004537   121.691698
	   45 B(7,5,10)       =    119.681489    -0.000002    -0.007758   119.673731
	   46 B(7,5,18)       =    119.804062     0.000002     0.000732   119.804793
	   47 B(7,12,8)       =    116.576858     0.000002     0.000036   116.576894
	   48 B(8,6,10)       =    119.690478    -0.000002    -0.007764   119.682714
	   49 B(8,6,19)       =    119.802829     0.000002     0.000841   119.803670
	   50 B(9,1,14)       =    119.566066     0.000001     0.012860   119.578926
	   51 B(9,2,15)       =    119.661276     0.000002     0.014305   119.675581
	   52 B(10,5,18)      =    120.495942     0.000000     0.007165   120.503107
	   53 B(10,6,19)      =    120.487552     0.000000     0.007026   120.494577
	   54 B(11,3,16)      =    118.906574     0.000001     0.011676   118.918249
	   55 B(11,4,17)      =    119.870951    -0.000001    -0.001933   119.869019
	   56 B(11,13,22)     =    109.029139     0.000001     0.006987   109.036126
	   57 B(12,7,20)      =    116.245834    -0.000002    -0.011053   116.234781
	   58 B(12,8,21)      =    116.247098    -0.000002    -0.011223   116.235875
	   59 D(1,3,11,4)     =     -0.733684    -0.000000    -0.009843    -0.743526
	   60 D(1,3,11,13)    =    178.939292     0.000001     0.002362   178.941654
	   61 D(1,9,2,4)      =     -0.338343    -0.000000    -0.001445    -0.339787
	   62 D(1,9,2,15)     =    178.286372    -0.000000    -0.034325   178.252047
	   63 D(1,9,10,5)     =    -35.592569    -0.000000     0.016185   -35.576384
	   64 D(1,9,10,6)     =    144.419052    -0.000000     0.017951   144.437002
	   65 D(2,4,11,3)     =      0.178748     0.000000     0.006543     0.185291
	   66 D(2,4,11,13)    =   -179.477397    -0.000001    -0.006376  -179.483773
	   67 D(2,9,1,3)      =     -0.225580     0.000000    -0.001898    -0.227478
	   68 D(2,9,1,14)     =    178.714993     0.000000    -0.029714   178.685279
	   69 D(2,9,10,5)     =    144.265598    -0.000000     0.007416   144.273013
	   70 D(2,9,10,6)     =    -35.722782    -0.000000     0.009181   -35.713601
	   71 D(3,1,9,10)     =    179.636306    -0.000000    -0.010442   179.625865
	   72 D(3,11,4,17)    =   -179.760914     0.000001     0.021781  -179.739133
	   73 D(3,11,13,22)   =    150.225586    -0.000004    -0.040821   150.184765
	   74 D(4,2,9,10)     =    179.799625     0.000000     0.007098   179.806723
	   75 D(4,11,3,16)    =    179.964049    -0.000000     0.012244   179.976293
	   76 D(4,11,13,22)   =    -30.111378    -0.000002    -0.028194   -30.139572
	   77 D(5,7,12,8)     =     -0.049338    -0.000000    -0.035557    -0.084895
	   78 D(5,10,6,8)     =     -0.059564    -0.000000    -0.040690    -0.100254
	   79 D(5,10,6,19)    =    178.345917    -0.000000    -0.036402   178.309515
	   80 D(6,8,12,7)     =     -0.012196    -0.000000    -0.056059    -0.068256
	   81 D(6,10,5,7)     =      0.003072    -0.000000    -0.043400    -0.040329
	   82 D(6,10,5,18)    =    178.435230    -0.000000    -0.037503   178.397727
	   83 D(7,5,10,9)     =   -179.985871    -0.000000    -0.041718  -180.027589
	   84 D(7,12,8,21)    =   -179.658159     0.000001     0.140406  -179.517753
	   85 D(8,6,10,9)     =    179.929379    -0.000000    -0.042372   179.887006
	   86 D(8,12,7,20)    =   -179.697298     0.000001     0.139578  -179.557720
	   87 D(9,1,3,11)     =      0.762834     0.000000     0.007558     0.770392
	   88 D(9,1,3,16)     =   -179.951174     0.000000    -0.014874  -179.966049
	   89 D(9,2,4,11)     =      0.362633    -0.000000    -0.000893     0.361740
	   90 D(9,2,4,17)     =   -179.697880    -0.000000    -0.016177  -179.714057
	   91 D(9,10,5,18)    =     -1.553712    -0.000000    -0.035821    -1.589534
	   92 D(9,10,6,19)    =     -1.665140    -0.000000    -0.038085    -1.703224
	   93 D(10,5,7,12)    =      0.054287     0.000001     0.086107     0.140394
	   94 D(10,5,7,20)    =    179.689601    -0.000001    -0.095417   179.594185
	   95 D(10,6,8,12)    =      0.067684     0.000001     0.095461     0.163145
	   96 D(10,6,8,21)    =    179.700910    -0.000001    -0.108176   179.592734
	   97 D(10,9,1,14)    =     -1.423121    -0.000000    -0.038257    -1.461378
	   98 D(10,9,2,15)    =     -1.575661    -0.000000    -0.025782    -1.601443
	   99 D(11,3,1,14)    =   -178.180885     0.000000     0.035034  -178.145850
	  100 D(11,4,2,15)    =   -178.267033    -0.000000     0.031503  -178.235530
	  101 D(12,7,5,18)    =   -178.388833     0.000000     0.080149  -178.308684
	  102 D(12,8,6,19)    =   -178.348828     0.000001     0.091102  -178.257726
	  103 D(13,11,3,16)   =     -0.362975     0.000001     0.024449    -0.338526
	  104 D(13,11,4,17)   =      0.582940    -0.000001     0.008862     0.591802
	  105 D(14,1,3,16)    =      1.105107     0.000000     0.012602     1.117709
	  106 D(15,2,4,17)    =      1.672454    -0.000000     0.016218     1.688673
	  107 D(18,5,7,20)    =      1.246482    -0.000001    -0.101376     1.145106
	  108 D(19,6,8,21)    =      1.284397    -0.000001    -0.112535     1.171863
	 ---------------------------------------------------------------------------
	Successfully symmetrized geometry.
	 Forces used to impose fixed constraints are not included.
	  Forces zeroed: 73 

  ==> Convergence Check <==

  Measures of convergence in internal coordinates in au.
  Criteria marked as inactive (o), active & met (*), and active & unmet ( ).
  ---------------------------------------------------------------------------------------------
   Step     Total Energy     Delta E     MAX Force     RMS Force      MAX Disp      RMS Disp   
  ---------------------------------------------------------------------------------------------
    Convergence Criteria    1.00e-06 *    3.00e-04 *             o    1.20e-03 *             o
  ---------------------------------------------------------------------------------------------
      6    -553.72417378   -5.92e-07 *    1.59e-04 *    3.09e-05 o    2.45e-03      6.43e-04 o  ~
  ---------------------------------------------------------------------------------------------


  **** Optimization is complete! (in 6 steps) ****

  ==> Optimization Summary <==

  Measures of convergence in internal coordinates in au.
  --------------------------------------------------------------------------------------------------------------- ~
   Step         Total Energy             Delta E       MAX Force       RMS Force        MAX Disp        RMS Disp  ~
  --------------------------------------------------------------------------------------------------------------- ~
      1    -553.720355986169   -553.720355986169      0.01874755      0.00474141      0.03508712      0.00961463  ~
      2    -553.723450800936     -0.003094814767      0.00521559      0.00148911      0.02437670      0.00960244  ~
      3    -553.724075769198     -0.000624968262      0.00088043      0.00028484      0.04248392      0.00910231  ~
      4    -553.724160549403     -0.000084780205      0.00044425      0.00015923      0.01907817      0.00391455  ~
      5    -553.724173192264     -0.000012642861      0.00036751      0.00006717      0.00648612      0.00158626  ~
      6    -553.724173784512     -0.000000592248      0.00020086      0.00003648      0.00245055      0.00064321  ~
  --------------------------------------------------------------------------------------------------------------- ~

	Writing optimization data to binary file.
	Final energy is   -553.7241737845123
	Final (previous) structure:
	Cartesian Geometry (in Angstrom)
	    C    -1.2393276290   0.7776205161  -0.5505606361
	    C    -0.3137258761   0.0474736325   1.5307337733
	    C    -2.3135058923   1.3396418036   0.1169777204
	    C    -1.3797692469   0.6174576697   2.2075722127
	    C     0.7501364467  -1.0784749908  -1.8140553578
	    C     2.1901667189  -0.4777521686  -0.0316999106
	    C     1.8488618639  -1.6336859706  -2.4498300428
	    C     3.2295176981  -1.0586800466  -0.7401637823
	    C    -0.2228579955   0.1204126324   0.1422334639
	    C     0.9053967234  -0.4783114540  -0.5676167654
	    C    -2.3824185904   1.2673531409   1.5006688557
	    N     3.0809436329  -1.6342678379  -1.9355847285
	    O    -3.4520058354   1.8570249201   2.1139458378
	    H    -1.1810552614   0.8655918057  -1.6251831953
	    H     0.4454958021  -0.4797128514   2.0889663323
	    H    -3.1004114557   1.8474309026  -0.4185180307
	    H    -1.4336456535   0.5567277967   3.2852045489
	    H    -0.2234987113  -1.1365601520  -2.2766473486
	    H     2.3867986894  -0.0058215376   0.9191027360
	    H     1.7336875472  -2.1056230025  -3.4156881175
	    H     4.2303679884  -1.0570805103  -0.3313522417
	    H    -3.6493780857   1.3812557342   2.9257424356
	Saving final (previous) structure.
			--------------------------
			 OPTKING Finished Execution 
			--------------------------

    Final optimized geometry and variables:
    Molecular point group: c1
    Full point group: C1

    Geometry (in Angstrom), charge = 0, multiplicity = 1:

    C           -1.239327628989     0.777620516052    -0.550560636058
    C           -0.313725876081     0.047473632484     1.530733773257
    C           -2.313505892266     1.339641803639     0.116977720353
    C           -1.379769246867     0.617457669736     2.207572212728
    C            0.750136446710    -1.078474990824    -1.814055357779
    C            2.190166718863    -0.477752168642    -0.031699910586
    C            1.848861863863    -1.633685970643    -2.449830042787
    C            3.229517698062    -1.058680046625    -0.740163782340
    C           -0.222857995531     0.120412632417     0.142233463910
    C            0.905396723362    -0.478311454024    -0.567616765411
    C           -2.382418590378     1.267353140917     1.500668855676
    N            3.080943632944    -1.634267837882    -1.935584728468
    O           -3.452005835404     1.857024920104     2.113945837768
    H           -1.181055261443     0.865591805736    -1.625183195258
    H            0.445495802084    -0.479712851426     2.088966332321
    H           -3.100411455666     1.847430902620    -0.418518030673
    H           -1.433645653549     0.556727796655     3.285204548860
    H           -0.223498711252    -1.136560151961    -2.276647348600
    H            2.386798689437    -0.005821537581     0.919102736044
    H            1.733687547169    -2.105623002509    -3.415688117475
    H            4.230367988439    -1.057080510323    -0.331352241681
    H           -3.649378085670     1.381255734216     2.925742435570

	Cleaning optimization helper files.

*** Psi4 exiting successfully. Buy a developer a beer!
