
    -----------------------------------------------------------------------
          Psi4: An Open-Source Ab Initio Electronic Structure Package
                               Psi4 1.1 release

                         Git: Rev {HEAD} add49b9 


    R. M. Parrish, L. A. Burns, D. G. A. Smith, A. C. Simmonett,
    A. E. DePrince III, E. G. Hohenstein, U. Bozkaya, A. Yu. Sokolov,
    R. Di Remigio, R. M. Richard, J. F. Gonthier, A. M. James,
    H. R. McAlexander, A. Kumar, M. Saitow, X. Wang, B. P. Pritchard,
    P. Verma, H. F. Schaefer III, K. Patkowski, R. A. King, E. F. Valeev,
    F. A. Evangelista, J. M. Turney, T. D. Crawford, and C. D. Sherrill,
    J. Chem. Theory Comput. in press (2017).
    (doi: 10.1021/acs.jctc.7b00174)

    -----------------------------------------------------------------------


    Psi4 started on: Sunday, 12 November 2017 02:44PM

    Process ID:   8403
    PSIDATADIR: /cbio/jclab/home/chayas/anaconda/envs/py35/share/psi4
    Memory:     500.0 MiB
    Threads:    8
    
  ==> Input File <==

--------------------------------------------------------------------------

memory 5 Gb

molecule phepyrOH_neutral {
  symmetry C1
  0 1 
  C      1.885   -1.036   -0.112
  C      2.878   -1.652   2.002
  C      0.807   -0.463   0.561
  C      1.800   -1.079   2.676
  C      3.862   -2.773   -1.356
  C      5.298   -2.250   0.501
  C      4.965   -3.329   -1.983
  C      6.337   -2.829   -0.209
  C      2.921   -1.631   0.608
  C      4.040   -2.225   -0.090
  C      0.764   -0.484   1.955
  N      6.202   -3.372   -1.440
  O      -0.288   0.076   2.612
  H      1.904   -1.012   -1.199
  H      3.678   -2.112   2.578
  H      0.003   -0.001   -0.006
  H      1.772   -1.098   3.762
  H      2.895   -2.772   -1.850
  H      5.475   -1.833   1.487
  H      4.879   -3.768   -2.972
  H      7.337   -2.875   0.208
  H      -1.070   -0.495   2.543
  units Angstrom
}

dih_string = "3 11 13 22 75"
set optking fixed_dihedral = $dih_string

optimize('MP2/aug-cc-PVTZ')
--------------------------------------------------------------------------

  Memory set to   4.657 GiB by Python driver.
gradient() will perform analytic gradient computation.

*** tstart() called on gpu-2-12.local
*** at Sun Nov 12 14:44:10 2017

    SCF Algorithm Type (re)set to DF.

*** tstart() called on gpu-2-12.local
*** at Sun Nov 12 14:44:10 2017

   => Loading Basis Set <=

    Name: AUG-CC-PVTZ
    Role: ORBITAL
    Keyword: BASIS
    atoms 1-11  entry C          line   221 file /cbio/jclab/home/chayas/anaconda/envs/py35/share/psi4/basis/aug-cc-pvtz.gbs 
    atoms 12    entry N          line   267 file /cbio/jclab/home/chayas/anaconda/envs/py35/share/psi4/basis/aug-cc-pvtz.gbs 
    atoms 13    entry O          line   313 file /cbio/jclab/home/chayas/anaconda/envs/py35/share/psi4/basis/aug-cc-pvtz.gbs 
    atoms 14-22 entry H          line    34 file /cbio/jclab/home/chayas/anaconda/envs/py35/share/psi4/basis/aug-cc-pvtz.gbs 


         ---------------------------------------------------------
                                   SCF
            by Justin Turney, Rob Parrish, and Andy Simmonett
                              RHF Reference
                        8 Threads,   4768 MiB Core
         ---------------------------------------------------------

  ==> Geometry <==

    Molecular point group: c1
    Full point group: C1

    Geometry (in Angstrom), charge = 0, multiplicity = 1:

       Center              X                  Y                   Z               Mass       
    ------------   -----------------  -----------------  -----------------  -----------------
           C         -1.248295033218     0.712456536501    -0.584541366880    12.000000000000
           C         -0.255295033218     0.096456536501     1.529458633120    12.000000000000
           C         -2.326295033218     1.285456536501     0.088458633120    12.000000000000
           C         -1.333295033218     0.669456536501     2.203458633120    12.000000000000
           C          0.728704966782    -1.024543463499    -1.828541366880    12.000000000000
           C          2.164704966782    -0.501543463499     0.028458633120    12.000000000000
           C          1.831704966782    -1.580543463499    -2.455541366880    12.000000000000
           C          3.203704966782    -1.080543463499    -0.681541366880    12.000000000000
           C         -0.212295033218     0.117456536501     0.135458633120    12.000000000000
           C          0.906704966782    -0.476543463499    -0.562541366880    12.000000000000
           C         -2.369295033218     1.264456536501     1.482458633120    12.000000000000
           N          3.068704966782    -1.623543463499    -1.912541366880    14.003074004780
           O         -3.421295033218     1.824456536501     2.139458633120    15.994914619560
           H         -1.229295033218     0.736456536501    -1.671541366880     1.007825032070
           H          0.544704966782    -0.363543463499     2.105458633120     1.007825032070
           H         -3.130295033218     1.747456536501    -0.478541366880     1.007825032070
           H         -1.361295033218     0.650456536501     3.289458633120     1.007825032070
           H         -0.238295033218    -1.023543463499    -2.322541366880     1.007825032070
           H          2.341704966782    -0.084543463499     1.014458633120     1.007825032070
           H          1.745704966782    -2.019543463499    -3.444541366880     1.007825032070
           H          4.203704966782    -1.126543463499    -0.264541366880     1.007825032070
           H         -4.203295033218     1.253456536501     2.070458633120     1.007825032070

  Running in c1 symmetry.

  Rotational constants: A =      0.09693  B =      0.01354  C =      0.01209 [cm^-1]
  Rotational constants: A =   2906.02919  B =    405.95697  C =    362.44105 [MHz]
  Nuclear repulsion =  698.485293426606177

  Charge       = 0
  Multiplicity = 1
  Electrons    = 90
  Nalpha       = 45
  Nbeta        = 45

  ==> Algorithm <==

  SCF Algorithm Type is DF.
  DIIS enabled.
  MOM disabled.
  Fractional occupation disabled.
  Guess Type is SAD.
  Energy threshold   = 1.00e-10
  Density threshold  = 1.00e-10
  Integral threshold = 0.00e+00

  ==> Primary Basis <==

  Basis Set: AUG-CC-PVTZ
    Blend: AUG-CC-PVTZ
    Number of shells: 263
    Number of basis function: 805
    Number of Cartesian functions: 940
    Spherical Harmonics?: true
    Max angular momentum: 3

   => Loading Basis Set <=

    Name: (AUG-CC-PVTZ AUX)
    Role: JKFIT
    Keyword: DF_BASIS_SCF
    atoms 1-11  entry C          line   161 file /cbio/jclab/home/chayas/anaconda/envs/py35/share/psi4/basis/aug-cc-pvtz-jkfit.gbs 
    atoms 12    entry N          line   223 file /cbio/jclab/home/chayas/anaconda/envs/py35/share/psi4/basis/aug-cc-pvtz-jkfit.gbs 
    atoms 13    entry O          line   285 file /cbio/jclab/home/chayas/anaconda/envs/py35/share/psi4/basis/aug-cc-pvtz-jkfit.gbs 
    atoms 14-22 entry H          line    69 file /cbio/jclab/home/chayas/anaconda/envs/py35/share/psi4/basis/aug-cc-pvtz-jkfit.gbs 

  ==> Pre-Iterations <==

   -------------------------------------------------------
    Irrep   Nso     Nmo     Nalpha   Nbeta   Ndocc  Nsocc
   -------------------------------------------------------
     A        805     805       0       0       0       0
   -------------------------------------------------------
    Total     805     805      45      45      45       0
   -------------------------------------------------------

  ==> Integral Setup <==

  ==> DFJK: Density-Fitted J/K Matrices <==

    J tasked:                  Yes
    K tasked:                  Yes
    wK tasked:                  No
    OpenMP threads:              8
    Integrals threads:           8
    Memory (MB):              3576
    Algorithm:                Disk
    Integral Cache:           NONE
    Schwarz Cutoff:          1E-12
    Fitting Condition:       1E-12

   => Auxiliary Basis Set <=

  Basis Set: (AUG-CC-PVTZ AUX)
    Blend: AUG-CC-PVTZ-JKFIT
    Number of shells: 516
    Number of basis function: 1766
    Number of Cartesian functions: 2198
    Spherical Harmonics?: true
    Max angular momentum: 4

  Minimum eigenvalue in the overlap matrix is 6.3553406449E-07.
  Using Symmetric Orthogonalization.

  SCF Guess: Superposition of Atomic Densities via on-the-fly atomic UHF.

  ==> Iterations <==

                           Total Energy        Delta E     RMS |[F,P]|

   @DF-RHF iter   0:  -556.16351650348713   -5.56164e+02   2.20515e-02 
   @DF-RHF iter   1:  -550.90404408260918    5.25947e+00   2.39193e-03 
   @DF-RHF iter   2:  -551.22122179305904   -3.17178e-01   6.39947e-04 DIIS
   @DF-RHF iter   3:  -551.26761583973735   -4.63940e-02   4.31579e-04 DIIS
   @DF-RHF iter   4:  -551.28002842078331   -1.24126e-02   1.23231e-04 DIIS
   @DF-RHF iter   5:  -551.28146901421394   -1.44059e-03   4.90614e-05 DIIS
   @DF-RHF iter   6:  -551.28177355423247   -3.04540e-04   1.30864e-05 DIIS
   @DF-RHF iter   7:  -551.28182181543275   -4.82612e-05   6.10336e-06 DIIS
   @DF-RHF iter   8:  -551.28182627760611   -4.46217e-06   1.76522e-06 DIIS
   @DF-RHF iter   9:  -551.28182686953130   -5.91925e-07   9.68743e-07 DIIS
   @DF-RHF iter  10:  -551.28182703617676   -1.66645e-07   3.53237e-07 DIIS
   @DF-RHF iter  11:  -551.28182709426926   -5.80925e-08   1.21373e-07 DIIS
   @DF-RHF iter  12:  -551.28182710165106   -7.38180e-09   5.48061e-08 DIIS
   @DF-RHF iter  13:  -551.28182710223678   -5.85715e-10   1.42979e-08 DIIS
   @DF-RHF iter  14:  -551.28182710234637   -1.09594e-10   8.28024e-09 DIIS
   @DF-RHF iter  15:  -551.28182710234091    5.45697e-12   3.67745e-09 DIIS
   @DF-RHF iter  16:  -551.28182710236479   -2.38742e-11   1.91967e-09 DIIS
   @DF-RHF iter  17:  -551.28182710234216    2.26237e-11   1.03127e-09 DIIS
   @DF-RHF iter  18:  -551.28182710234898   -6.82121e-12   4.80566e-10 DIIS
   @DF-RHF iter  19:  -551.28182710236058   -1.15961e-11   2.01793e-10 DIIS
   @DF-RHF iter  20:  -551.28182710234819    1.23919e-11   7.98894e-11 DIIS

  ==> Post-Iterations <==

    Orbital Energies (a.u.)
    -----------------------

    Doubly Occupied:                                                      

       1A    -20.589044     2A    -15.563001     3A    -11.306910  
       4A    -11.274948     5A    -11.274859     6A    -11.264117  
       7A    -11.252036     8A    -11.251708     9A    -11.248413  
      10A    -11.244586    11A    -11.244100    12A    -11.237564  
      13A    -11.237268    14A     -1.407310    15A     -1.249588  
      16A     -1.174030    17A     -1.104085    18A     -1.039681  
      19A     -1.028128    20A     -1.008617    21A     -0.879927  
      22A     -0.872821    23A     -0.835179    24A     -0.810602  
      25A     -0.747316    26A     -0.723341    27A     -0.683121  
      28A     -0.665850    29A     -0.645997    30A     -0.641106  
      31A     -0.631187    32A     -0.610425    33A     -0.595516  
      34A     -0.591945    35A     -0.549421    36A     -0.543610  
      37A     -0.527729    38A     -0.514296    39A     -0.506822  
      40A     -0.481638    41A     -0.418620    42A     -0.400754  
      43A     -0.353896    44A     -0.349501    45A     -0.314254  

    Virtual:                                                              

      46A      0.022752    47A      0.028845    48A      0.031917  
      49A      0.038896    50A      0.041278    51A      0.045531  
      52A      0.054037    53A      0.056511    54A      0.059735  
      55A      0.074054    56A      0.078395    57A      0.084046  
      58A      0.087880    59A      0.091806    60A      0.093857  
      61A      0.102057    62A      0.107012    63A      0.107983  
      64A      0.111120    65A      0.113688    66A      0.116818  
      67A      0.117386    68A      0.121266    69A      0.127563  
      70A      0.129071    71A      0.132346    72A      0.133237  
      73A      0.137956    74A      0.141585    75A      0.146117  
      76A      0.148429    77A      0.150222    78A      0.153546  
      79A      0.158126    80A      0.160846    81A      0.168509  
      82A      0.169556    83A      0.176650    84A      0.181584  
      85A      0.185248    86A      0.186484    87A      0.201251  
      88A      0.203661    89A      0.211075    90A      0.216134  
      91A      0.222289    92A      0.224876    93A      0.229091  
      94A      0.233716    95A      0.240774    96A      0.242145  
      97A      0.244283    98A      0.247620    99A      0.252896  
     100A      0.257485   101A      0.261659   102A      0.263334  
     103A      0.266205   104A      0.272296   105A      0.274658  
     106A      0.282589   107A      0.286742   108A      0.289112  
     109A      0.290934   110A      0.295491   111A      0.299845  
     112A      0.301177   113A      0.304612   114A      0.310321  
     115A      0.315106   116A      0.319278   117A      0.324931  
     118A      0.328043   119A      0.329145   120A      0.331643  
     121A      0.339441   122A      0.341544   123A      0.351631  
     124A      0.357344   125A      0.360509   126A      0.363036  
     127A      0.368799   128A      0.372027   129A      0.380645  
     130A      0.383648   131A      0.387756   132A      0.396188  
     133A      0.398668   134A      0.409039   135A      0.417432  
     136A      0.421133   137A      0.425581   138A      0.429041  
     139A      0.431414   140A      0.435447   141A      0.436499  
     142A      0.436745   143A      0.443397   144A      0.447442  
     145A      0.451297   146A      0.457844   147A      0.461045  
     148A      0.462409   149A      0.465429   150A      0.472691  
     151A      0.474858   152A      0.480380   153A      0.484154  
     154A      0.487281   155A      0.489864   156A      0.497824  
     157A      0.500116   158A      0.501349   159A      0.503523  
     160A      0.508370   161A      0.510222   162A      0.512608  
     163A      0.515419   164A      0.518230   165A      0.521107  
     166A      0.525710   167A      0.527913   168A      0.528431  
     169A      0.533185   170A      0.539401   171A      0.542748  
     172A      0.547161   173A      0.551302   174A      0.553281  
     175A      0.560794   176A      0.563368   177A      0.570117  
     178A      0.576712   179A      0.580411   180A      0.589292  
     181A      0.592913   182A      0.603497   183A      0.608805  
     184A      0.612337   185A      0.613545   186A      0.622232  
     187A      0.628447   188A      0.629664   189A      0.636853  
     190A      0.641365   191A      0.650976   192A      0.652109  
     193A      0.663312   194A      0.679068   195A      0.686507  
     196A      0.690687   197A      0.692226   198A      0.695845  
     199A      0.702326   200A      0.706496   201A      0.711159  
     202A      0.719699   203A      0.721808   204A      0.724063  
     205A      0.731595   206A      0.737734   207A      0.739692  
     208A      0.747239   209A      0.760023   210A      0.763621  
     211A      0.766148   212A      0.769812   213A      0.773039  
     214A      0.775261   215A      0.784479   216A      0.795322  
     217A      0.803095   218A      0.807872   219A      0.819772  
     220A      0.823564   221A      0.826286   222A      0.840332  
     223A      0.841608   224A      0.844160   225A      0.848646  
     226A      0.860574   227A      0.862332   228A      0.870698  
     229A      0.874129   230A      0.876997   231A      0.878784  
     232A      0.884333   233A      0.889022   234A      0.896389  
     235A      0.901810   236A      0.903593   237A      0.906205  
     238A      0.912100   239A      0.912997   240A      0.922041  
     241A      0.926283   242A      0.928191   243A      0.939858  
     244A      0.945322   245A      0.950508   246A      0.954028  
     247A      0.959221   248A      0.964024   249A      0.969842  
     250A      0.973244   251A      0.977479   252A      0.980368  
     253A      0.984479   254A      0.985386   255A      0.993037  
     256A      0.999255   257A      1.001326   258A      1.006230  
     259A      1.011892   260A      1.014892   261A      1.016887  
     262A      1.022967   263A      1.028369   264A      1.035573  
     265A      1.037962   266A      1.040490   267A      1.043909  
     268A      1.047454   269A      1.050351   270A      1.056271  
     271A      1.059083   272A      1.066897   273A      1.069135  
     274A      1.081795   275A      1.083800   276A      1.085306  
     277A      1.090839   278A      1.095302   279A      1.098999  
     280A      1.100671   281A      1.106139   282A      1.108152  
     283A      1.108996   284A      1.115811   285A      1.118811  
     286A      1.124903   287A      1.127344   288A      1.139814  
     289A      1.152598   290A      1.158755   291A      1.160238  
     292A      1.166574   293A      1.171331   294A      1.175119  
     295A      1.177510   296A      1.180672   297A      1.184318  
     298A      1.185068   299A      1.189819   300A      1.196306  
     301A      1.202001   302A      1.207321   303A      1.211259  
     304A      1.216799   305A      1.218136   306A      1.222533  
     307A      1.226691   308A      1.237492   309A      1.243888  
     310A      1.247225   311A      1.266122   312A      1.267498  
     313A      1.279086   314A      1.281158   315A      1.286726  
     316A      1.291675   317A      1.294618   318A      1.298346  
     319A      1.302945   320A      1.311191   321A      1.315862  
     322A      1.318759   323A      1.322174   324A      1.331790  
     325A      1.334177   326A      1.342113   327A      1.354347  
     328A      1.369266   329A      1.370127   330A      1.373180  
     331A      1.385750   332A      1.391047   333A      1.399442  
     334A      1.410622   335A      1.416675   336A      1.425697  
     337A      1.445700   338A      1.446183   339A      1.451869  
     340A      1.459184   341A      1.466231   342A      1.478816  
     343A      1.488025   344A      1.492193   345A      1.506535  
     346A      1.511155   347A      1.518504   348A      1.523407  
     349A      1.526334   350A      1.540437   351A      1.545388  
     352A      1.549548   353A      1.557704   354A      1.572216  
     355A      1.583856   356A      1.595771   357A      1.601654  
     358A      1.609080   359A      1.612928   360A      1.623084  
     361A      1.626379   362A      1.632661   363A      1.645935  
     364A      1.649904   365A      1.660776   366A      1.670338  
     367A      1.673901   368A      1.684800   369A      1.695421  
     370A      1.699442   371A      1.705071   372A      1.710700  
     373A      1.721276   374A      1.723943   375A      1.734837  
     376A      1.740562   377A      1.743772   378A      1.745812  
     379A      1.758889   380A      1.772524   381A      1.780202  
     382A      1.787256   383A      1.788671   384A      1.809512  
     385A      1.813304   386A      1.815016   387A      1.823778  
     388A      1.829607   389A      1.840626   390A      1.846388  
     391A      1.853579   392A      1.866855   393A      1.870299  
     394A      1.876704   395A      1.891622   396A      1.899858  
     397A      1.904214   398A      1.913684   399A      1.915776  
     400A      1.923436   401A      1.929508   402A      1.942464  
     403A      1.959619   404A      1.962640   405A      1.970052  
     406A      1.973975   407A      1.984516   408A      1.989922  
     409A      2.002560   410A      2.005513   411A      2.012211  
     412A      2.014936   413A      2.021290   414A      2.029299  
     415A      2.034036   416A      2.044429   417A      2.055645  
     418A      2.062032   419A      2.068355   420A      2.072441  
     421A      2.083548   422A      2.088675   423A      2.097500  
     424A      2.100701   425A      2.107312   426A      2.111800  
     427A      2.119869   428A      2.124550   429A      2.133668  
     430A      2.145081   431A      2.147728   432A      2.156970  
     433A      2.165376   434A      2.183650   435A      2.187802  
     436A      2.196776   437A      2.204287   438A      2.205369  
     439A      2.220359   440A      2.227508   441A      2.233594  
     442A      2.234811   443A      2.246220   444A      2.262142  
     445A      2.265635   446A      2.295020   447A      2.302675  
     448A      2.306206   449A      2.312876   450A      2.320942  
     451A      2.341056   452A      2.351562   453A      2.362037  
     454A      2.370958   455A      2.372800   456A      2.383038  
     457A      2.392719   458A      2.406056   459A      2.410188  
     460A      2.410655   461A      2.417543   462A      2.425341  
     463A      2.442235   464A      2.460479   465A      2.477020  
     466A      2.488386   467A      2.508402   468A      2.519779  
     469A      2.523169   470A      2.539615   471A      2.548908  
     472A      2.558024   473A      2.568479   474A      2.571788  
     475A      2.581748   476A      2.591969   477A      2.596014  
     478A      2.617016   479A      2.623165   480A      2.650493  
     481A      2.677867   482A      2.686490   483A      2.695255  
     484A      2.715375   485A      2.728282   486A      2.750295  
     487A      2.766661   488A      2.775343   489A      2.782124  
     490A      2.802793   491A      2.821243   492A      2.830935  
     493A      2.836986   494A      2.863741   495A      2.865544  
     496A      2.880436   497A      2.906932   498A      2.919124  
     499A      2.944719   500A      2.983772   501A      2.989808  
     502A      3.007238   503A      3.014351   504A      3.046445  
     505A      3.060934   506A      3.076986   507A      3.104277  
     508A      3.120756   509A      3.145442   510A      3.168146  
     511A      3.172821   512A      3.192220   513A      3.206380  
     514A      3.216826   515A      3.241664   516A      3.245532  
     517A      3.259951   518A      3.285195   519A      3.299233  
     520A      3.312901   521A      3.314661   522A      3.336810  
     523A      3.350498   524A      3.364856   525A      3.369158  
     526A      3.372517   527A      3.392352   528A      3.403039  
     529A      3.408903   530A      3.419045   531A      3.429312  
     532A      3.437543   533A      3.442142   534A      3.450193  
     535A      3.464855   536A      3.475299   537A      3.482117  
     538A      3.496476   539A      3.504719   540A      3.514699  
     541A      3.521426   542A      3.535980   543A      3.539480  
     544A      3.544647   545A      3.555449   546A      3.563064  
     547A      3.565569   548A      3.575481   549A      3.578789  
     550A      3.585258   551A      3.594495   552A      3.599900  
     553A      3.606216   554A      3.629043   555A      3.635897  
     556A      3.640244   557A      3.650477   558A      3.655716  
     559A      3.678413   560A      3.685868   561A      3.700051  
     562A      3.705115   563A      3.724911   564A      3.729598  
     565A      3.737837   566A      3.751681   567A      3.772328  
     568A      3.779885   569A      3.780447   570A      3.790225  
     571A      3.793145   572A      3.806879   573A      3.815648  
     574A      3.826388   575A      3.833078   576A      3.848210  
     577A      3.858470   578A      3.863954   579A      3.866839  
     580A      3.883559   581A      3.890473   582A      3.894208  
     583A      3.901977   584A      3.920492   585A      3.931924  
     586A      3.935520   587A      3.939907   588A      3.941555  
     589A      3.946889   590A      3.948512   591A      3.959487  
     592A      3.978698   593A      3.989620   594A      3.998620  
     595A      4.004141   596A      4.013655   597A      4.020502  
     598A      4.027184   599A      4.029289   600A      4.039380  
     601A      4.042165   602A      4.044590   603A      4.066112  
     604A      4.087358   605A      4.099943   606A      4.108878  
     607A      4.119352   608A      4.132147   609A      4.133282  
     610A      4.140966   611A      4.146728   612A      4.158554  
     613A      4.166750   614A      4.169874   615A      4.178446  
     616A      4.190435   617A      4.206270   618A      4.209920  
     619A      4.231819   620A      4.235690   621A      4.254621  
     622A      4.258848   623A      4.262039   624A      4.277844  
     625A      4.281096   626A      4.285491   627A      4.300917  
     628A      4.306184   629A      4.312872   630A      4.330796  
     631A      4.339707   632A      4.341342   633A      4.352287  
     634A      4.370861   635A      4.381327   636A      4.385732  
     637A      4.390377   638A      4.393767   639A      4.400352  
     640A      4.412102   641A      4.432232   642A      4.438970  
     643A      4.440252   644A      4.453974   645A      4.459567  
     646A      4.463700   647A      4.473322   648A      4.490676  
     649A      4.496495   650A      4.509416   651A      4.516490  
     652A      4.517984   653A      4.532946   654A      4.538464  
     655A      4.560768   656A      4.568086   657A      4.584533  
     658A      4.597388   659A      4.624460   660A      4.632666  
     661A      4.640699   662A      4.659024   663A      4.666930  
     664A      4.682031   665A      4.691879   666A      4.699764  
     667A      4.721121   668A      4.733408   669A      4.738428  
     670A      4.752362   671A      4.753045   672A      4.792007  
     673A      4.804374   674A      4.809583   675A      4.834389  
     676A      4.855123   677A      4.863456   678A      4.876736  
     679A      4.886631   680A      4.912918   681A      4.915253  
     682A      4.938081   683A      4.940158   684A      4.945492  
     685A      4.964901   686A      4.979263   687A      4.993472  
     688A      5.010504   689A      5.015227   690A      5.027334  
     691A      5.035769   692A      5.045305   693A      5.056418  
     694A      5.065108   695A      5.088306   696A      5.091167  
     697A      5.104314   698A      5.116375   699A      5.119527  
     700A      5.139306   701A      5.146021   702A      5.158343  
     703A      5.161764   704A      5.164563   705A      5.173650  
     706A      5.178769   707A      5.186094   708A      5.217404  
     709A      5.233721   710A      5.234890   711A      5.257493  
     712A      5.270502   713A      5.287758   714A      5.310797  
     715A      5.315869   716A      5.328848   717A      5.349516  
     718A      5.363085   719A      5.367006   720A      5.387977  
     721A      5.427520   722A      5.428770   723A      5.445597  
     724A      5.446134   725A      5.472401   726A      5.485453  
     727A      5.497800   728A      5.509895   729A      5.554051  
     730A      5.563469   731A      5.568728   732A      5.617496  
     733A      5.629126   734A      5.665760   735A      5.689291  
     736A      5.703496   737A      5.714592   738A      5.749841  
     739A      5.759777   740A      5.767580   741A      5.800146  
     742A      5.821598   743A      5.828075   744A      5.846270  
     745A      5.876223   746A      5.879368   747A      5.914146  
     748A      5.941335   749A      5.985285   750A      6.053619  
     751A      6.085145   752A      6.107578   753A      6.160901  
     754A      6.182850   755A      6.227989   756A      6.242286  
     757A      6.273600   758A      6.282462   759A      6.373598  
     760A      6.402618   761A      6.413322   762A      6.465773  
     763A      6.481473   764A      6.520913   765A      6.536144  
     766A      6.595065   767A      6.620593   768A      6.709718  
     769A      6.715995   770A      6.740778   771A      6.750143  
     772A      6.876617   773A      6.886168   774A      6.887692  
     775A      6.907244   776A      6.919352   777A      6.943815  
     778A      6.976863   779A      7.091736   780A      7.104713  
     781A      7.148141   782A      7.290847   783A      7.357285  
     784A      7.409566   785A      7.427048   786A      7.541495  
     787A      7.607343   788A      7.660544   789A      7.865999  
     790A      7.954465   791A      8.171548   792A      8.603734  
     793A     15.625735   794A     16.364457   795A     16.758380  
     796A     16.804542   797A     17.021647   798A     18.431176  
     799A     18.830305   800A     19.202721   801A     19.945872  
     802A     20.065364   803A     20.266197   804A     20.588318  
     805A     21.773912  

    Final Occupation by Irrep:
              A 
    DOCC [    45 ]

  Energy converged.

  @DF-RHF Final Energy:  -551.28182710234819

   => Energetics <=

    Nuclear Repulsion Energy =            698.4852934266061766
    One-Electron Energy =               -2133.7445028060037657
    Two-Electron Energy =                 883.9773822770494007
    DFT Exchange-Correlation Energy =       0.0000000000000000
    Empirical Dispersion Energy =           0.0000000000000000
    PCM Polarization Energy =               0.0000000000000000
    EFP Energy =                            0.0000000000000000
    Total Energy =                       -551.2818271023481884



Properties will be evaluated at   0.000000,   0.000000,   0.000000 Bohr

Properties computed using the SCF density matrix

  Nuclear Dipole Moment: (a.u.)
     X:    -1.2691      Y:    -0.2020      Z:     0.2953

  Electronic Dipole Moment: (a.u.)
     X:     0.1698      Y:     0.1615      Z:     0.0529

  Dipole Moment: (a.u.)
     X:    -1.0992      Y:    -0.0406      Z:     0.3482     Total:     1.1537

  Dipole Moment: (Debye)
     X:    -2.7939      Y:    -0.1031      Z:     0.8850     Total:     2.9325


*** tstop() called on gpu-2-12.local at Sun Nov 12 14:52:27 2017
Module time:
	user time   =    1168.55 seconds =      19.48 minutes
	system time =      53.02 seconds =       0.88 minutes
	total time  =        497 seconds =       8.28 minutes
Total time:
	user time   =    1168.55 seconds =      19.48 minutes
	system time =      53.02 seconds =       0.88 minutes
	total time  =        497 seconds =       8.28 minutes

  //>>>>>>>>>>>>>>>>>>>>>>>>>>>>>>>>>>>//
  //               DFMP2               //
  //<<<<<<<<<<<<<<<<<<<<<<<<<<<<<<<<<<<//

   => Loading Basis Set <=

    Name: (AUG-CC-PVTZ AUX)
    Role: RIFIT
    Keyword: DF_BASIS_MP2
    atoms 1-11  entry C          line   147 file /cbio/jclab/home/chayas/anaconda/envs/py35/share/psi4/basis/aug-cc-pvtz-ri.gbs 
    atoms 12    entry N          line   205 file /cbio/jclab/home/chayas/anaconda/envs/py35/share/psi4/basis/aug-cc-pvtz-ri.gbs 
    atoms 13    entry O          line   263 file /cbio/jclab/home/chayas/anaconda/envs/py35/share/psi4/basis/aug-cc-pvtz-ri.gbs 
    atoms 14-22 entry H          line    29 file /cbio/jclab/home/chayas/anaconda/envs/py35/share/psi4/basis/aug-cc-pvtz-ri.gbs 

	 --------------------------------------------------------
	                          DF-MP2                         
	      2nd-Order Density-Fitted Moller-Plesset Theory     
	              RMP2 Wavefunction,   8 Threads             
	                                                         
	        Rob Parrish, Justin Turney, Andy Simmonett,      
	           Ed Hohenstein, and C. David Sherrill          
	 --------------------------------------------------------

   => Auxiliary Basis Set <=

  Basis Set: (AUG-CC-PVTZ AUX)
    Blend: AUG-CC-PVTZ-RI
    Number of shells: 490
    Number of basis function: 1792
    Number of Cartesian functions: 2263
    Spherical Harmonics?: true
    Max angular momentum: 4

	 --------------------------------------------------------
	                 NBF =   805, NAUX =  1792
	 --------------------------------------------------------
	   CLASS    FOCC     OCC    AOCC    AVIR     VIR    FVIR
	   PAIRS       0      45      45     760     760       0
	 --------------------------------------------------------


         ------------------------------------------------------------
                                     CPHF                           
                                  Rob Parrish                       
         ------------------------------------------------------------

  ==> Geometry <==

    Molecular point group: c1
    Full point group: C1

    Geometry (in Angstrom), charge = 0, multiplicity = 1:

       Center              X                  Y                   Z               Mass       
    ------------   -----------------  -----------------  -----------------  -----------------
           C         -1.248295033218     0.712456536501    -0.584541366880    12.000000000000
           C         -0.255295033218     0.096456536501     1.529458633120    12.000000000000
           C         -2.326295033218     1.285456536501     0.088458633120    12.000000000000
           C         -1.333295033218     0.669456536501     2.203458633120    12.000000000000
           C          0.728704966782    -1.024543463499    -1.828541366880    12.000000000000
           C          2.164704966782    -0.501543463499     0.028458633120    12.000000000000
           C          1.831704966782    -1.580543463499    -2.455541366880    12.000000000000
           C          3.203704966782    -1.080543463499    -0.681541366880    12.000000000000
           C         -0.212295033218     0.117456536501     0.135458633120    12.000000000000
           C          0.906704966782    -0.476543463499    -0.562541366880    12.000000000000
           C         -2.369295033218     1.264456536501     1.482458633120    12.000000000000
           N          3.068704966782    -1.623543463499    -1.912541366880    14.003074004780
           O         -3.421295033218     1.824456536501     2.139458633120    15.994914619560
           H         -1.229295033218     0.736456536501    -1.671541366880     1.007825032070
           H          0.544704966782    -0.363543463499     2.105458633120     1.007825032070
           H         -3.130295033218     1.747456536501    -0.478541366880     1.007825032070
           H         -1.361295033218     0.650456536501     3.289458633120     1.007825032070
           H         -0.238295033218    -1.023543463499    -2.322541366880     1.007825032070
           H          2.341704966782    -0.084543463499     1.014458633120     1.007825032070
           H          1.745704966782    -2.019543463499    -3.444541366880     1.007825032070
           H          4.203704966782    -1.126543463499    -0.264541366880     1.007825032070
           H         -4.203295033218     1.253456536501     2.070458633120     1.007825032070

  Nuclear repulsion =  698.485293426606177
  Reference energy  = -551.281827102348188

  ==> Basis Set <==

  Basis Set: AUG-CC-PVTZ
    Blend: AUG-CC-PVTZ
    Number of shells: 263
    Number of basis function: 805
    Number of Cartesian functions: 940
    Spherical Harmonics?: true
    Max angular momentum: 3

  ==> CGRSolver (by Rob Parrish) <==

   Number of roots    =         1
   Preconditioning    =    JACOBI
   Convergence cutoff =     1E-06
   Maximum iterations =       100

  ==> CPHFRHamiltonian (by Rob Parrish) <== 

  ==> DFJK: Density-Fitted J/K Matrices <==

    J tasked:                  Yes
    K tasked:                  Yes
    wK tasked:                  No
    OpenMP threads:              8
    Integrals threads:           8
    Memory (MB):              3576
    Algorithm:                Disk
    Integral Cache:           NONE
    Schwarz Cutoff:          1E-12
    Fitting Condition:       1E-12

   => Auxiliary Basis Set <=

  Basis Set: (AUG-CC-PVTZ AUX)
    Blend: AUG-CC-PVTZ-JKFIT
    Number of shells: 516
    Number of basis function: 1766
    Number of Cartesian functions: 2198
    Spherical Harmonics?: true
    Max angular momentum: 4

  ==> CPHF Iterations <==

  => Iterations <=

             Iter  Converged  Remaining    Residual
  CGR           1          0          1   8.498E-02
  CGR           2          0          1   3.394E-02
  CGR           3          0          1   2.392E-02
  CGR           4          0          1   9.921E-03
  CGR           5          0          1   3.766E-03
  CGR           6          0          1   1.548E-03
  CGR           7          0          1   4.752E-04
  CGR           8          0          1   1.836E-04
  CGR           9          0          1   9.324E-05
  CGR          10          0          1   3.897E-05
  CGR          11          0          1   1.303E-05
  CGR          12          0          1   4.820E-06
  CGR          13          0          1   1.381E-06
  CGR          14          1          0   4.269E-07

    CGRSolver converged.

  ==> DFCorrGrad: Density-Fitted Correlated Gradients <==

    OpenMP threads:              8
    Integrals threads:           8
    Memory (MB):              3576
    Schwarz Cutoff:          0E+00
    Fitting Condition:       1E-12

   => Auxiliary Basis Set <=

  Basis Set: (AUG-CC-PVTZ AUX)
    Blend: AUG-CC-PVTZ-JKFIT
    Number of shells: 516
    Number of basis function: 1766
    Number of Cartesian functions: 2198
    Spherical Harmonics?: true
    Max angular momentum: 4

	-----------------------------------------------------------
	 ==================> DF-MP2 Energies <==================== 
	-----------------------------------------------------------
	 Reference Energy          =    -551.2818271023481884 [Eh]
	 Singles Energy            =      -0.0000000000000005 [Eh]
	 Same-Spin Energy          =      -0.6047010357635709 [Eh]
	 Opposite-Spin Energy      =      -1.8303483334515032 [Eh]
	 Correlation Energy        =      -2.4350493692150743 [Eh]
	 Total Energy              =    -553.7168764715632960 [Eh]
	-----------------------------------------------------------
	 ================> DF-SCS-MP2 Energies <================== 
	-----------------------------------------------------------
	 SCS Same-Spin Scale       =       0.3333333333333333 [-]
	 SCS Opposite-Spin Scale   =       1.2000000000000000 [-]
	 SCS Same-Spin Energy      =      -0.2015670119211903 [Eh]
	 SCS Opposite-Spin Energy  =      -2.1964180001418039 [Eh]
	 SCS Correlation Energy    =      -2.3979850120629949 [Eh]
	 SCS Total Energy          =    -553.6798121144112201 [Eh]
	-----------------------------------------------------------


  -Total Gradient:
     Atom            X                  Y                   Z
    ------   -----------------  -----------------  -----------------
       1        0.009018070934    -0.002513708926    -0.006356354605
       2        0.008103195400    -0.007866792142    -0.004341319371
       3       -0.004778636529     0.002164341419     0.003464761610
       4       -0.003926973640    -0.000163094023     0.001478511216
       5       -0.009836247415     0.001521545737     0.002155619528
       6       -0.004826012507     0.006166533864     0.006915520125
       7       -0.012660097329     0.002207173556    -0.000209930052
       8       -0.003146944570     0.006969679091     0.011066465779
       9        0.003212717791    -0.001685483543    -0.002213928746
      10        0.004034716876    -0.001751252135    -0.001671758539
      11       -0.007697368747     0.012138406330     0.009375367754
      12        0.012500854479    -0.007004169226    -0.008173361906
      13        0.015663494361    -0.002213033541    -0.010244684148
      14       -0.001573335897    -0.000993506649    -0.006329811883
      15        0.005322831113    -0.000956609727     0.004305486704
      16       -0.002837484365     0.001057776494    -0.005009169819
      17        0.002681714177    -0.001087677023     0.005234427544
      18       -0.004515013791     0.001166011819    -0.003933626752
      19        0.001098751739     0.000255757961     0.005515597717
      20        0.000487487958    -0.001048637094    -0.002873426760
      21        0.002329258703    -0.000742460781     0.000452233218
      22       -0.008654978749    -0.005620801459     0.001393381400


*** tstop() called on gpu-2-12.local at Sun Nov 12 15:23:47 2017
Module time:
	user time   =    5207.11 seconds =      86.79 minutes
	system time =     110.39 seconds =       1.84 minutes
	total time  =       2377 seconds =      39.62 minutes
Total time:
	user time   =    5207.11 seconds =      86.79 minutes
	system time =     110.39 seconds =       1.84 minutes
	total time  =       2377 seconds =      39.62 minutes

			-----------------------------------------
			 OPTKING 2.0: for geometry optimizations 
			  - R.A. King,  Bethel University        
			-----------------------------------------

	Internal coordinates to be generated automatically.
	Detected frag 1 with atoms:  1 2 3 4 5 6 7 8 9 10 11 12 13 14 15 16 17 18 19 20
	 21 22
	---Fragment 1 Bond Connectivity---
	 1 : 3 9 14
	 2 : 4 9 15
	 3 : 1 11 16
	 4 : 2 11 17
	 5 : 7 10 18
	 6 : 8 10 19
	 7 : 5 12 20
	 8 : 6 12 21
	 9 : 1 2 10
	 10 : 5 6 9
	 11 : 3 4 13
	 12 : 7 8
	 13 : 11 22
	 14 : 1
	 15 : 2
	 16 : 3
	 17 : 4
	 18 : 5
	 19 : 6
	 20 : 7
	 21 : 8
	 22 : 13

	Assuming in current code that numbering for constraints corresponds to unified fragment.
	Fixed dihedral atom list: 
	     3    11    13    22
	---Fragment 1 Geometry and Gradient---
	 C          -2.3589357458        1.3463477356       -1.1046230967
	 C          -0.4824376959        0.1822764377        2.8902579482
	 C          -4.3960605171        2.4291608097        0.1671625907
	 C          -2.5195624671        1.2650895119        4.1639333617
	 C           1.3770528189       -1.9361065573       -3.4554424061
	 C           4.0906995457       -0.9477797898        0.0537790227
	 C           3.4614207435       -2.9867942871       -4.6403006914
	 C           6.0541249978       -2.0419312207       -1.2879265316
	 C          -0.4011794722        0.2219606865        0.2559797189
	 C           1.7134240705       -0.9005366364       -1.0630491218
	 C          -4.4773187408        2.3894765609        2.8014408199
	 N           5.7990119698       -3.0680525108       -3.6141794012
	 O          -6.4653106326        3.4477231953        4.0429908892
	 H          -2.3230309493        1.3917011628       -3.1587554032
	 H           1.0293432104       -0.6869975834        3.9787402007
	 H          -5.9154003279        3.3022142831       -0.9043121267
	 H          -2.5724747988        1.2291847153        6.2161759421
	 H          -0.4503123516       -1.9342168311       -4.3889671157
	 H           4.4251810712       -0.1597639923        1.9170489897
	 H           3.2989042960       -3.8163840595       -6.5092398368
	 H           7.9438511307       -2.1288586228       -0.4999107342
	 H          -7.9430764685        2.3686895735        3.9125997861
	             0.0090180709       -0.0025137089       -0.0063563546
	             0.0081031954       -0.0078667921       -0.0043413194
	            -0.0047786365        0.0021643414        0.0034647616
	            -0.0039269736       -0.0001630940        0.0014785112
	            -0.0098362474        0.0015215457        0.0021556195
	            -0.0048260125        0.0061665339        0.0069155201
	            -0.0126600973        0.0022071736       -0.0002099301
	            -0.0031469446        0.0069696791        0.0110664658
	             0.0032127178       -0.0016854835       -0.0022139287
	             0.0040347169       -0.0017512521       -0.0016717585
	            -0.0076973687        0.0121384063        0.0093753678
	             0.0125008545       -0.0070041692       -0.0081733619
	             0.0156634944       -0.0022130335       -0.0102446841
	            -0.0015733359       -0.0009935066       -0.0063298119
	             0.0053228311       -0.0009566097        0.0043054867
	            -0.0028374844        0.0010577765       -0.0050091698
	             0.0026817142       -0.0010876770        0.0052344275
	            -0.0045150138        0.0011660118       -0.0039336268
	             0.0010987517        0.0002557580        0.0055155977
	             0.0004874880       -0.0010486371       -0.0028734268
	             0.0023292587       -0.0007424608        0.0004522332
	            -0.0086549787       -0.0056208015        0.0013933814

	Previous optimization step data not found.  Starting new optimization.

	---Fragment 1 Intrafragment Coordinates---
	 - Coordinate -           - BOHR/RAD -       - ANG/DEG -
	 R(1,3)           =         2.634350	       1.394038
	 R(1,9)           =         2.635962	       1.394891
	 R(1,14)          =         2.054947	       1.087431
	 R(2,4)           =         2.635263	       1.394521
	 R(2,9)           =         2.635830	       1.394821
	 R(2,15)          =         2.055702	       1.087831
	 R(3,11)          =         2.635830	       1.394821
	 R(3,16)          =         2.053941	       1.086899
	 R(4,11)          =         2.636938	       1.395407
	 R(4,17)          =         2.053239	       1.086527
	 R(5,7)           =         2.617713	       1.385234
	 R(5,10)          =         2.628516	       1.390951
	 R(5,18)          =         2.052008	       1.085876
	 R(6,8)           =         2.617705	       1.385230
	 R(6,10)          =         2.626971	       1.390133
	 R(6,19)          =         2.050517	       1.085087
	 R(7,12)          =         2.554185	       1.351616
	 R(7,20)          =         2.051235	       1.085467
	 R(8,12)          =         2.555281	       1.352196
	 R(8,21)          =         2.049290	       1.084438
	 R(9,10)          =         2.733384	       1.446444
	 R(11,13)         =         2.571662	       1.360865
	 R(13,22)         =         1.834423	       0.970735
	 B(1,3,11)        =         2.094553	     120.009056
	 B(1,3,16)        =         2.088505	     119.662516
	 B(1,9,2)         =         2.093692	     119.959722
	 B(1,9,10)        =         2.095161	     120.043881
	 B(2,4,11)        =         2.093699	     119.960108
	 B(2,4,17)        =         2.089577	     119.723926
	 B(2,9,10)        =         2.094332	     119.996376
	 B(3,1,9)         =         2.094940	     120.031219
	 B(3,1,14)        =         2.079469	     119.144799
	 B(3,11,4)        =         2.094306	     119.994870
	 B(3,11,13)       =         2.094549	     120.008801
	 B(4,2,9)         =         2.095181	     120.045019
	 B(4,2,15)        =         2.078675	     119.099297
	 B(4,11,13)       =         2.094331	     119.996326
	 B(5,7,12)        =         2.164774	     124.032419
	 B(5,7,20)        =         2.107900	     120.773750
	 B(5,10,6)        =         2.089402	     119.713913
	 B(5,10,9)        =         2.096711	     120.132663
	 B(6,8,12)        =         2.164670	     124.026428
	 B(6,8,21)        =         2.108649	     120.816676
	 B(6,10,9)        =         2.097073	     120.153413
	 B(7,5,10)        =         2.058056	     117.917911
	 B(7,5,18)        =         2.098486	     120.234396
	 B(7,12,8)        =         2.031222	     116.380442
	 B(8,6,10)        =         2.058246	     117.928826
	 B(8,6,19)        =         2.099051	     120.266760
	 B(9,1,14)        =         2.108776	     120.823969
	 B(9,2,15)        =         2.109330	     120.855683
	 B(10,5,18)       =         2.126643	     121.847689
	 B(10,6,19)       =         2.125888	     121.804412
	 B(11,3,16)       =         2.100127	     120.328425
	 B(11,4,17)       =         2.099910	     120.315955
	 B(11,13,22)      =         1.924497	     110.265577
	 B(12,7,20)       =         2.010511	     115.193804
	 B(12,8,21)       =         2.009864	     115.156734
	 D(1,3,11,4)      =        -0.000325	      -0.018609
	 D(1,3,11,13)     =         3.140978	     179.964785
	 D(1,9,2,4)       =         0.000325	       0.018608
	 D(1,9,2,15)      =        -3.141497	    -179.994534
	 D(1,9,10,5)      =        -0.524224	     -30.035797
	 D(1,9,10,6)      =         2.616694	     149.925506
	 D(2,4,11,3)      =         0.000301	       0.017261
	 D(2,4,11,13)     =        -3.141002	    -179.966135
	 D(2,9,1,3)       =        -0.000348	      -0.019945
	 D(2,9,1,14)      =        -3.141221	    -179.978731
	 D(2,9,10,5)      =         2.618285	     150.016707
	 D(2,9,10,6)      =        -0.523983	     -30.021991
	 D(3,1,9,10)      =        -3.141025	    -179.967461
	 D(3,11,4,17)     =         3.141223	     179.978848
	 D(3,11,13,22)    =         1.308577	      74.975912
	 D(4,2,9,10)      =         3.141002	     179.966149
	 D(4,11,3,16)     =         3.141593	     180.000000
	 D(4,11,13,22)    =        -1.833306	    -105.040695
	 D(5,7,12,8)      =        -0.001332	      -0.076323
	 D(5,10,6,8)      =         0.000381	       0.021838
	 D(5,10,6,19)     =        -3.140989	    -179.965395
	 D(6,8,12,7)      =         0.001671	       0.095732
	 D(6,10,5,7)      =        -0.000077	      -0.004437
	 D(6,10,5,18)     =        -3.141299	    -179.983151
	 D(7,5,10,9)      =         3.140843	     179.957036
	 D(7,12,8,21)     =         3.140716	     179.949799
	 D(8,6,10,9)      =        -3.140539	    -179.939628
	 D(8,12,7,20)     =         3.139212	     179.863574
	 D(9,1,3,11)      =         0.000348	       0.019955
	 D(9,1,3,16)      =        -3.141571	    -179.998735
	 D(9,2,4,11)      =        -0.000301	      -0.017270
	 D(9,2,4,17)      =        -3.141228	    -179.979086
	 D(9,10,5,18)     =        -0.000378	      -0.021678
	 D(9,10,6,19)     =         0.001277	       0.073140
	 D(10,5,7,12)     =         0.000580	       0.033223
	 D(10,5,7,20)     =        -3.139908	    -179.903478
	 D(10,6,8,12)     =        -0.001235	      -0.070741
	 D(10,6,8,21)     =        -3.140143	    -179.916933
	 D(10,9,1,14)     =         0.001287	       0.073752
	 D(10,9,2,15)     =        -0.000820	      -0.046992
	 D(11,3,1,14)     =         3.141234	     179.979432
	 D(11,4,2,15)     =         3.141517	     179.995641
	 D(12,7,5,18)     =        -3.141378	    -179.987706
	 D(12,8,6,19)     =         3.140139	     179.916697
	 D(13,11,3,16)    =        -0.000286	      -0.016400
	 D(13,11,4,17)    =        -0.000079	      -0.004548
	 D(14,1,3,16)     =        -0.000685	      -0.039257
	 D(15,2,4,17)     =         0.000590	       0.033826
	 D(18,5,7,20)     =         0.001319	       0.075593
	 D(19,6,8,21)     =         0.001231	       0.070505

	Current energy   :      -553.7168764716

	Generating empirical Hessian (Schlegel '84) for each fragment.
	Adding user-defined constraint: Fragment 1; Coordinate 73:
		Value =     1.308577; Fixed value    =     1.308997
		Force =     0.000210; Force constant =     0.500000
	Removing off-diagonal coupling between coordinate 73 and others.
	Taking RFO optimization step.
	Going to follow RFO solution 1.
	Using RFO vector 1.

	Determining step-restricting scale parameter for RS-RFO.
	Maximum step size allowed    0.10000

	 Iter      |step|        alpha        rfo_root  
	------------------------------------------------
	    0     0.29560       1.00000           1
	    1     0.20034       3.63794           1
	    2     0.14944       9.21456           1
	    3     0.12028      19.39752           1
	    4     0.10510      30.69796           1
	    5     0.10044      35.66409           1
	    6     0.10000      36.17121           1
	------------------------------------------------
	Norm of target step-size    0.10000
	Projected energy change by RFO approximation:        -0.0046350734

	Back-transformation to cartesian coordinates...
	Could not converge backtransformation.
	Using first guess instead.

	--- Internal Coordinate Step in ANG or DEG, aJ/ANG or AJ/DEG ---
	 ---------------------------------------------------------------------------
	   Coordinate                Previous        Force       Change         New 
	   ----------                --------       ------       ------       ------
	    1 R(1,3)          =      1.394038    -0.051506    -0.005201     1.388837
	    2 R(1,9)          =      1.394891    -0.004857    -0.000227     1.394664
	    3 R(1,14)         =      1.087431    -0.051721    -0.006364     1.081067
	    4 R(2,4)          =      1.394521    -0.053218    -0.005430     1.389092
	    5 R(2,9)          =      1.394821    -0.003161    -0.000060     1.394761
	    6 R(2,15)         =      1.087831    -0.054365    -0.006718     1.081113
	    7 R(3,11)         =      1.394821    -0.053933    -0.005596     1.389225
	    8 R(3,16)         =      1.086899    -0.042525    -0.005207     1.081692
	    9 R(4,11)         =      1.395407    -0.072826    -0.007578     1.387830
	   10 R(4,17)         =      1.086527    -0.042692    -0.005240     1.081287
	   11 R(5,7)          =      1.385234     0.001433     0.000123     1.385357
	   12 R(5,10)         =      1.390951     0.003518     0.000983     1.391933
	   13 R(5,18)         =      1.085876    -0.047879    -0.005851     1.080024
	   14 R(6,8)          =      1.385230     0.002038     0.000190     1.385420
	   15 R(6,10)         =      1.390133     0.008815     0.001480     1.391613
	   16 R(6,19)         =      1.085087    -0.043578    -0.005321     1.079766
	   17 R(7,12)         =      1.351616    -0.122675    -0.011363     1.340254
	   18 R(7,20)         =      1.085467    -0.024746    -0.003031     1.082435
	   19 R(8,12)         =      1.352196    -0.126438    -0.011721     1.340476
	   20 R(8,21)         =      1.084438    -0.019387    -0.002355     1.082083
	   21 R(9,10)         =      1.446444     0.155566     0.018041     1.464485
	   22 R(11,13)        =      1.360865     0.106401     0.009893     1.370758
	   23 R(13,22)        =      0.970735    -0.083865    -0.007671     0.963064
	   24 B(1,3,11)       =    120.009056     0.000105     0.160689   120.169746
	   25 B(1,3,16)       =    119.662516     0.000158     0.406201   120.068717
	   26 B(1,9,2)        =    119.959722    -0.000764    -1.348137   118.611585
	   27 B(1,9,10)       =    120.043881     0.000373     0.657591   120.701472
	   28 B(2,4,11)       =    119.960108     0.000096     0.130863   120.090972
	   29 B(2,4,17)       =    119.723926     0.000182     0.467547   120.191473
	   30 B(2,9,10)       =    119.996376     0.000391     0.690502   120.686878
	   31 B(3,1,9)        =    120.031219     0.000331     0.657839   120.689058
	   32 B(3,1,14)       =    119.144799    -0.000093    -0.164216   118.980583
	   33 B(3,11,4)       =    119.994870    -0.000149    -0.343544   119.651326
	   34 B(3,11,13)      =    120.008801     0.000291     0.557383   120.566184
	   35 B(4,2,9)        =    120.045019     0.000381     0.741909   120.786928
	   36 B(4,2,15)       =    119.099297    -0.000120    -0.212366   118.886931
	   37 B(4,11,13)      =    119.996326    -0.000142    -0.216772   119.779554
	   38 B(5,7,12)       =    124.032419     0.000040    -0.005324   124.027095
	   39 B(5,7,20)       =    120.773750    -0.000072    -0.118579   120.655170
	   40 B(5,10,6)       =    119.713913    -0.001195    -2.043836   117.670077
	   41 B(5,10,9)       =    120.132663     0.000601     1.028631   121.161294
	   42 B(6,8,12)       =    124.026428     0.000038    -0.006888   124.019540
	   43 B(6,8,21)       =    120.816676    -0.000075    -0.127221   120.689455
	   44 B(6,10,9)       =    120.153413     0.000594     1.015208   121.168621
	   45 B(7,5,10)       =    117.917911     0.000526     1.075202   118.993113
	   46 B(7,5,18)       =    120.234396    -0.000205    -0.407252   119.827145
	   47 B(7,12,8)       =    116.380442     0.000068    -0.089944   116.290498
	   48 B(8,6,10)       =    117.928826     0.000523     1.070800   118.999626
	   49 B(8,6,19)       =    120.266760    -0.000211    -0.423168   119.843592
	   50 B(9,1,14)       =    120.823969    -0.000238    -0.494511   120.329458
	   51 B(9,2,15)       =    120.855683    -0.000261    -0.530496   120.325186
	   52 B(10,5,18)      =    121.847689    -0.000321    -0.668464   121.179225
	   53 B(10,6,19)      =    121.804412    -0.000312    -0.648191   121.156222
	   54 B(11,3,16)      =    120.328425    -0.000263    -0.567039   119.761386
	   55 B(11,4,17)      =    120.315955    -0.000278    -0.598404   119.717551
	   56 B(11,13,22)     =    110.265577    -0.000227    -0.524147   109.741431
	   57 B(12,7,20)      =    115.193804     0.000032     0.123891   115.317695
	   58 B(12,8,21)      =    115.156734     0.000037     0.134270   115.291004
	   59 D(1,3,11,4)     =     -0.018609     0.000013     0.228189     0.209580
	   60 D(1,3,11,13)    =    179.964785    -0.000021    -0.379830   179.584956
	   61 D(1,9,2,4)      =      0.018608     0.000006     0.116667     0.135275
	   62 D(1,9,2,15)     =   -179.994534    -0.000013    -0.229556  -180.224090
	   63 D(1,9,10,5)     =    -30.035797    -0.000029    -0.542695   -30.578492
	   64 D(1,9,10,6)     =    149.925506    -0.000029    -0.538287   149.387220
	   65 D(2,4,11,3)     =      0.017261    -0.000005    -0.098385    -0.081123
	   66 D(2,4,11,13)    =   -179.966135     0.000028     0.504669  -179.461466
	   67 D(2,9,1,3)      =     -0.019945     0.000001     0.013998    -0.005947
	   68 D(2,9,1,14)     =   -179.978731    -0.000021    -0.375963  -180.354694
	   69 D(2,9,10,5)     =    150.016707    -0.000027    -0.501696   149.515011
	   70 D(2,9,10,6)     =    -30.021991    -0.000027    -0.497287   -30.519278
	   71 D(3,1,9,10)     =   -179.967461     0.000003     0.053109  -179.914352
	   72 D(3,11,4,17)    =    179.978848    -0.000005    -0.085274   179.893574
	   73 D(3,11,13,22)   =     74.975912    -0.000000    -0.001073    74.974839
	   74 D(4,2,9,10)     =    179.966149     0.000004     0.077545   180.043694
	   75 D(4,11,3,16)    =    180.000000     0.000020     0.350675   180.350675
	   76 D(4,11,13,22)   =   -105.040695    -0.000034    -0.609889  -105.650584
	   77 D(5,7,12,8)     =     -0.076323     0.000001     0.021401    -0.054922
	   78 D(5,10,6,8)     =      0.021838    -0.000000     0.000788     0.022625
	   79 D(5,10,6,19)    =   -179.965395    -0.000016    -0.284704  -180.250099
	   80 D(6,8,12,7)     =      0.095732    -0.000000    -0.008333     0.087399
	   81 D(6,10,5,7)     =     -0.004437     0.000001     0.011238     0.006801
	   82 D(6,10,5,18)    =   -179.983151    -0.000016    -0.272085  -180.255236
	   83 D(7,5,10,9)     =    179.957036     0.000001     0.016637   179.973673
	   84 D(7,12,8,21)    =    179.949799     0.000008     0.145519   180.095318
	   85 D(8,6,10,9)     =   -179.939628    -0.000000    -0.004617  -179.944245
	   86 D(8,12,7,20)    =    179.863574     0.000009     0.153251   180.016825
	   87 D(9,1,3,11)     =      0.019955    -0.000010    -0.186489    -0.166535
	   88 D(9,1,3,16)     =   -179.998735    -0.000017    -0.309331  -180.308066
	   89 D(9,2,4,11)     =     -0.017270    -0.000004    -0.075254    -0.092524
	   90 D(9,2,4,17)     =   -179.979086    -0.000005    -0.088015  -180.067100
	   91 D(9,10,5,18)    =     -0.021678    -0.000015    -0.266686    -0.288364
	   92 D(9,10,6,19)    =      0.073140    -0.000017    -0.290108    -0.216969
	   93 D(10,5,7,12)    =      0.033223    -0.000001    -0.023406     0.009817
	   94 D(10,5,7,20)    =   -179.903478    -0.000009    -0.162097  -180.065575
	   95 D(10,6,8,12)    =     -0.070741    -0.000000    -0.002804    -0.073544
	   96 D(10,6,8,21)    =   -179.916933    -0.000009    -0.164937  -180.081870
	   97 D(10,9,1,14)    =      0.073752    -0.000019    -0.336852    -0.263100
	   98 D(10,9,2,15)    =     -0.046992    -0.000015    -0.268678    -0.315670
	   99 D(11,3,1,14)    =    179.979432     0.000011     0.198137   180.177569
	  100 D(11,4,2,15)    =    179.995641     0.000015     0.266110   180.261751
	  101 D(12,7,5,18)    =   -179.987706     0.000015     0.255941  -179.731764
	  102 D(12,8,6,19)    =    179.916697     0.000016     0.278827   180.195524
	  103 D(13,11,3,16)   =     -0.016400    -0.000014    -0.257549    -0.273949
	  104 D(13,11,4,17)   =     -0.004548     0.000029     0.517780     0.513232
	  105 D(14,1,3,16)    =     -0.039257     0.000004     0.075295     0.036038
	  106 D(15,2,4,17)    =      0.033826     0.000014     0.253349     0.287175
	  107 D(18,5,7,20)    =      0.075593     0.000007     0.117251     0.192844
	  108 D(19,6,8,21)    =      0.070505     0.000007     0.116694     0.187198
	 ---------------------------------------------------------------------------
	Successfully symmetrized geometry.
	 Forces used to impose fixed constraints are not included.
	  Forces zeroed: 73 

  ==> Convergence Check <==

  Measures of convergence in internal coordinates in au.
  Criteria marked as inactive (o), active & met (*), and active & unmet ( ).
  --------------------------------------------------------------------------------------------- ~
   Step     Total Energy     Delta E     MAX Force     RMS Force      MAX Disp      RMS Disp    ~
  --------------------------------------------------------------------------------------------- ~
    Convergence Criteria    1.00e-06 *    3.00e-04 *             o    1.20e-03 *             o  ~
  --------------------------------------------------------------------------------------------- ~
      1    -553.71687647   -5.54e+02      1.89e-02      4.66e-03 o    3.57e-02      9.61e-03 o  ~
  ---------------------------------------------------------------------------------------------

	Writing optimization data to binary file.
	Structure for next step:
	Cartesian Geometry (in Angstrom)
	    C    -1.2622717132   0.7232498560  -0.5669053748
	    C    -0.2821450211   0.1034324234   1.5327711254
	    C    -2.3364222761   1.2942060805   0.1032267493
	    C    -1.3569260653   0.6715879016   2.2047981366
	    C     0.7579324111  -1.0394432471  -1.8320187411
	    C     2.1813175325  -0.5104487715   0.0029861419
	    C     1.8610433779  -1.5949638157  -2.4595191494
	    C     3.2219495632  -1.0887298596  -0.7055788412
	    C    -0.2216037039   0.1205987667   0.1394300041
	    C     0.9120955901  -0.4798929325  -0.5668643003
	    C    -2.3872568060   1.2677137761   1.4912685847
	    N     3.0889675974  -1.6321985969  -1.9237054735
	    O    -3.4393568900   1.8362009880   2.1612579229
	    H    -1.2408900301   0.7573371682  -1.6472233086
	    H     0.5076651101  -0.3595406192   2.1078029298
	    H    -3.1357188707   1.7633919187  -0.4544887026
	    H    -1.3945563191   0.6518900274   3.2852506626
	    H    -0.2027596124  -1.0501847004  -2.3253824299
	    H     2.3653319582  -0.0890939241   0.9799684104
	    H     1.7714947689  -2.0382564717  -3.4429513677
	    H     4.2199830412  -1.1261424598  -0.2891270008
	    H    -4.2163643735   1.2723302951   2.0850939509
			--------------------------
			 OPTKING Finished Execution 
			--------------------------

    Structure for next step:
    Molecular point group: c1
    Full point group: C1

    Geometry (in Angstrom), charge = 0, multiplicity = 1:

    C           -1.262033141223     0.723823745129    -0.567231327687
    C           -0.281906449106     0.104006312515     1.532445172457
    C           -2.336183704086     1.294779969700     0.102900796448
    C           -1.356687493335     0.672161790781     2.204472183711
    C            0.758170983119    -1.038869357981    -1.832344693956
    C            2.181556104516    -0.509874882358     0.002660188967
    C            1.861281949934    -1.594389926554    -2.459845102344
    C            3.222188135192    -1.088155970429    -0.705904794126
    C           -0.221365131941     0.121172655838     0.139104051199
    C            0.912334162104    -0.479319043374    -0.567190253167
    C           -2.387018234009     1.268287665223     1.490942631813
    N            3.089206169381    -1.631624707731    -1.924031426388
    O           -3.439118317961     1.836774877162     2.160931970016
    H           -1.240651458136     0.757911057341    -1.647549261540
    H            0.507903682150    -0.358966730008     2.107476976885
    H           -3.135480298690     1.763965807827    -0.454814655450
    H           -1.394317747094     0.652463916553     3.284924709714
    H           -0.202521040364    -1.049610811199    -2.325708382784
    H            2.365570530219    -0.088520034913     0.979642457457
    H            1.771733340938    -2.037682582499    -3.443277320622
    H            4.220221613154    -1.125568570616    -0.289452953678
    H           -4.216125801533     1.272904184235     2.084767998011

gradient() will perform analytic gradient computation.

*** tstart() called on gpu-2-12.local
*** at Sun Nov 12 15:23:48 2017

    SCF Algorithm Type (re)set to DF.

*** tstart() called on gpu-2-12.local
*** at Sun Nov 12 15:23:48 2017

   => Loading Basis Set <=

    Name: AUG-CC-PVTZ
    Role: ORBITAL
    Keyword: BASIS
    atoms 1-11  entry C          line   221 file /cbio/jclab/home/chayas/anaconda/envs/py35/share/psi4/basis/aug-cc-pvtz.gbs 
    atoms 12    entry N          line   267 file /cbio/jclab/home/chayas/anaconda/envs/py35/share/psi4/basis/aug-cc-pvtz.gbs 
    atoms 13    entry O          line   313 file /cbio/jclab/home/chayas/anaconda/envs/py35/share/psi4/basis/aug-cc-pvtz.gbs 
    atoms 14-22 entry H          line    34 file /cbio/jclab/home/chayas/anaconda/envs/py35/share/psi4/basis/aug-cc-pvtz.gbs 


         ---------------------------------------------------------
                                   SCF
            by Justin Turney, Rob Parrish, and Andy Simmonett
                              RHF Reference
                        8 Threads,   4768 MiB Core
         ---------------------------------------------------------

  ==> Geometry <==

    Molecular point group: c1
    Full point group: C1

    Geometry (in Angstrom), charge = 0, multiplicity = 1:

       Center              X                  Y                   Z               Mass       
    ------------   -----------------  -----------------  -----------------  -----------------
           C         -1.262033141223     0.723823745129    -0.567231327687    12.000000000000
           C         -0.281906449106     0.104006312515     1.532445172457    12.000000000000
           C         -2.336183704086     1.294779969700     0.102900796448    12.000000000000
           C         -1.356687493335     0.672161790781     2.204472183711    12.000000000000
           C          0.758170983119    -1.038869357981    -1.832344693956    12.000000000000
           C          2.181556104516    -0.509874882358     0.002660188967    12.000000000000
           C          1.861281949934    -1.594389926554    -2.459845102344    12.000000000000
           C          3.222188135192    -1.088155970429    -0.705904794126    12.000000000000
           C         -0.221365131941     0.121172655838     0.139104051199    12.000000000000
           C          0.912334162104    -0.479319043374    -0.567190253167    12.000000000000
           C         -2.387018234009     1.268287665223     1.490942631813    12.000000000000
           N          3.089206169381    -1.631624707731    -1.924031426388    14.003074004780
           O         -3.439118317961     1.836774877162     2.160931970016    15.994914619560
           H         -1.240651458136     0.757911057341    -1.647549261540     1.007825032070
           H          0.507903682150    -0.358966730008     2.107476976885     1.007825032070
           H         -3.135480298690     1.763965807827    -0.454814655450     1.007825032070
           H         -1.394317747094     0.652463916553     3.284924709714     1.007825032070
           H         -0.202521040364    -1.049610811199    -2.325708382784     1.007825032070
           H          2.365570530219    -0.088520034913     0.979642457457     1.007825032070
           H          1.771733340938    -2.037682582499    -3.443277320622     1.007825032070
           H          4.220221613154    -1.125568570616    -0.289452953678     1.007825032070
           H         -4.216125801533     1.272904184235     2.084767998011     1.007825032070

  Running in c1 symmetry.

  Rotational constants: A =      0.09843  B =      0.01332  C =      0.01194 [cm^-1]
  Rotational constants: A =   2950.94670  B =    399.29646  C =    357.91929 [MHz]
  Nuclear repulsion =  697.278103665616300

  Charge       = 0
  Multiplicity = 1
  Electrons    = 90
  Nalpha       = 45
  Nbeta        = 45

  ==> Algorithm <==

  SCF Algorithm Type is DF.
  DIIS enabled.
  MOM disabled.
  Fractional occupation disabled.
  Guess Type is READ.
  Energy threshold   = 1.00e-10
  Density threshold  = 1.00e-10
  Integral threshold = 0.00e+00

  ==> Primary Basis <==

  Basis Set: AUG-CC-PVTZ
    Blend: AUG-CC-PVTZ
    Number of shells: 263
    Number of basis function: 805
    Number of Cartesian functions: 940
    Spherical Harmonics?: true
    Max angular momentum: 3

   => Loading Basis Set <=

    Name: (AUG-CC-PVTZ AUX)
    Role: JKFIT
    Keyword: DF_BASIS_SCF
    atoms 1-11  entry C          line   161 file /cbio/jclab/home/chayas/anaconda/envs/py35/share/psi4/basis/aug-cc-pvtz-jkfit.gbs 
    atoms 12    entry N          line   223 file /cbio/jclab/home/chayas/anaconda/envs/py35/share/psi4/basis/aug-cc-pvtz-jkfit.gbs 
    atoms 13    entry O          line   285 file /cbio/jclab/home/chayas/anaconda/envs/py35/share/psi4/basis/aug-cc-pvtz-jkfit.gbs 
    atoms 14-22 entry H          line    69 file /cbio/jclab/home/chayas/anaconda/envs/py35/share/psi4/basis/aug-cc-pvtz-jkfit.gbs 

  Reading orbitals from file 180, no projection.

  ==> Pre-Iterations <==

   -------------------------------------------------------
    Irrep   Nso     Nmo     Nalpha   Nbeta   Ndocc  Nsocc
   -------------------------------------------------------
     A        805     805       0       0       0       0
   -------------------------------------------------------
    Total     805     805      45      45      45       0
   -------------------------------------------------------

  ==> Integral Setup <==

  ==> DFJK: Density-Fitted J/K Matrices <==

    J tasked:                  Yes
    K tasked:                  Yes
    wK tasked:                  No
    OpenMP threads:              8
    Integrals threads:           8
    Memory (MB):              3576
    Algorithm:                Disk
    Integral Cache:           NONE
    Schwarz Cutoff:          1E-12
    Fitting Condition:       1E-12

   => Auxiliary Basis Set <=

  Basis Set: (AUG-CC-PVTZ AUX)
    Blend: AUG-CC-PVTZ-JKFIT
    Number of shells: 516
    Number of basis function: 1766
    Number of Cartesian functions: 2198
    Spherical Harmonics?: true
    Max angular momentum: 4

  Minimum eigenvalue in the overlap matrix is 6.2099630085E-07.
  Using Symmetric Orthogonalization.

  SCF Guess: Orbitals guess was supplied from a previous computation.

  ==> Iterations <==

                           Total Energy        Delta E     RMS |[F,P]|

   @DF-RHF iter   0:  -551.43125268525216   -5.51431e+02   5.34274e-04 
   @DF-RHF iter   1:  -551.28575509330278    1.45498e-01   1.60080e-04 
   @DF-RHF iter   2:  -551.28670034576885   -9.45252e-04   1.25792e-04 DIIS
   @DF-RHF iter   3:  -551.28761308596063   -9.12740e-04   1.79117e-05 DIIS
   @DF-RHF iter   4:  -551.28762759681308   -1.45109e-05   4.34934e-06 DIIS
   @DF-RHF iter   5:  -551.28762999565765   -2.39884e-06   1.43115e-06 DIIS
   @DF-RHF iter   6:  -551.28763033723453   -3.41577e-07   9.41226e-07 DIIS
   @DF-RHF iter   7:  -551.28763045800611   -1.20772e-07   3.22835e-07 DIIS
   @DF-RHF iter   8:  -551.28763049139400   -3.33879e-08   1.63445e-07 DIIS
   @DF-RHF iter   9:  -551.28763049760494   -6.21094e-09   5.21057e-08 DIIS
   @DF-RHF iter  10:  -551.28763049846020   -8.55266e-10   2.19585e-08 DIIS
   @DF-RHF iter  11:  -551.28763049856843   -1.08230e-10   5.50991e-09 DIIS
   @DF-RHF iter  12:  -551.28763049858571   -1.72804e-11   2.54440e-09 DIIS
   @DF-RHF iter  13:  -551.28763049858412    1.59162e-12   1.94614e-09 DIIS
   @DF-RHF iter  14:  -551.28763049857889    5.22959e-12   8.50452e-10 DIIS
   @DF-RHF iter  15:  -551.28763049858287   -3.97904e-12   3.55240e-10 DIIS
   @DF-RHF iter  16:  -551.28763049858071    2.16005e-12   6.21175e-11 DIIS

  ==> Post-Iterations <==

    Orbital Energies (a.u.)
    -----------------------

    Doubly Occupied:                                                      

       1A    -20.588616     2A    -15.561979     3A    -11.305734  
       4A    -11.273275     5A    -11.273198     6A    -11.266972  
       7A    -11.252349     8A    -11.250956     9A    -11.250293  
      10A    -11.243209    11A    -11.242018    12A    -11.237467  
      13A    -11.237254    14A     -1.405209    15A     -1.256168  
      16A     -1.174894    17A     -1.105515    18A     -1.039547  
      19A     -1.029677    20A     -1.012015    21A     -0.879720  
      22A     -0.872903    23A     -0.838611    24A     -0.812472  
      25A     -0.747675    26A     -0.724205    27A     -0.683689  
      28A     -0.664762    29A     -0.648586    30A     -0.643181  
      31A     -0.633678    32A     -0.608236    33A     -0.597196  
      34A     -0.592680    35A     -0.549888    36A     -0.543917  
      37A     -0.531212    38A     -0.514629    39A     -0.509429  
      40A     -0.482384    41A     -0.419118    42A     -0.402635  
      43A     -0.354442    44A     -0.349178    45A     -0.317768  

    Virtual:                                                              

      46A      0.022950    47A      0.029018    48A      0.031916  
      49A      0.038918    50A      0.041331    51A      0.045654  
      52A      0.054045    53A      0.056487    54A      0.059814  
      55A      0.074730    56A      0.078502    57A      0.084042  
      58A      0.088388    59A      0.091796    60A      0.093981  
      61A      0.101962    62A      0.107073    63A      0.108040  
      64A      0.110924    65A      0.113645    66A      0.116968  
      67A      0.117418    68A      0.121239    69A      0.127604  
      70A      0.129175    71A      0.132077    72A      0.132995  
      73A      0.137820    74A      0.141530    75A      0.146053  
      76A      0.148209    77A      0.149955    78A      0.153234  
      79A      0.158161    80A      0.160318    81A      0.168249  
      82A      0.169606    83A      0.176361    84A      0.180796  
      85A      0.184928    86A      0.186405    87A      0.201176  
      88A      0.203801    89A      0.210684    90A      0.216135  
      91A      0.222099    92A      0.225194    93A      0.228569  
      94A      0.233810    95A      0.241211    96A      0.241699  
      97A      0.243860    98A      0.247369    99A      0.253020  
     100A      0.257680   101A      0.261228   102A      0.263285  
     103A      0.266224   104A      0.272289   105A      0.275035  
     106A      0.282158   107A      0.286487   108A      0.289916  
     109A      0.291349   110A      0.296228   111A      0.300505  
     112A      0.302132   113A      0.304784   114A      0.310013  
     115A      0.315149   116A      0.319576   117A      0.324794  
     118A      0.327195   119A      0.328338   120A      0.331488  
     121A      0.338766   122A      0.341168   123A      0.351365  
     124A      0.357207   125A      0.360315   126A      0.362865  
     127A      0.368725   128A      0.372171   129A      0.381189  
     130A      0.383906   131A      0.387039   132A      0.395792  
     133A      0.398784   134A      0.408273   135A      0.416983  
     136A      0.420571   137A      0.425381   138A      0.427665  
     139A      0.429733   140A      0.435255   141A      0.436940  
     142A      0.437666   143A      0.444472   144A      0.447125  
     145A      0.450713   146A      0.458601   147A      0.461652  
     148A      0.463008   149A      0.465577   150A      0.471698  
     151A      0.474610   152A      0.480579   153A      0.483685  
     154A      0.486470   155A      0.490993   156A      0.498635  
     157A      0.499658   158A      0.501455   159A      0.503175  
     160A      0.508966   161A      0.511019   162A      0.512941  
     163A      0.515023   164A      0.517095   165A      0.520754  
     166A      0.526709   167A      0.527481   168A      0.528754  
     169A      0.532320   170A      0.538112   171A      0.542558  
     172A      0.547507   173A      0.549814   174A      0.552167  
     175A      0.558995   176A      0.561323   177A      0.567810  
     178A      0.575564   179A      0.578696   180A      0.588735  
     181A      0.592209   182A      0.603195   183A      0.608170  
     184A      0.610123   185A      0.614399   186A      0.622376  
     187A      0.624234   188A      0.629508   189A      0.636414  
     190A      0.640918   191A      0.650100   192A      0.653389  
     193A      0.664420   194A      0.679567   195A      0.687461  
     196A      0.691171   197A      0.692569   198A      0.695828  
     199A      0.702753   200A      0.706210   201A      0.712210  
     202A      0.719172   203A      0.721433   204A      0.723388  
     205A      0.730883   206A      0.738219   207A      0.739775  
     208A      0.744780   209A      0.758509   210A      0.762907  
     211A      0.765595   212A      0.767552   213A      0.772619  
     214A      0.775142   215A      0.784335   216A      0.794628  
     217A      0.802418   218A      0.807438   219A      0.819311  
     220A      0.821598   221A      0.827693   222A      0.841161  
     223A      0.842051   224A      0.844062   225A      0.849297  
     226A      0.860960   227A      0.863509   228A      0.869551  
     229A      0.875252   230A      0.876502   231A      0.879603  
     232A      0.883783   233A      0.889702   234A      0.895002  
     235A      0.901000   236A      0.904025   237A      0.907181  
     238A      0.910819   239A      0.914352   240A      0.922303  
     241A      0.926572   242A      0.929379   243A      0.938565  
     244A      0.944788   245A      0.948703   246A      0.953344  
     247A      0.959802   248A      0.963086   249A      0.968957  
     250A      0.971680   251A      0.977298   252A      0.978934  
     253A      0.981987   254A      0.983813   255A      0.992606  
     256A      0.999999   257A      1.000825   258A      1.006589  
     259A      1.009395   260A      1.016078   261A      1.017560  
     262A      1.023103   263A      1.028617   264A      1.035733  
     265A      1.037271   266A      1.039774   267A      1.043844  
     268A      1.046122   269A      1.048948   270A      1.056658  
     271A      1.058511   272A      1.065954   273A      1.068551  
     274A      1.081498   275A      1.082855   276A      1.084877  
     277A      1.089066   278A      1.094048   279A      1.098262  
     280A      1.099721   281A      1.103574   282A      1.105984  
     283A      1.108482   284A      1.114220   285A      1.117674  
     286A      1.123001   287A      1.126868   288A      1.139816  
     289A      1.151068   290A      1.158581   291A      1.160282  
     292A      1.166564   293A      1.170240   294A      1.174508  
     295A      1.177997   296A      1.178451   297A      1.183150  
     298A      1.183645   299A      1.190551   300A      1.195077  
     301A      1.198308   302A      1.206601   303A      1.212355  
     304A      1.216006   305A      1.217827   306A      1.221216  
     307A      1.225598   308A      1.236075   309A      1.244745  
     310A      1.246198   311A      1.266326   312A      1.271107  
     313A      1.277824   314A      1.282512   315A      1.286199  
     316A      1.290808   317A      1.294636   318A      1.298397  
     319A      1.301374   320A      1.308395   321A      1.314925  
     322A      1.318614   323A      1.322052   324A      1.331309  
     325A      1.333155   326A      1.342098   327A      1.352811  
     328A      1.368227   329A      1.371197   330A      1.372077  
     331A      1.384142   332A      1.389102   333A      1.399700  
     334A      1.410784   335A      1.415991   336A      1.424381  
     337A      1.443331   338A      1.443605   339A      1.453666  
     340A      1.458224   341A      1.463948   342A      1.473405  
     343A      1.485691   344A      1.489734   345A      1.505361  
[...]
	 R(9,10)          =         2.762549	       1.461878
	 R(11,13)         =         2.606458	       1.379278
	 R(13,22)         =         1.816318	       0.961154
	 B(1,3,11)        =         2.092870	     119.912639
	 B(1,3,16)        =         2.108832	     120.827148
	 B(1,9,2)         =         2.066360	     118.393716
	 B(1,9,10)        =         2.107792	     120.767608
	 B(2,4,11)        =         2.092993	     119.919650
	 B(2,4,17)        =         2.113664	     121.104032
	 B(2,9,10)        =         2.109020	     120.837972
	 B(3,1,9)         =         2.110346	     120.913933
	 B(3,1,14)        =         2.085241	     119.475528
	 B(3,11,4)        =         2.092557	     119.894701
	 B(3,11,13)       =         2.108401	     120.802462
	 B(4,2,9)         =         2.110895	     120.945392
	 B(4,2,15)        =         2.085049	     119.464517
	 B(4,11,13)       =         2.079419	     119.141960
	 B(5,7,12)        =         2.159069	     123.705552
	 B(5,7,20)        =         2.095371	     120.055905
	 B(5,10,6)        =         2.036489	     116.682217
	 B(5,10,9)        =         2.122923	     121.634517
	 B(6,8,12)        =         2.159256	     123.716240
	 B(6,8,21)        =         2.095249	     120.048908
	 B(6,10,9)        =         2.123774	     121.683265
	 B(7,5,10)        =         2.088243	     119.647483
	 B(7,5,18)        =         2.091767	     119.849443
	 B(7,12,8)        =         2.035305	     116.614397
	 B(8,6,10)        =         2.088009	     119.634097
	 B(8,6,19)        =         2.091506	     119.834490
	 B(9,1,14)        =         2.086805	     119.565097
	 B(9,2,15)        =         2.086797	     119.564639
	 B(10,5,18)       =         2.102854	     120.484665
	 B(10,6,19)       =         2.103330	     120.511955
	 B(11,3,16)       =         2.081397	     119.255281
	 B(11,4,17)       =         2.076509	     118.975183
	 B(11,13,22)      =         1.900860	     108.911244
	 B(12,7,20)       =         2.028727	     116.237469
	 B(12,8,21)       =         2.028664	     116.233861
	 D(1,3,11,4)      =         0.029976	       1.717484
	 D(1,3,11,13)     =         3.090419	     177.067982
	 D(1,9,2,4)       =         0.010026	       0.574459
	 D(1,9,2,15)      =         3.119419	     178.729534
	 D(1,9,10,5)      =        -0.629886	     -36.089812
	 D(1,9,10,6)      =         2.511401	     143.892679
	 D(2,4,11,3)      =        -0.018771	      -1.075472
	 D(2,4,11,13)     =        -3.080562	    -176.503207
	 D(2,9,1,3)       =         0.001328	       0.076066
	 D(2,9,1,14)      =         3.099904	     177.611397
	 D(2,9,10,5)      =         2.517118	     144.220265
	 D(2,9,10,6)      =        -0.624780	     -35.797245
	 D(3,1,9,10)      =        -3.134983	    -179.621288
	 D(3,11,4,17)     =         3.129511	     179.307791
	 D(3,11,13,22)    =         1.306693	      74.867977
	 D(4,2,9,10)      =        -3.136852	    -179.728408
	 D(4,11,3,16)     =        -3.097635	    -177.481409
	 D(4,11,13,22)    =        -1.915446	    -109.746992
	 D(5,7,12,8)      =        -0.000703	      -0.040292
	 D(5,10,6,8)      =        -0.000411	      -0.023562
	 D(5,10,6,19)     =         3.113132	     178.369309
	 D(6,8,12,7)      =         0.000269	       0.015405
	 D(6,10,5,7)      =         0.000000	       0.000000
	 D(6,10,5,18)     =         3.114326	     178.437751
	 D(7,5,10,9)      =         3.141314	     179.984047
	 D(7,12,8,21)     =        -3.134990	    -179.621686
	 D(8,6,10,9)      =         3.141473	     179.993123
	 D(8,12,7,20)     =        -3.135700	    -179.662384
	 D(9,1,3,11)      =        -0.021301	      -1.220470
	 D(9,1,3,16)      =         3.106086	     177.965610
	 D(9,2,4,11)      =        -0.001349	      -0.077267
	 D(9,2,4,17)      =         3.133410	     179.531145
	 D(9,10,5,18)     =        -0.027557	      -1.578925
	 D(9,10,6,19)     =        -0.028170	      -1.614006
	 D(10,5,7,12)     =         0.000575	       0.032916
	 D(10,5,7,20)     =         3.135332	     179.641284
	 D(10,6,8,12)     =         0.000286	       0.016390
	 D(10,6,8,21)     =         3.135315	     179.640317
	 D(10,9,1,14)     =        -0.036407	      -2.085957
	 D(10,9,2,15)     =        -0.027460	      -1.573334
	 D(11,3,1,14)     =        -3.119915	    -178.757984
	 D(11,4,2,15)     =        -3.110773	    -178.234166
	 D(12,7,5,18)     =        -3.113914	    -178.414154
	 D(12,8,6,19)     =        -3.113449	    -178.387494
	 D(13,11,3,16)    =        -0.037191	      -2.130911
	 D(13,11,4,17)    =         0.067720	       3.880056
	 D(14,1,3,16)     =         0.007472	       0.428096
	 D(15,2,4,17)     =         0.023985	       1.374246
	 D(18,5,7,20)     =         0.020843	       1.194214
	 D(19,6,8,21)     =         0.021580	       1.236433

	Current energy   :      -553.7207285432

	Energy change for the previous step:
		Projected    :         0.0000006691
		Actual       :         0.0000002741

	Performing BFGS update.
	Previous computed or guess Hessian on step 1.
	Steps to be used in Hessian update: 6 5
	Adding user-defined constraint: Fragment 1; Coordinate 73:
		Value =     1.306693; Fixed value    =     1.309000
		Force =     0.001500; Force constant =     0.650000
	Removing off-diagonal coupling between coordinate 73 and others.
	Taking RFO optimization step.
	Going to follow RFO solution 1.
	Using RFO vector 1.
	Norm of target step-size    0.00475
	Projected energy change by RFO approximation:        -0.0000003713

	Back-transformation to cartesian coordinates...
	Successfully converged to displaced geometry.

	--- Internal Coordinate Step in ANG or DEG, aJ/ANG or AJ/DEG ---
	 ---------------------------------------------------------------------------
	   Coordinate                Previous        Force       Change         New 
	   ----------                --------       ------       ------       ------
	    1 R(1,3)          =      1.385396    -0.000010    -0.000007     1.385389
	    2 R(1,9)          =      1.394312    -0.000067     0.000009     1.394321
	    3 R(1,14)         =      1.079914     0.000039     0.000009     1.079923
	    4 R(2,4)          =      1.385476     0.000012     0.000003     1.385479
	    5 R(2,9)          =      1.394118    -0.000119    -0.000007     1.394111
	    6 R(2,15)         =      1.079893     0.000042     0.000018     1.079911
	    7 R(3,11)         =      1.387772     0.000025     0.000013     1.387785
	    8 R(3,16)         =      1.079424     0.000009    -0.000002     1.079422
	    9 R(4,11)         =      1.386436    -0.000016     0.000009     1.386445
	   10 R(4,17)         =      1.078908     0.000018     0.000006     1.078914
	   11 R(5,7)          =      1.385548     0.000039     0.000008     1.385556
	   12 R(5,10)         =      1.391922    -0.000068     0.000005     1.391928
	   13 R(5,18)         =      1.079590     0.000049     0.000016     1.079606
	   14 R(6,8)          =      1.385593     0.000044     0.000007     1.385600
	   15 R(6,10)         =      1.391914    -0.000139    -0.000006     1.391907
	   16 R(6,19)         =      1.079542     0.000040     0.000015     1.079557
	   17 R(7,12)         =      1.335059    -0.000118    -0.000001     1.335057
	   18 R(7,20)         =      1.081120    -0.000023     0.000001     1.081121
	   19 R(8,12)         =      1.335105    -0.000114     0.000000     1.335105
	   20 R(8,21)         =      1.081102    -0.000035    -0.000002     1.081100
	   21 R(9,10)         =      1.461878     0.000256    -0.000069     1.461809
	   22 R(11,13)        =      1.379278     0.000111     0.000018     1.379297
	   23 R(13,22)        =      0.961154     0.000090     0.000016     0.961170
	   24 B(1,3,11)       =    119.912639    -0.000000    -0.001256   119.911383
	   25 B(1,3,16)       =    120.827148     0.000000     0.002391   120.829539
	   26 B(1,9,2)        =    118.393716     0.000001     0.000771   118.394487
	   27 B(1,9,10)       =    120.767608    -0.000001    -0.001806   120.765803
	   28 B(2,4,11)       =    119.919650     0.000000    -0.000456   119.919194
	   29 B(2,4,17)       =    121.104032    -0.000000     0.000831   121.104862
	   30 B(2,9,10)       =    120.837972     0.000000     0.001019   120.838991
	   31 B(3,1,9)        =    120.913933    -0.000000     0.000442   120.914375
	   32 B(3,1,14)       =    119.475528    -0.000000    -0.003181   119.472347
	   33 B(3,11,4)       =    119.894701    -0.000000     0.000857   119.895559
	   34 B(3,11,13)      =    120.802462    -0.000001    -0.000556   120.801906
	   35 B(4,2,9)        =    120.945392    -0.000000    -0.000442   120.944950
	   36 B(4,2,15)       =    119.464517    -0.000000    -0.002456   119.462062
	   37 B(4,11,13)      =    119.141960     0.000000    -0.001449   119.140511
	   38 B(5,7,12)       =    123.705552    -0.000000     0.001724   123.707276
	   39 B(5,7,20)       =    120.055905     0.000001    -0.003613   120.052292
	   40 B(5,10,6)       =    116.682217     0.000001    -0.000436   116.681780
	   41 B(5,10,9)       =    121.634517    -0.000001    -0.001372   121.633144
	   42 B(6,8,12)       =    123.716240    -0.000000     0.002460   123.718700
	   43 B(6,8,21)       =    120.048908     0.000000    -0.004351   120.044557
	   44 B(6,10,9)       =    121.683265    -0.000000     0.001809   121.685074
	   45 B(7,5,10)       =    119.647483    -0.000001    -0.000240   119.647243
	   46 B(7,5,18)       =    119.849443     0.000001    -0.001491   119.847953
	   47 B(7,12,8)       =    116.614397     0.000001    -0.002985   116.611413
	   48 B(8,6,10)       =    119.634097    -0.000001    -0.000652   119.633445
	   49 B(8,6,19)       =    119.834490     0.000001    -0.000795   119.833695
	   50 B(9,1,14)       =    119.565097     0.000001     0.003042   119.568139
	   51 B(9,2,15)       =    119.564639     0.000001     0.002695   119.567335
	   52 B(10,5,18)      =    120.484665    -0.000000     0.002096   120.486761
	   53 B(10,6,19)      =    120.511955    -0.000000     0.001817   120.513772
	   54 B(11,3,16)      =    119.255281    -0.000000    -0.001025   119.254256
	   55 B(11,4,17)      =    118.975183    -0.000000    -0.000365   118.974818
	   56 B(11,13,22)     =    108.911244    -0.000001    -0.002730   108.908514
	   57 B(12,7,20)      =    116.237469    -0.000000     0.001097   116.238566
	   58 B(12,8,21)      =    116.233861    -0.000000     0.000939   116.234800
	   59 D(1,3,11,4)     =      1.717484     0.000000     0.001716     1.719201
	   60 D(1,3,11,13)    =    177.067982    -0.000000    -0.014878   177.053105
	   61 D(1,9,2,4)      =      0.574459     0.000000     0.014420     0.588879
	   62 D(1,9,2,15)     =    178.729534     0.000000     0.007038   178.736572
	   63 D(1,9,10,5)     =    -36.089812    -0.000000    -0.007890   -36.097701
	   64 D(1,9,10,6)     =    143.892679    -0.000000    -0.006094   143.886584
	   65 D(2,4,11,3)     =     -1.075472    -0.000000    -0.006061    -1.081533
	   66 D(2,4,11,13)    =   -176.503207     0.000000     0.010218  -176.492989
	   67 D(2,9,1,3)      =      0.076066    -0.000000    -0.018795     0.057271
	   68 D(2,9,1,14)     =    177.611397    -0.000000    -0.010646   177.600751
	   69 D(2,9,10,5)     =    144.220265    -0.000000    -0.004362   144.215903
	   70 D(2,9,10,6)     =    -35.797245    -0.000000    -0.002566   -35.799811
	   71 D(3,1,9,10)     =   -179.621288    -0.000000    -0.015353  -179.636641
	   72 D(3,11,4,17)    =    179.307791    -0.000000    -0.007722   179.300069
	   73 D(3,11,13,22)   =     74.867977     0.000003     0.029603    74.897580
	   74 D(4,2,9,10)     =   -179.728408     0.000000     0.010966  -179.717442
	   75 D(4,11,3,16)    =   -177.481409     0.000000    -0.007273  -177.488682
	   76 D(4,11,13,22)   =   -109.746992     0.000002     0.013238  -109.733754
	   77 D(5,7,12,8)     =     -0.040292    -0.000000    -0.030486    -0.070778
	   78 D(5,10,6,8)     =     -0.023562    -0.000000    -0.040855    -0.064417
	   79 D(5,10,6,19)    =    178.369309    -0.000000    -0.025497   178.343813
	   80 D(6,8,12,7)     =      0.015405    -0.000000    -0.060185    -0.044780
	   81 D(6,10,5,7)     =      0.000000    -0.000000    -0.041623    -0.041623
	   82 D(6,10,5,18)    =    178.437751    -0.000000    -0.026762   178.410989
	   83 D(7,5,10,9)     =    179.984047    -0.000000    -0.040635   179.943411
	   84 D(7,12,8,21)    =   -179.621686     0.000001     0.085103  -179.536583
	   85 D(8,6,10,9)     =    179.993123    -0.000000    -0.042566   179.950557
	   86 D(8,12,7,20)    =   -179.662384     0.000001     0.089735  -179.572649
	   87 D(9,1,3,11)     =     -1.220470    -0.000000     0.010949    -1.209522
	   88 D(9,1,3,16)     =    177.965610    -0.000000     0.020054   177.985664
	   89 D(9,2,4,11)     =     -0.077267     0.000000    -0.002180    -0.079446
	   90 D(9,2,4,17)     =    179.531145     0.000000    -0.000488   179.530657
	   91 D(9,10,5,18)    =     -1.578925    -0.000000    -0.025051    -1.603976
	   92 D(9,10,6,19)    =     -1.614006    -0.000000    -0.027207    -1.641213
	   93 D(10,5,7,12)    =      0.032916     0.000000     0.082397     0.115313
	   94 D(10,5,7,20)    =    179.641284    -0.000000    -0.042167   179.599117
	   95 D(10,6,8,12)    =      0.016390     0.000000     0.097225     0.113615
	   96 D(10,6,8,21)    =    179.640317    -0.000000    -0.053306   179.587011
	   97 D(10,9,1,14)    =     -2.085957    -0.000000    -0.007204    -2.093160
	   98 D(10,9,2,15)    =     -1.573334     0.000000     0.003585    -1.569749
	   99 D(11,3,1,14)    =   -178.757984    -0.000000     0.002655  -178.755329
	  100 D(11,4,2,15)    =   -178.234166     0.000000     0.005100  -178.229066
	  101 D(12,7,5,18)    =   -178.414154     0.000000     0.066857  -178.347297
	  102 D(12,8,6,19)    =   -178.387494     0.000000     0.081930  -178.305564
	  103 D(13,11,3,16)   =     -2.130911    -0.000001    -0.023867    -2.154778
	  104 D(13,11,4,17)   =      3.880056     0.000001     0.008557     3.888613
	  105 D(14,1,3,16)    =      0.428096    -0.000000     0.011761     0.439857
	  106 D(15,2,4,17)    =      1.374246     0.000000     0.006792     1.381038
	  107 D(18,5,7,20)    =      1.194214    -0.000000    -0.057707     1.136507
	  108 D(19,6,8,21)    =      1.236433    -0.000000    -0.068601     1.167832
	 ---------------------------------------------------------------------------
	Successfully symmetrized geometry.
	 Forces used to impose fixed constraints are not included.
	  Forces zeroed: 73 

  ==> Convergence Check <==

  Measures of convergence in internal coordinates in au.
  Criteria marked as inactive (o), active & met (*), and active & unmet ( ).
  ---------------------------------------------------------------------------------------------
   Step     Total Energy     Delta E     MAX Force     RMS Force      MAX Disp      RMS Disp   
  ---------------------------------------------------------------------------------------------
    Convergence Criteria    1.00e-06 *    3.00e-04 *             o    1.20e-03 *             o
  ---------------------------------------------------------------------------------------------
      7    -553.72072854    2.74e-07 *    1.13e-04 *    1.67e-05 o    1.70e-03      4.57e-04 o  ~
  ---------------------------------------------------------------------------------------------


  **** Optimization is complete! (in 7 steps) ****

  ==> Optimization Summary <==

  Measures of convergence in internal coordinates in au.
  --------------------------------------------------------------------------------------------------------------- ~
   Step         Total Energy             Delta E       MAX Force       RMS Force        MAX Disp        RMS Disp  ~
  --------------------------------------------------------------------------------------------------------------- ~
      1    -553.716876471563   -553.716876471563      0.01888231      0.00466163      0.03567166      0.00961426  ~
      2    -553.719844789348     -0.002968317784      0.00538268      0.00144309      0.03554301      0.00960395  ~
      3    -553.720516412038     -0.000671622691      0.00123072      0.00036702      0.03281177      0.00962198  ~
      4    -553.720685080622     -0.000168668584      0.00069650      0.00017422      0.03276507      0.00647693  ~
      5    -553.720722267993     -0.000037187371      0.00038857      0.00010375      0.01369608      0.00274466  ~
      6    -553.720728817274     -0.000006549281      0.00024056      0.00004171      0.00282668      0.00074242  ~
      7    -553.720728543193      0.000000274081      0.00016157      0.00002283      0.00169690      0.00045661  ~
  --------------------------------------------------------------------------------------------------------------- ~

	Writing optimization data to binary file.
	Final energy is   -553.7207285431929
	Final (previous) structure:
	Cartesian Geometry (in Angstrom)
	    C    -1.2433171894   0.7634866324  -0.5594349425
	    C    -0.3127268998   0.0547465480   1.5305545415
	    C    -2.3152499943   1.3334213265   0.1079899360
	    C    -1.3890468861   0.6112320720   2.2024195553
	    C     0.7553168464  -1.0900632650  -1.8064996165
	    C     2.1938156747  -0.4559025204  -0.0335328321
	    C     1.8584857697  -1.6387336630  -2.4403155639
	    C     3.2376849238  -1.0311227687  -0.7401634789
	    C    -0.2256972179   0.1164857080   0.1405258772
	    C     0.9081121157  -0.4766442659  -0.5664115829
	    C    -2.3977137939   1.2418275288   1.4902784811
	    N     3.0918389442  -1.6198089909  -1.9295680444
	    O    -3.4245162605   1.8535605615   2.1786594614
	    H    -1.1757571234   0.8563589729  -1.6332249548
	    H     0.4543555096  -0.4596787728   2.0901251826
	    H    -3.0855714734   1.8621857556  -0.4325373300
	    H    -1.4627241546   0.5583793679   3.2775103512
	    H    -0.2193345699  -1.1631300158  -2.2650084944
	    H     2.3873508520   0.0269697030   0.9124004618
	    H     1.7463442030  -2.1218636485  -3.4009560836
	    H     4.2399491809  -1.0136892175  -0.3352643952
	    H    -4.2304457698   1.3452844760   2.0523659765
	Saving final (previous) structure.
			--------------------------
			 OPTKING Finished Execution 
			--------------------------

    Final optimized geometry and variables:
    Molecular point group: c1
    Full point group: C1

    Geometry (in Angstrom), charge = 0, multiplicity = 1:

    C           -1.243317189365     0.763486632406    -0.559434942492
    C           -0.312726899835     0.054746548049     1.530554541451
    C           -2.315249994319     1.333421326458     0.107989935990
    C           -1.389046886068     0.611232072039     2.202419555349
    C            0.755316846425    -1.090063264999    -1.806499616489
    C            2.193815674746    -0.455902520443    -0.033532832075
    C            1.858485769651    -1.638733662992    -2.440315563915
    C            3.237684923831    -1.031122768733    -0.740163478930
    C           -0.225697217931     0.116485707994     0.140525877156
    C            0.908112115742    -0.476644265916    -0.566411582888
    C           -2.397713793930     1.241827528802     1.490278481072
    N            3.091838944215    -1.619808990853    -1.929568044363
    O           -3.424516260456     1.853560561503     2.178659461405
    H           -1.175757123427     0.856358972853    -1.633224954766
    H            0.454355509618    -0.459678772825     2.090125182642
    H           -3.085571473375     1.862185755598    -0.432537330008
    H           -1.462724154625     0.558379367851     3.277510351170
    H           -0.219334569926    -1.163130015848    -2.265008494447
    H            2.387350851951     0.026969703010     0.912400461794
    H            1.746344202954    -2.121863648505    -3.400956083614
    H            4.239949180925    -1.013689217517    -0.335264395204
    H           -4.230445769805     1.345284475966     2.052365976532

	Cleaning optimization helper files.

*** Psi4 exiting successfully. Buy a developer a beer!
