
    -----------------------------------------------------------------------
          Psi4: An Open-Source Ab Initio Electronic Structure Package
                               Psi4 1.1 release

                         Git: Rev {HEAD} add49b9 


    R. M. Parrish, L. A. Burns, D. G. A. Smith, A. C. Simmonett,
    A. E. DePrince III, E. G. Hohenstein, U. Bozkaya, A. Yu. Sokolov,
    R. Di Remigio, R. M. Richard, J. F. Gonthier, A. M. James,
    H. R. McAlexander, A. Kumar, M. Saitow, X. Wang, B. P. Pritchard,
    P. Verma, H. F. Schaefer III, K. Patkowski, R. A. King, E. F. Valeev,
    F. A. Evangelista, J. M. Turney, T. D. Crawford, and C. D. Sherrill,
    J. Chem. Theory Comput. in press (2017).
    (doi: 10.1021/acs.jctc.7b00174)

    -----------------------------------------------------------------------


    Psi4 started on: Sunday, 12 November 2017 12:00AM

    Process ID:  19884
    PSIDATADIR: /cbio/jclab/home/chayas/anaconda/envs/py35/share/psi4
    Memory:     500.0 MiB
    Threads:    8
    
  ==> Input File <==

--------------------------------------------------------------------------

memory 5 Gb

molecule phepyrFOH_neutral {
  symmetry C1
  0 1 
  C      1.885   -1.036   -0.112
  C      0.807   -0.463   0.561
  C      3.825   -3.269   -0.988
  C      5.328   -1.753   0.119
  C      1.800   -1.079   2.676
  C      4.927   -3.802   -1.637
  C      6.363   -2.354   -0.579
  C      2.921   -1.631   0.608
  C      4.038   -2.225   -0.095
  C      0.764   -0.484   1.955
  C      2.878   -1.652   2.002
  N      6.195   -3.370   -1.455
  O      -0.289   0.076   2.612
  F      3.866   -2.220   2.709
  H      1.904   -1.012   -1.199
  H      0.002   -0.002   -0.006
  H      2.833   -3.663   -1.183
  H      5.532   -0.940   0.809
  H      1.772   -1.099   3.762
  H      4.814   -4.616   -2.345
  H      7.387   -2.023   -0.446
  H      -0.109   1.011   2.800
  units Angstrom
}

dih_string = "2 10 13 22 270"
set optking fixed_dihedral = $dih_string

optimize('MP2/aug-cc-PVTZ')
--------------------------------------------------------------------------

  Memory set to   4.657 GiB by Python driver.
gradient() will perform analytic gradient computation.

*** tstart() called on gpu-2-14.local
*** at Sun Nov 12 00:00:48 2017

    SCF Algorithm Type (re)set to DF.

*** tstart() called on gpu-2-14.local
*** at Sun Nov 12 00:00:48 2017

   => Loading Basis Set <=

    Name: AUG-CC-PVTZ
    Role: ORBITAL
    Keyword: BASIS
    atoms 1-11  entry C          line   221 file /cbio/jclab/home/chayas/anaconda/envs/py35/share/psi4/basis/aug-cc-pvtz.gbs 
    atoms 12    entry N          line   267 file /cbio/jclab/home/chayas/anaconda/envs/py35/share/psi4/basis/aug-cc-pvtz.gbs 
    atoms 13    entry O          line   313 file /cbio/jclab/home/chayas/anaconda/envs/py35/share/psi4/basis/aug-cc-pvtz.gbs 
    atoms 14    entry F          line   359 file /cbio/jclab/home/chayas/anaconda/envs/py35/share/psi4/basis/aug-cc-pvtz.gbs 
    atoms 15-22 entry H          line    34 file /cbio/jclab/home/chayas/anaconda/envs/py35/share/psi4/basis/aug-cc-pvtz.gbs 


         ---------------------------------------------------------
                                   SCF
            by Justin Turney, Rob Parrish, and Andy Simmonett
                              RHF Reference
                        8 Threads,   4768 MiB Core
         ---------------------------------------------------------

  ==> Geometry <==

    Molecular point group: c1
    Full point group: C1

    Geometry (in Angstrom), charge = 0, multiplicity = 1:

       Center              X                  Y                   Z               Mass       
    ------------   -----------------  -----------------  -----------------  -----------------
           C         -1.322095258453     0.749515671483    -0.795384956595    12.000000000000
           C         -2.400095258453     1.322515671483    -0.122384956595    12.000000000000
           C          0.617904741547    -1.483484328517    -1.671384956595    12.000000000000
           C          2.120904741547     0.032515671483    -0.564384956595    12.000000000000
           C         -1.407095258453     0.706515671483     1.992615043405    12.000000000000
           C          1.719904741547    -2.016484328517    -2.320384956595    12.000000000000
           C          3.155904741547    -0.568484328517    -1.262384956595    12.000000000000
           C         -0.286095258453     0.154515671483    -0.075384956595    12.000000000000
           C          0.830904741547    -0.439484328517    -0.778384956595    12.000000000000
           C         -2.443095258453     1.301515671483     1.271615043405    12.000000000000
           C         -0.329095258453     0.133515671483     1.318615043405    12.000000000000
           N          2.987904741547    -1.584484328517    -2.138384956595    14.003074004780
           O         -3.496095258453     1.861515671483     1.928615043405    15.994914619560
           F          0.658904741547    -0.434484328517     2.025615043405    18.998403224000
           H         -1.303095258453     0.773515671483    -1.882384956595     1.007825032070
           H         -3.205095258453     1.783515671483    -0.689384956595     1.007825032070
           H         -0.374095258453    -1.877484328517    -1.866384956595     1.007825032070
           H          2.324904741547     0.845515671483     0.125615043405     1.007825032070
           H         -1.435095258453     0.686515671483     3.078615043405     1.007825032070
           H          1.606904741547    -2.830484328517    -3.028384956595     1.007825032070
           H          4.179904741547    -0.237484328517    -1.129384956595     1.007825032070
           H         -3.316095258453     2.796515671483     2.116615043405     1.007825032070

  Running in c1 symmetry.

  Rotational constants: A =      0.06314  B =      0.01307  C =      0.01165 [cm^-1]
  Rotational constants: A =   1892.90100  B =    391.73485  C =    349.34887 [MHz]
  Nuclear repulsion =  813.837337542341061

  Charge       = 0
  Multiplicity = 1
  Electrons    = 98
  Nalpha       = 49
  Nbeta        = 49

  ==> Algorithm <==

  SCF Algorithm Type is DF.
  DIIS enabled.
  MOM disabled.
  Fractional occupation disabled.
  Guess Type is SAD.
  Energy threshold   = 1.00e-10
  Density threshold  = 1.00e-10
  Integral threshold = 0.00e+00

  ==> Primary Basis <==

  Basis Set: AUG-CC-PVTZ
    Blend: AUG-CC-PVTZ
    Number of shells: 268
    Number of basis function: 828
    Number of Cartesian functions: 970
    Spherical Harmonics?: true
    Max angular momentum: 3

   => Loading Basis Set <=

    Name: (AUG-CC-PVTZ AUX)
    Role: JKFIT
    Keyword: DF_BASIS_SCF
    atoms 1-11  entry C          line   161 file /cbio/jclab/home/chayas/anaconda/envs/py35/share/psi4/basis/aug-cc-pvtz-jkfit.gbs 
    atoms 12    entry N          line   223 file /cbio/jclab/home/chayas/anaconda/envs/py35/share/psi4/basis/aug-cc-pvtz-jkfit.gbs 
    atoms 13    entry O          line   285 file /cbio/jclab/home/chayas/anaconda/envs/py35/share/psi4/basis/aug-cc-pvtz-jkfit.gbs 
    atoms 14    entry F          line   347 file /cbio/jclab/home/chayas/anaconda/envs/py35/share/psi4/basis/aug-cc-pvtz-jkfit.gbs 
    atoms 15-22 entry H          line    69 file /cbio/jclab/home/chayas/anaconda/envs/py35/share/psi4/basis/aug-cc-pvtz-jkfit.gbs 

  ==> Pre-Iterations <==

   -------------------------------------------------------
    Irrep   Nso     Nmo     Nalpha   Nbeta   Ndocc  Nsocc
   -------------------------------------------------------
     A        828     828       0       0       0       0
   -------------------------------------------------------
    Total     828     828      49      49      49       0
   -------------------------------------------------------

  ==> Integral Setup <==

  ==> DFJK: Density-Fitted J/K Matrices <==

    J tasked:                  Yes
    K tasked:                  Yes
    wK tasked:                  No
    OpenMP threads:              8
    Integrals threads:           8
    Memory (MB):              3576
    Algorithm:                Disk
    Integral Cache:           NONE
    Schwarz Cutoff:          1E-12
    Fitting Condition:       1E-12

   => Auxiliary Basis Set <=

  Basis Set: (AUG-CC-PVTZ AUX)
    Blend: AUG-CC-PVTZ-JKFIT
    Number of shells: 532
    Number of basis function: 1824
    Number of Cartesian functions: 2274
    Spherical Harmonics?: true
    Max angular momentum: 4

  Minimum eigenvalue in the overlap matrix is 7.8442608519E-07.
  Using Symmetric Orthogonalization.

  SCF Guess: Superposition of Atomic Densities via on-the-fly atomic UHF.

  ==> Iterations <==

                           Total Energy        Delta E     RMS |[F,P]|

   @DF-RHF iter   0:  -656.30414108290574   -6.56304e+02   2.31297e-02 
   @DF-RHF iter   1:  -649.79188349466870    6.51226e+00   2.02188e-03 
   @DF-RHF iter   2:  -650.10203489779144   -3.10151e-01   1.02573e-03 DIIS
   @DF-RHF iter   3:  -650.15322791602932   -5.11930e-02   3.92169e-04 DIIS
   @DF-RHF iter   4:  -650.16790643633806   -1.46785e-02   1.04729e-04 DIIS
   @DF-RHF iter   5:  -650.16934406940709   -1.43763e-03   4.68179e-05 DIIS
   @DF-RHF iter   6:  -650.16961662109804   -2.72552e-04   1.92905e-05 DIIS
   @DF-RHF iter   7:  -650.16965918047117   -4.25594e-05   5.94193e-06 DIIS
   @DF-RHF iter   8:  -650.16966256519061   -3.38472e-06   1.17678e-06 DIIS
   @DF-RHF iter   9:  -650.16966298231557   -4.17125e-07   6.86748e-07 DIIS
   @DF-RHF iter  10:  -650.16966306476172   -8.24461e-08   2.42561e-07 DIIS
   @DF-RHF iter  11:  -650.16966308864528   -2.38836e-08   1.49696e-07 DIIS
   @DF-RHF iter  12:  -650.16966309466977   -6.02449e-09   6.04459e-08 DIIS
   @DF-RHF iter  13:  -650.16966309552799   -8.58222e-10   1.72509e-08 DIIS
   @DF-RHF iter  14:  -650.16966309564793   -1.19940e-10   5.42592e-09 DIIS
   @DF-RHF iter  15:  -650.16966309566419   -1.62572e-11   2.54376e-09 DIIS
   @DF-RHF iter  16:  -650.16966309564748    1.67120e-11   1.00619e-09 DIIS
   @DF-RHF iter  17:  -650.16966309564975   -2.27374e-12   4.61785e-10 DIIS
   @DF-RHF iter  18:  -650.16966309564566    4.09273e-12   2.78401e-10 DIIS
   @DF-RHF iter  19:  -650.16966309564327    2.38742e-12   1.03043e-10 DIIS
   @DF-RHF iter  20:  -650.16966309564225    1.02318e-12   5.04410e-11 DIIS

  ==> Post-Iterations <==

    Orbital Energies (a.u.)
    -----------------------

    Doubly Occupied:                                                      

       1A    -26.325443     2A    -20.595838     3A    -15.566797  
       4A    -11.346192     5A    -11.318173     6A    -11.276167  
       7A    -11.275496     8A    -11.266956     9A    -11.263110  
      10A    -11.257915    11A    -11.253013    12A    -11.247803  
      13A    -11.241233    14A    -11.240137    15A     -1.643799  
      16A     -1.413991    17A     -1.251868    18A     -1.181803  
      19A     -1.110540    20A     -1.040446    21A     -1.035432  
      22A     -1.018682    23A     -0.889497    24A     -0.874194  
      25A     -0.853108    26A     -0.825919    27A     -0.773257  
      28A     -0.733245    29A     -0.728075    30A     -0.710184  
      31A     -0.701039    32A     -0.665567    33A     -0.662156  
      34A     -0.646657    35A     -0.633348    36A     -0.629018  
      37A     -0.603525    38A     -0.600066    39A     -0.560950  
      40A     -0.538699    41A     -0.534083    42A     -0.524988  
      43A     -0.504254    44A     -0.498325    45A     -0.420801  
      46A     -0.390901    47A     -0.357783    48A     -0.350249  
      49A     -0.334180  

    Virtual:                                                              

      50A      0.021504    51A      0.029464    52A      0.033349  
      53A      0.036736    54A      0.042504    55A      0.046189  
      56A      0.050220    57A      0.057061    58A      0.073860  
      59A      0.081658    60A      0.084027    61A      0.084790  
      62A      0.088387    63A      0.094189    64A      0.096067  
      65A      0.101027    66A      0.106040    67A      0.108114  
      68A      0.109303    69A      0.112722    70A      0.116910  
      71A      0.117575    72A      0.119053    73A      0.126172  
      74A      0.126761    75A      0.132303    76A      0.132814  
      77A      0.134252    78A      0.138679    79A      0.144756  
      80A      0.145088    81A      0.148533    82A      0.151686  
      83A      0.154594    84A      0.155879    85A      0.166089  
      86A      0.172633    87A      0.173706    88A      0.178106  
      89A      0.185512    90A      0.195436    91A      0.200069  
      92A      0.208000    93A      0.212436    94A      0.215595  
      95A      0.223887    96A      0.232744    97A      0.234748  
      98A      0.236515    99A      0.239982   100A      0.240329  
     101A      0.244509   102A      0.249592   103A      0.253818  
     104A      0.256617   105A      0.261582   106A      0.262210  
     107A      0.265123   108A      0.270759   109A      0.275293  
     110A      0.277822   111A      0.282436   112A      0.284641  
     113A      0.290919   114A      0.297700   115A      0.301437  
     116A      0.304672   117A      0.308567   118A      0.314704  
     119A      0.316625   120A      0.319989   121A      0.321354  
     122A      0.323382   123A      0.330048   124A      0.331133  
     125A      0.335210   126A      0.342628   127A      0.346108  
     128A      0.347319   129A      0.351913   130A      0.355799  
     131A      0.364396   132A      0.367486   133A      0.376183  
     134A      0.382278   135A      0.383618   136A      0.389713  
     137A      0.396147   138A      0.404725   139A      0.405667  
     140A      0.413690   141A      0.415683   142A      0.421491  
     143A      0.424395   144A      0.426549   145A      0.431002  
     146A      0.437585   147A      0.440616   148A      0.444205  
     149A      0.447894   150A      0.454215   151A      0.457636  
     152A      0.464556   153A      0.470038   154A      0.473596  
     155A      0.475465   156A      0.476675   157A      0.479243  
     158A      0.482376   159A      0.487661   160A      0.489357  
     161A      0.494645   162A      0.496401   163A      0.498601  
     164A      0.505690   165A      0.509481   166A      0.512048  
     167A      0.512478   168A      0.515106   169A      0.519305  
     170A      0.519697   171A      0.527456   172A      0.532112  
     173A      0.536492   174A      0.538991   175A      0.542422  
     176A      0.546641   177A      0.549726   178A      0.556119  
     179A      0.560709   180A      0.564502   181A      0.571960  
     182A      0.578788   183A      0.582015   184A      0.584746  
     185A      0.590017   186A      0.600523   187A      0.604001  
     188A      0.615806   189A      0.620467   190A      0.623900  
     191A      0.627937   192A      0.630767   193A      0.639319  
     194A      0.639705   195A      0.645038   196A      0.652367  
     197A      0.657658   198A      0.669087   199A      0.674258  
     200A      0.676028   201A      0.685145   202A      0.695724  
     203A      0.698225   204A      0.703200   205A      0.705995  
     206A      0.709606   207A      0.720451   208A      0.723961  
     209A      0.725807   210A      0.733279   211A      0.735267  
     212A      0.739535   213A      0.745499   214A      0.749343  
     215A      0.761526   216A      0.763508   217A      0.769511  
     218A      0.777708   219A      0.788553   220A      0.792891  
     221A      0.798805   222A      0.804610   223A      0.809522  
     224A      0.820526   225A      0.827101   226A      0.828515  
     227A      0.837058   228A      0.839782   229A      0.847623  
     230A      0.849678   231A      0.851921   232A      0.861080  
     233A      0.867586   234A      0.873335   235A      0.877436  
     236A      0.879723   237A      0.884453   238A      0.887992  
     239A      0.894915   240A      0.901522   241A      0.908445  
     242A      0.908847   243A      0.918413   244A      0.925456  
     245A      0.927317   246A      0.932720   247A      0.938401  
     248A      0.940868   249A      0.944528   250A      0.950409  
     251A      0.954073   252A      0.956165   253A      0.962289  
     254A      0.963860   255A      0.964556   256A      0.971903  
     257A      0.981648   258A      0.984094   259A      0.988656  
     260A      0.992961   261A      0.998145   262A      1.000571  
     263A      1.009682   264A      1.012158   265A      1.020576  
     266A      1.022011   267A      1.025510   268A      1.029859  
     269A      1.032433   270A      1.037439   271A      1.043914  
     272A      1.048804   273A      1.052623   274A      1.056984  
     275A      1.069218   276A      1.072495   277A      1.073030  
     278A      1.080894   279A      1.082207   280A      1.085827  
     281A      1.087799   282A      1.090890   283A      1.098098  
     284A      1.103073   285A      1.105184   286A      1.111329  
     287A      1.116042   288A      1.123760   289A      1.129473  
     290A      1.131813   291A      1.135708   292A      1.141332  
     293A      1.143874   294A      1.153794   295A      1.156856  
     296A      1.160812   297A      1.173220   298A      1.175962  
     299A      1.178285   300A      1.181373   301A      1.182719  
     302A      1.192384   303A      1.196502   304A      1.198360  
     305A      1.205612   306A      1.207476   307A      1.212393  
     308A      1.217821   309A      1.223638   310A      1.230824  
     311A      1.237101   312A      1.242170   313A      1.248906  
     314A      1.253740   315A      1.262755   316A      1.270098  
     317A      1.274720   318A      1.276435   319A      1.279210  
     320A      1.288654   321A      1.297158   322A      1.302581  
     323A      1.308132   324A      1.318026   325A      1.323995  
     326A      1.327165   327A      1.331745   328A      1.339474  
     329A      1.351110   330A      1.353665   331A      1.355773  
     332A      1.366235   333A      1.377823   334A      1.381106  
     335A      1.385599   336A      1.392659   337A      1.399804  
     338A      1.404372   339A      1.421673   340A      1.425370  
     341A      1.431142   342A      1.435300   343A      1.448940  
     344A      1.455968   345A      1.461094   346A      1.472225  
     347A      1.483201   348A      1.491970   349A      1.493392  
     350A      1.507661   351A      1.510913   352A      1.515048  
     353A      1.532165   354A      1.541891   355A      1.546772  
     356A      1.555413   357A      1.560190   358A      1.568040  
     359A      1.573063   360A      1.580155   361A      1.585041  
     362A      1.591685   363A      1.602453   364A      1.617449  
     365A      1.623688   366A      1.628154   367A      1.637593  
     368A      1.639673   369A      1.651414   370A      1.656401  
     371A      1.661627   372A      1.669573   373A      1.674415  
     374A      1.680203   375A      1.687819   376A      1.695794  
     377A      1.703332   378A      1.713305   379A      1.717556  
     380A      1.730681   381A      1.736641   382A      1.740103  
     383A      1.746687   384A      1.750774   385A      1.760113  
     386A      1.765587   387A      1.778720   388A      1.783888  
     389A      1.795208   390A      1.802708   391A      1.806461  
     392A      1.810630   393A      1.813420   394A      1.821418  
     395A      1.835615   396A      1.849335   397A      1.861844  
     398A      1.866801   399A      1.872809   400A      1.888575  
     401A      1.890153   402A      1.893279   403A      1.898754  
     404A      1.910483   405A      1.916838   406A      1.930599  
     407A      1.940110   408A      1.940539   409A      1.945317  
     410A      1.949105   411A      1.955139   412A      1.966592  
     413A      1.973112   414A      1.989226   415A      1.997952  
     416A      2.006122   417A      2.010572   418A      2.016925  
     419A      2.026570   420A      2.034048   421A      2.039150  
     422A      2.040295   423A      2.053841   424A      2.062845  
     425A      2.070423   426A      2.080380   427A      2.084371  
     428A      2.086818   429A      2.092996   430A      2.100524  
     431A      2.112018   432A      2.117034   433A      2.123907  
     434A      2.129649   435A      2.141465   436A      2.146858  
     437A      2.152567   438A      2.163207   439A      2.173482  
     440A      2.179849   441A      2.193357   442A      2.200342  
     443A      2.204678   444A      2.217422   445A      2.222763  
     446A      2.232887   447A      2.243359   448A      2.253094  
     449A      2.265532   450A      2.268774   451A      2.276739  
     452A      2.281586   453A      2.288157   454A      2.300995  
     455A      2.304530   456A      2.321668   457A      2.332775  
     458A      2.340164   459A      2.352123   460A      2.355674  
     461A      2.370576   462A      2.380134   463A      2.394264  
     464A      2.408900   465A      2.417346   466A      2.428715  
     467A      2.449014   468A      2.451930   469A      2.464289  
     470A      2.467465   471A      2.481289   472A      2.501509  
     473A      2.530561   474A      2.534278   475A      2.547405  
     476A      2.551413   477A      2.565378   478A      2.576006  
     479A      2.582844   480A      2.588285   481A      2.597900  
     482A      2.602065   483A      2.627500   484A      2.653263  
     485A      2.656305   486A      2.680092   487A      2.691582  
     488A      2.692495   489A      2.710855   490A      2.736154  
     491A      2.748207   492A      2.755325   493A      2.760392  
     494A      2.777696   495A      2.781530   496A      2.800173  
     497A      2.833812   498A      2.835762   499A      2.852663  
     500A      2.857124   501A      2.866498   502A      2.885494  
     503A      2.945967   504A      2.970725   505A      2.978599  
     506A      2.980709   507A      3.007689   508A      3.017927  
     509A      3.056884   510A      3.063836   511A      3.083785  
     512A      3.098810   513A      3.103733   514A      3.117725  
     515A      3.133567   516A      3.139846   517A      3.166864  
     518A      3.177442   519A      3.180932   520A      3.190181  
     521A      3.199020   522A      3.208686   523A      3.215913  
     524A      3.234453   525A      3.260176   526A      3.269745  
     527A      3.276321   528A      3.288408   529A      3.298345  
     530A      3.308909   531A      3.331252   532A      3.343212  
     533A      3.354464   534A      3.363733   535A      3.371120  
     536A      3.397222   537A      3.400657   538A      3.415866  
     539A      3.426158   540A      3.431271   541A      3.434684  
     542A      3.439793   543A      3.448394   544A      3.449544  
     545A      3.452899   546A      3.479838   547A      3.483058  
     548A      3.492812   549A      3.504578   550A      3.520695  
     551A      3.523741   552A      3.531194   553A      3.542343  
     554A      3.546079   555A      3.556663   556A      3.562155  
     557A      3.564989   558A      3.579183   559A      3.585601  
     560A      3.592719   561A      3.596870   562A      3.610083  
     563A      3.622800   564A      3.624120   565A      3.636612  
     566A      3.640946   567A      3.648469   568A      3.656015  
     569A      3.663427   570A      3.676731   571A      3.689845  
     572A      3.695534   573A      3.705962   574A      3.717500  
     575A      3.728537   576A      3.737621   577A      3.743097  
     578A      3.752828   579A      3.765179   580A      3.771251  
     581A      3.783339   582A      3.788916   583A      3.796889  
     584A      3.809353   585A      3.822407   586A      3.825227  
     587A      3.834673   588A      3.850393   589A      3.857758  
     590A      3.864238   591A      3.868577   592A      3.881353  
     593A      3.889293   594A      3.899639   595A      3.905305  
     596A      3.915694   597A      3.922899   598A      3.931519  
     599A      3.935339   600A      3.945570   601A      3.952693  
     602A      3.956913   603A      3.961720   604A      3.973046  
     605A      3.977797   606A      3.985971   607A      3.998133  
     608A      4.004089   609A      4.018278   610A      4.021757  
     611A      4.032820   612A      4.041128   613A      4.050981  
     614A      4.064166   615A      4.072187   616A      4.081981  
     617A      4.087910   618A      4.092062   619A      4.105014  
     620A      4.116135   621A      4.120937   622A      4.133370  
     623A      4.138936   624A      4.146679   625A      4.156041  
     626A      4.169527   627A      4.179206   628A      4.192606  
     629A      4.207360   630A      4.208301   631A      4.219531  
     632A      4.223594   633A      4.228105   634A      4.236330  
     635A      4.255980   636A      4.270010   637A      4.278156  
     638A      4.293368   639A      4.294477   640A      4.299420  
     641A      4.303648   642A      4.317112   643A      4.326784  
     644A      4.338175   645A      4.347442   646A      4.354872  
     647A      4.361593   648A      4.374506   649A      4.381686  
     650A      4.397441   651A      4.406172   652A      4.410544  
     653A      4.424424   654A      4.434735   655A      4.442916  
     656A      4.456382   657A      4.458379   658A      4.461942  
     659A      4.472869   660A      4.488247   661A      4.498935  
     662A      4.514579   663A      4.518268   664A      4.530638  
     665A      4.551207   666A      4.568709   667A      4.577130  
     668A      4.583082   669A      4.602180   670A      4.605436  
     671A      4.614171   672A      4.620415   673A      4.638167  
     674A      4.642177   675A      4.654766   676A      4.685515  
     677A      4.701345   678A      4.706101   679A      4.727747  
     680A      4.729689   681A      4.750531   682A      4.758646  
     683A      4.763908   684A      4.770131   685A      4.788717  
     686A      4.814942   687A      4.819655   688A      4.858335  
     689A      4.866349   690A      4.881911   691A      4.903766  
     692A      4.913195   693A      4.935938   694A      4.940984  
     695A      4.950451   696A      4.967142   697A      4.975606  
     698A      4.977923   699A      4.987802   700A      5.003668  
     701A      5.018239   702A      5.024554   703A      5.035422  
     704A      5.039444   705A      5.049247   706A      5.060478  
     707A      5.068867   708A      5.094946   709A      5.101289  
     710A      5.114442   711A      5.134242   712A      5.141842  
     713A      5.155873   714A      5.164341   715A      5.176641  
     716A      5.178368   717A      5.184672   718A      5.186677  
     719A      5.192705   720A      5.206297   721A      5.221975  
     722A      5.236371   723A      5.279094   724A      5.290712  
     725A      5.301205   726A      5.323316   727A      5.333513  
     728A      5.344394   729A      5.365018   730A      5.372152  
     731A      5.382308   732A      5.413064   733A      5.443516  
     734A      5.455758   735A      5.461367   736A      5.475680  
     737A      5.491418   738A      5.508231   739A      5.539802  
     740A      5.555289   741A      5.583285   742A      5.607082  
     743A      5.618658   744A      5.649061   745A      5.692017  
     746A      5.712578   747A      5.731560   748A      5.741352  
     749A      5.750723   750A      5.770465   751A      5.793512  
     752A      5.798766   753A      5.832665   754A      5.852427  
     755A      5.874432   756A      5.880476   757A      5.908174  
     758A      5.954446   759A      6.008329   760A      6.021020  
     761A      6.079838   762A      6.113312   763A      6.159000  
     764A      6.180763   765A      6.215188   766A      6.254716  
     767A      6.272004   768A      6.287851   769A      6.297428  
     770A      6.342882   771A      6.359787   772A      6.444808  
     773A      6.484505   774A      6.508965   775A      6.549124  
     776A      6.572262   777A      6.680759   778A      6.697603  
     779A      6.709188   780A      6.727280   781A      6.742339  
     782A      6.797945   783A      6.858515   784A      6.870088  
     785A      6.901500   786A      6.928250   787A      6.960068  
     788A      7.051391   789A      7.071628   790A      7.126459  
     791A      7.292004   792A      7.350622   793A      7.392221  
     794A      7.415473   795A      7.441432   796A      7.538257  
     797A      7.544265   798A      7.668476   799A      7.890750  
     800A      7.938274   801A      8.140267   802A      8.593309  
     803A      9.004534   804A      9.046622   805A      9.268986  
     806A      9.290005   807A      9.407145   808A      9.517215  
     809A      9.540827   810A      9.586301   811A      9.639704  
     812A      9.716562   813A     10.028636   814A     10.075900  
     815A     15.523453   816A     16.130408   817A     16.539821  
     818A     16.597359   819A     16.708802   820A     17.137021  
     821A     18.461666   822A     18.712096   823A     19.173859  
     824A     19.919778   825A     20.147265   826A     20.313947  
     827A     20.651840   828A     21.779608  

    Final Occupation by Irrep:
              A 
    DOCC [    49 ]

  Energy converged.

  @DF-RHF Final Energy:  -650.16966309564225

   => Energetics <=

    Nuclear Repulsion Energy =            813.8373375423410607
    One-Electron Energy =               -2502.5841983799209629
    Two-Electron Energy =                1038.5771977419374252
    DFT Exchange-Correlation Energy =       0.0000000000000000
    Empirical Dispersion Energy =           0.0000000000000000
    PCM Polarization Energy =               0.0000000000000000
    EFP Energy =                            0.0000000000000000
    Total Energy =                       -650.1696630956423633



Properties will be evaluated at   0.000000,   0.000000,   0.000000 Bohr

Properties computed using the SCF density matrix

  Nuclear Dipole Moment: (a.u.)
     X:    -2.0737      Y:     2.2422      Z:    -4.9657

  Electronic Dipole Moment: (a.u.)
     X:     1.2418      Y:    -1.1133      Z:     5.0905

  Dipole Moment: (a.u.)
     X:    -0.8318      Y:     1.1289      Z:     0.1249     Total:     1.4078

  Dipole Moment: (Debye)
     X:    -2.1143      Y:     2.8693      Z:     0.3174     Total:     3.5782


*** tstop() called on gpu-2-14.local at Sun Nov 12 00:08:34 2017
Module time:
	user time   =    1124.14 seconds =      18.74 minutes
	system time =      58.35 seconds =       0.97 minutes
	total time  =        466 seconds =       7.77 minutes
Total time:
	user time   =    1124.15 seconds =      18.74 minutes
	system time =      58.35 seconds =       0.97 minutes
	total time  =        466 seconds =       7.77 minutes

  //>>>>>>>>>>>>>>>>>>>>>>>>>>>>>>>>>>>//
  //               DFMP2               //
  //<<<<<<<<<<<<<<<<<<<<<<<<<<<<<<<<<<<//

   => Loading Basis Set <=

    Name: (AUG-CC-PVTZ AUX)
    Role: RIFIT
    Keyword: DF_BASIS_MP2
    atoms 1-11  entry C          line   147 file /cbio/jclab/home/chayas/anaconda/envs/py35/share/psi4/basis/aug-cc-pvtz-ri.gbs 
    atoms 12    entry N          line   205 file /cbio/jclab/home/chayas/anaconda/envs/py35/share/psi4/basis/aug-cc-pvtz-ri.gbs 
    atoms 13    entry O          line   263 file /cbio/jclab/home/chayas/anaconda/envs/py35/share/psi4/basis/aug-cc-pvtz-ri.gbs 
    atoms 14    entry F          line   321 file /cbio/jclab/home/chayas/anaconda/envs/py35/share/psi4/basis/aug-cc-pvtz-ri.gbs 
    atoms 15-22 entry H          line    29 file /cbio/jclab/home/chayas/anaconda/envs/py35/share/psi4/basis/aug-cc-pvtz-ri.gbs 

	 --------------------------------------------------------
	                          DF-MP2                         
	      2nd-Order Density-Fitted Moller-Plesset Theory     
	              RMP2 Wavefunction,   8 Threads             
	                                                         
	        Rob Parrish, Justin Turney, Andy Simmonett,      
	           Ed Hohenstein, and C. David Sherrill          
	 --------------------------------------------------------

   => Auxiliary Basis Set <=

  Basis Set: (AUG-CC-PVTZ AUX)
    Blend: AUG-CC-PVTZ-RI
    Number of shells: 504
    Number of basis function: 1852
    Number of Cartesian functions: 2344
    Spherical Harmonics?: true
    Max angular momentum: 4

	 --------------------------------------------------------
	                 NBF =   828, NAUX =  1852
	 --------------------------------------------------------
	   CLASS    FOCC     OCC    AOCC    AVIR     VIR    FVIR
	   PAIRS       0      49      49     779     779       0
	 --------------------------------------------------------


         ------------------------------------------------------------
                                     CPHF                           
                                  Rob Parrish                       
         ------------------------------------------------------------

  ==> Geometry <==

    Molecular point group: c1
    Full point group: C1

    Geometry (in Angstrom), charge = 0, multiplicity = 1:

       Center              X                  Y                   Z               Mass       
    ------------   -----------------  -----------------  -----------------  -----------------
           C         -1.322095258453     0.749515671483    -0.795384956595    12.000000000000
           C         -2.400095258453     1.322515671483    -0.122384956595    12.000000000000
           C          0.617904741547    -1.483484328517    -1.671384956595    12.000000000000
           C          2.120904741547     0.032515671483    -0.564384956595    12.000000000000
           C         -1.407095258453     0.706515671483     1.992615043405    12.000000000000
           C          1.719904741547    -2.016484328517    -2.320384956595    12.000000000000
           C          3.155904741547    -0.568484328517    -1.262384956595    12.000000000000
           C         -0.286095258453     0.154515671483    -0.075384956595    12.000000000000
           C          0.830904741547    -0.439484328517    -0.778384956595    12.000000000000
           C         -2.443095258453     1.301515671483     1.271615043405    12.000000000000
           C         -0.329095258453     0.133515671483     1.318615043405    12.000000000000
           N          2.987904741547    -1.584484328517    -2.138384956595    14.003074004780
           O         -3.496095258453     1.861515671483     1.928615043405    15.994914619560
           F          0.658904741547    -0.434484328517     2.025615043405    18.998403224000
           H         -1.303095258453     0.773515671483    -1.882384956595     1.007825032070
           H         -3.205095258453     1.783515671483    -0.689384956595     1.007825032070
           H         -0.374095258453    -1.877484328517    -1.866384956595     1.007825032070
           H          2.324904741547     0.845515671483     0.125615043405     1.007825032070
           H         -1.435095258453     0.686515671483     3.078615043405     1.007825032070
           H          1.606904741547    -2.830484328517    -3.028384956595     1.007825032070
           H          4.179904741547    -0.237484328517    -1.129384956595     1.007825032070
           H         -3.316095258453     2.796515671483     2.116615043405     1.007825032070

  Nuclear repulsion =  813.837337542341061
  Reference energy  = -650.169663095642250

  ==> Basis Set <==

  Basis Set: AUG-CC-PVTZ
    Blend: AUG-CC-PVTZ
    Number of shells: 268
    Number of basis function: 828
    Number of Cartesian functions: 970
    Spherical Harmonics?: true
    Max angular momentum: 3

  ==> CGRSolver (by Rob Parrish) <==

   Number of roots    =         1
   Preconditioning    =    JACOBI
   Convergence cutoff =     1E-06
   Maximum iterations =       100

  ==> CPHFRHamiltonian (by Rob Parrish) <== 

  ==> DFJK: Density-Fitted J/K Matrices <==

    J tasked:                  Yes
    K tasked:                  Yes
    wK tasked:                  No
    OpenMP threads:              8
    Integrals threads:           8
    Memory (MB):              3576
    Algorithm:                Disk
    Integral Cache:           NONE
    Schwarz Cutoff:          1E-12
    Fitting Condition:       1E-12

   => Auxiliary Basis Set <=

  Basis Set: (AUG-CC-PVTZ AUX)
    Blend: AUG-CC-PVTZ-JKFIT
    Number of shells: 532
    Number of basis function: 1824
    Number of Cartesian functions: 2274
    Spherical Harmonics?: true
    Max angular momentum: 4

  ==> CPHF Iterations <==

  => Iterations <=

             Iter  Converged  Remaining    Residual
  CGR           1          0          1   9.747E-02
  CGR           2          0          1   3.099E-02
  CGR           3          0          1   2.037E-02
  CGR           4          0          1   9.406E-03
  CGR           5          0          1   3.828E-03
  CGR           6          0          1   1.353E-03
  CGR           7          0          1   3.903E-04
  CGR           8          0          1   1.246E-04
  CGR           9          0          1   4.472E-05
  CGR          10          0          1   1.420E-05
  CGR          11          0          1   6.865E-06
  CGR          12          0          1   2.925E-06
  CGR          13          0          1   1.403E-06
  CGR          14          1          0   5.191E-07

    CGRSolver converged.

  ==> DFCorrGrad: Density-Fitted Correlated Gradients <==

    OpenMP threads:              8
    Integrals threads:           8
    Memory (MB):              3576
    Schwarz Cutoff:          0E+00
    Fitting Condition:       1E-12

   => Auxiliary Basis Set <=

  Basis Set: (AUG-CC-PVTZ AUX)
    Blend: AUG-CC-PVTZ-JKFIT
    Number of shells: 532
    Number of basis function: 1824
    Number of Cartesian functions: 2274
    Spherical Harmonics?: true
    Max angular momentum: 4

	-----------------------------------------------------------
	 ==================> DF-MP2 Energies <==================== 
	-----------------------------------------------------------
	 Reference Energy          =    -650.1696630956422496 [Eh]
	 Singles Energy            =      -0.0000000000000002 [Eh]
	 Same-Spin Energy          =      -0.6770281796819040 [Eh]
	 Opposite-Spin Energy      =      -2.0187293804864108 [Eh]
	 Correlation Energy        =      -2.6957575601683148 [Eh]
	 Total Energy              =    -652.8654206558105670 [Eh]
	-----------------------------------------------------------
	 ================> DF-SCS-MP2 Energies <================== 
	-----------------------------------------------------------
	 SCS Same-Spin Scale       =       0.3333333333333333 [-]
	 SCS Opposite-Spin Scale   =       1.2000000000000000 [-]
	 SCS Same-Spin Energy      =      -0.2256760598939680 [Eh]
	 SCS Opposite-Spin Energy  =      -2.4224752565836929 [Eh]
	 SCS Correlation Energy    =      -2.6481513164776609 [Eh]
	 SCS Total Energy          =    -652.8178144121199011 [Eh]
	-----------------------------------------------------------


  -Total Gradient:
     Atom            X                  Y                   Z
    ------   -----------------  -----------------  -----------------
       1        0.010083322419    -0.001890511587    -0.011281582496
       2       -0.000552040576     0.001800075182     0.003631986824
       3       -0.007026859895    -0.001052384061     0.002926263469
       4       -0.003702383354     0.005761579748     0.003603616529
       5       -0.005024678019     0.004091126362    -0.002652832788
       6       -0.014067266241    -0.000969945716     0.002583264038
       7       -0.003119874414     0.009486377683     0.008796053240
       8       -0.000557492602     0.000238049439    -0.002531678218
       9       -0.001841092752     0.001220102765    -0.000580082268
      10       -0.017654851075     0.000917290911     0.010700304318
      11        0.021541903434    -0.014044703933     0.005093103064
      12        0.013569125230    -0.006780255341    -0.008490318285
      13        0.009610295577    -0.010304994144    -0.009187299555
      14        0.001548582368    -0.000423119133     0.002698925760
      15       -0.003334384533     0.001538567993    -0.006032062729
      16       -0.003113643758     0.001632961890    -0.005417135114
      17       -0.003123635613    -0.002568976067    -0.002744826710
      18        0.002861475540     0.003677592549     0.002764806375
      19        0.000687048522    -0.000302846787     0.005471018336
      20        0.000404880425    -0.001797972567    -0.002014934202
      21        0.002509078665     0.000172910180     0.000071362578
      22        0.000302490657     0.009599074648     0.002592047833


*** tstop() called on gpu-2-14.local at Sun Nov 12 00:46:46 2017
Module time:
	user time   =    5685.99 seconds =      94.77 minutes
	system time =     126.97 seconds =       2.12 minutes
	total time  =       2758 seconds =      45.97 minutes
Total time:
	user time   =    5686.00 seconds =      94.77 minutes
	system time =     126.97 seconds =       2.12 minutes
	total time  =       2758 seconds =      45.97 minutes

			-----------------------------------------
			 OPTKING 2.0: for geometry optimizations 
			  - R.A. King,  Bethel University        
			-----------------------------------------

	Internal coordinates to be generated automatically.
	Detected frag 1 with atoms:  1 2 3 4 5 6 7 8 9 10 11 12 13 14 15 16 17 18 19 20
	 21 22
	---Fragment 1 Bond Connectivity---
	 1 : 2 8 15
	 2 : 1 10 16
	 3 : 6 9 17
	 4 : 7 9 18
	 5 : 10 11 19
	 6 : 3 12 20
	 7 : 4 12 21
	 8 : 1 9 11
	 9 : 3 4 8
	 10 : 2 5 13
	 11 : 5 8 14
	 12 : 6 7
	 13 : 10 22
	 14 : 11
	 15 : 1
	 16 : 2
	 17 : 3
	 18 : 4
	 19 : 5
	 20 : 6
	 21 : 7
	 22 : 13

	Assuming in current code that numbering for constraints corresponds to unified fragment.
	Fixed dihedral atom list: 
	     2    10    13    22
	---Fragment 1 Geometry and Gradient---
	 C          -2.4983979601        1.4163793514       -1.5030597382
	 C          -4.5355227313        2.4991924256       -0.2312740507
	 C           1.1676707377       -2.8033791033       -3.1584598306
	 C           4.0079291155        0.0614457141       -1.0665330015
	 C          -2.6590246814        1.3351211277        3.7654967203
	 C           3.2501489362       -3.8106031322       -4.3848920908
	 C           5.9637956630       -1.0742796917       -2.3855618422
	 C          -0.5406416864        0.2919923023       -0.1424569225
	 C           1.5701824040       -0.8305050206       -1.4709343939
	 C          -4.6167809550        2.4595081768        2.4030041785
	 C          -0.6218999101        0.2523080536        2.4918213067
	 N           5.6463216727       -2.9942414427       -4.0409619346
	 O          -6.6066625730        3.5177548112        3.6445542478
	 F           1.2451495092       -0.8210563899        3.8278576827
	 H          -2.4624931635        1.4617327786       -3.5571920446
	 H          -6.0567522683        3.3703561728       -1.3027487681
	 H          -0.7069375861       -3.5479311997       -3.5269564265
	 H           4.3934332466        1.5977930602        0.2373780302
	 H          -2.7119370131        1.2973266050        5.8177393006
	 H           3.0366098832       -5.3488402043       -5.7228181929
	 H           7.8988752231       -0.4487803417       -2.1342282666
	 H          -6.2665118690        5.2846487454        3.9998227608
	             0.0100833224       -0.0018905116       -0.0112815825
	            -0.0005520406        0.0018000752        0.0036319868
	            -0.0070268599       -0.0010523841        0.0029262635
	            -0.0037023834        0.0057615797        0.0036036165
	            -0.0050246780        0.0040911264       -0.0026528328
	            -0.0140672662       -0.0009699457        0.0025832640
	            -0.0031198744        0.0094863777        0.0087960532
	            -0.0005574926        0.0002380494       -0.0025316782
	            -0.0018410928        0.0012201028       -0.0005800823
	            -0.0176548511        0.0009172909        0.0107003043
	             0.0215419034       -0.0140447039        0.0050931031
	             0.0135691252       -0.0067802553       -0.0084903183
	             0.0096102956       -0.0103049941       -0.0091872996
	             0.0015485824       -0.0004231191        0.0026989258
	            -0.0033343845        0.0015385680       -0.0060320627
	            -0.0031136438        0.0016329619       -0.0054171351
	            -0.0031236356       -0.0025689761       -0.0027448267
	             0.0028614755        0.0036775925        0.0027648064
	             0.0006870485       -0.0003028468        0.0054710183
	             0.0004048804       -0.0017979726       -0.0020149342
	             0.0025090787        0.0001729102        0.0000713626
	             0.0003024907        0.0095990746        0.0025920478

	Previous optimization step data not found.  Starting new optimization.

	---Fragment 1 Intrafragment Coordinates---
	 - Coordinate -           - BOHR/RAD -       - ANG/DEG -
	 R(1,2)           =         2.634350	       1.394038
	 R(1,8)           =         2.635962	       1.394891
	 R(1,15)          =         2.054947	       1.087431
	 R(2,10)          =         2.635830	       1.394821
	 R(2,16)          =         2.054537	       1.087214
	 R(3,6)           =         2.618273	       1.385530
	 R(3,9)           =         2.627164	       1.390235
	 R(3,17)          =         2.050440	       1.085046
	 R(4,7)           =         2.618229	       1.385507
	 R(4,9)           =         2.627114	       1.390209
	 R(4,18)          =         2.051624	       1.085673
	 R(5,10)          =         2.636938	       1.395407
	 R(5,11)          =         2.635263	       1.394521
	 R(5,19)          =         2.053272	       1.086545
	 R(6,12)          =         2.554678	       1.351877
	 R(6,20)          =         2.049834	       1.084725
	 R(7,12)          =         2.554876	       1.351982
	 R(7,21)          =         2.049134	       1.084355
	 R(8,9)           =         2.735038	       1.447320
	 R(8,11)          =         2.635830	       1.394821
	 R(10,13)         =         2.573123	       1.361638
	 R(11,14)         =         2.534359	       1.341125
	 R(13,22)         =         1.834075	       0.970551
	 B(1,2,10)        =         2.094553	     120.009056
	 B(1,2,16)        =         2.088723	     119.675016
	 B(1,8,9)         =         2.091569	     119.838095
	 B(1,8,11)        =         2.093692	     119.959722
	 B(2,1,8)         =         2.094940	     120.031219
	 B(2,1,15)        =         2.079469	     119.144799
	 B(2,10,5)        =         2.094306	     119.994870
	 B(2,10,13)       =         2.094247	     119.991510
	 B(3,6,12)        =         2.165211	     124.057445
	 B(3,6,20)        =         2.107791	     120.767548
	 B(3,9,4)         =         2.089790	     119.736135
	 B(3,9,8)         =         2.096656	     120.129524
	 B(4,7,12)        =         2.164668	     124.026364
	 B(4,7,21)        =         2.107421	     120.746344
	 B(4,9,8)         =         2.096739	     120.134309
	 B(5,10,13)       =         2.094633	     120.013619
	 B(5,11,8)        =         2.095181	     120.045019
	 B(5,11,14)       =         2.081414	     119.256220
	 B(6,3,9)         =         2.057714	     117.898335
	 B(6,3,17)        =         2.098197	     120.217854
	 B(6,12,7)        =         2.030771	     116.354583
	 B(7,4,9)         =         2.058217	     117.927126
	 B(7,4,18)        =         2.099769	     120.307895
	 B(8,1,15)        =         2.108776	     120.823969
	 B(8,11,14)       =         2.106591	     120.698759
	 B(9,3,17)        =         2.127271	     121.883627
	 B(9,4,18)        =         2.125200	     121.764971
	 B(9,8,11)        =         2.097924	     120.202184
	 B(10,2,16)       =         2.099909	     120.315896
	 B(10,5,11)       =         2.093699	     119.960108
	 B(10,5,19)       =         2.100355	     120.341451
	 B(10,13,22)      =         1.924362	     110.257802
	 B(11,5,19)       =         2.089132	     119.698439
	 B(12,6,20)       =         2.010181	     115.174900
	 B(12,7,21)       =         2.011095	     115.227270
	 D(1,2,10,5)      =        -0.000325	      -0.018609
	 D(1,2,10,13)     =         3.141388	     179.988267
	 D(1,8,9,3)       =        -1.047732	     -60.030615
	 D(1,8,9,4)       =         2.092736	     119.904915
	 D(1,8,11,5)      =         0.000325	       0.018608
	 D(1,8,11,14)     =        -3.141528	    -179.996269
	 D(2,1,8,9)       =         3.141277	     179.981897
	 D(2,1,8,11)      =        -0.000348	      -0.019945
	 D(2,10,5,11)     =         0.000301	       0.017261
	 D(2,10,5,19)     =        -3.141029	    -179.967685
	 D(2,10,13,22)    =        -1.571154	     -90.020501
	 D(3,6,12,7)      =         0.000000	       0.000000
	 D(3,9,4,7)       =        -0.000043	      -0.002444
	 D(3,9,4,18)      =        -3.141070	    -179.970061
	 D(3,9,8,11)      =         2.093893	     119.971231
	 D(4,7,12,6)      =        -0.000490	      -0.028079
	 D(4,9,3,6)       =        -0.000394	      -0.022595
	 D(4,9,3,17)      =        -3.139269	    -179.866889
	 D(4,9,8,11)      =        -1.048825	     -60.093239
	 D(5,10,2,16)     =         3.140149	     179.917291
	 D(5,10,13,22)    =         1.570559	      89.986376
	 D(5,11,8,9)      =        -3.141300	    -179.983240
	 D(6,3,9,8)       =         3.140078	     179.913192
	 D(6,12,7,21)     =         3.140154	     179.917593
	 D(7,4,9,8)       =        -3.140515	    -179.938228
	 D(7,12,6,20)     =         3.139530	     179.881843
	 D(8,1,2,10)      =         0.000348	       0.019955
	 D(8,1,2,16)      =        -3.140133	    -179.916358
	 D(8,9,3,17)      =         0.001202	       0.068898
	 D(8,9,4,18)      =         0.001643	       0.094154
	 D(8,11,5,10)     =        -0.000301	      -0.017270
	 D(8,11,5,19)     =         3.141030	     179.967774
	 D(9,3,6,12)      =         0.000430	       0.024638
	 D(9,3,6,20)      =        -3.138988	    -179.850775
	 D(9,4,7,12)      =         0.000513	       0.029399
	 D(9,4,7,21)      =        -3.140081	    -179.913416
	 D(9,8,1,15)      =         0.000403	       0.023110
	 D(9,8,11,14)     =         0.000033	       0.001883
	 D(10,2,1,15)     =         3.141234	     179.979432
	 D(10,5,11,14)    =         3.141547	     179.997392
	 D(11,5,10,13)    =        -3.141411	    -179.989616
	 D(11,8,1,15)     =        -3.141221	    -179.978731
	 D(12,6,3,17)     =         3.139352	     179.871634
	 D(12,7,4,18)     =         3.141549	     179.997508
	 D(13,10,2,16)    =        -0.001324	      -0.075833
	 D(13,10,5,19)    =         0.000444	       0.025437
	 D(14,11,5,19)    =        -0.000307	      -0.017564
	 D(15,1,2,16)     =         0.000753	       0.043120
	 D(17,3,6,20)     =        -0.000066	      -0.003779
	 D(18,4,7,21)     =         0.000955	       0.054693
	 R(4,14)          =         5.689185	       3.010587

	Current energy   :      -652.8654206558

	Generating empirical Hessian (Schlegel '84) for each fragment.
	Adding user-defined constraint: Fragment 1; Coordinate 69:
		Value =    -1.571154; Fixed value    =    -1.570796
		Force =     0.000179; Force constant =     0.500000
	Removing off-diagonal coupling between coordinate 69 and others.
	Taking RFO optimization step.
	Going to follow RFO solution 1.
	Using RFO vector 1.

	Determining step-restricting scale parameter for RS-RFO.
	Maximum step size allowed    0.10000

	 Iter      |step|        alpha        rfo_root  
	------------------------------------------------
	    0     0.24417       1.00000           1
	    1     0.17479       3.87598           1
	    2     0.13651      10.15112           1
	    3     0.11344      20.98987           1
	    4     0.10256      30.40815           1
	    5     0.10012      33.11183           1
	    6     0.10000      33.24838           1
	------------------------------------------------
	Norm of target step-size    0.10000
	Projected energy change by RFO approximation:        -0.0047940607

	Back-transformation to cartesian coordinates...
	Could not converge backtransformation.
	Using first guess instead.

	--- Internal Coordinate Step in ANG or DEG, aJ/ANG or AJ/DEG ---
	 ---------------------------------------------------------------------------
	   Coordinate                Previous        Force       Change         New 
	   ----------                --------       ------       ------       ------
	    1 R(1,2)          =      1.394038    -0.046301    -0.004744     1.389294
	    2 R(1,8)          =      1.394891    -0.032534    -0.003146     1.391745
	    3 R(1,15)         =      1.087431    -0.049478    -0.006309     1.081122
	    4 R(2,10)         =      1.394821    -0.059090    -0.006164     1.388657
	    5 R(2,16)         =      1.087214    -0.047975    -0.006067     1.081147
	    6 R(3,6)          =      1.385530     0.005884     0.000596     1.386127
	    7 R(3,9)          =      1.390235    -0.018512    -0.001442     1.388793
	    8 R(3,17)         =      1.085046    -0.035277    -0.004480     1.080566
	    9 R(4,7)          =      1.385507     0.001652     0.000153     1.385660
	   10 R(4,9)          =      1.390209    -0.018121    -0.001299     1.388910
	   11 R(4,18)         =      1.085673    -0.041596    -0.005298     1.080374
	   12 R(5,10)         =      1.395407    -0.071307    -0.007535     1.387873
	   13 R(5,11)         =      1.394521    -0.099582    -0.010366     1.384155
	   14 R(5,19)         =      1.086545    -0.044951    -0.005728     1.080817
	   15 R(6,12)         =      1.351877    -0.121117    -0.011428     1.340449
	   16 R(6,20)         =      1.084725    -0.021603    -0.002745     1.081980
	   17 R(7,12)         =      1.351982    -0.117188    -0.011097     1.340885
	   18 R(7,21)         =      1.084355    -0.020029    -0.002527     1.081828
	   19 R(8,9)          =      1.447320     0.131615     0.016012     1.463331
	   20 R(8,11)         =      1.394821    -0.068148    -0.006664     1.388157
	   21 R(10,13)        =      1.361638     0.091767     0.008775     1.370413
	   22 R(11,14)        =      1.341125    -0.023992    -0.002079     1.339047
	   23 R(13,22)        =      0.970551    -0.080786    -0.007571     0.962980
	   24 B(1,2,10)       =    120.009056    -0.000076    -0.132798   119.876258
	   25 B(1,2,16)       =    119.675016     0.000256     0.596111   120.271127
	   26 B(1,8,9)        =    119.838095     0.000603     1.064669   120.902764
	   27 B(1,8,11)       =    119.959722    -0.000876    -1.671628   118.288093
	   28 B(2,1,8)        =    120.031219     0.000378     0.813892   120.845111
	   29 B(2,1,15)       =    119.144799     0.000100     0.294808   119.439607
	   30 B(2,10,5)       =    119.994870    -0.000040    -0.082410   119.912460
	   31 B(2,10,13)      =    119.991510     0.000170     0.317414   120.308924
	   32 B(3,6,12)       =    124.057445    -0.000033    -0.130523   123.926922
	   33 B(3,6,20)       =    120.767548    -0.000039    -0.071230   120.696318
	   34 B(3,9,4)        =    119.736135    -0.000815    -1.446297   118.289839
	   35 B(3,9,8)        =    120.129524     0.000402     0.673469   120.802993
	   36 B(4,7,12)       =    124.026364    -0.000013    -0.093272   123.933092
	   37 B(4,7,21)       =    120.746344    -0.000041    -0.068299   120.678045
	   38 B(4,9,8)        =    120.134309     0.000413     0.772775   120.907084
	   39 B(5,10,13)      =    120.013619    -0.000131    -0.237295   119.776324
	   40 B(5,11,8)       =    120.045019     0.000827     1.527211   121.572230
	   41 B(5,11,14)      =    119.256220    -0.000179    -0.379990   118.876230
	   42 B(6,3,9)        =    117.898335     0.000358     0.788377   118.686712
	   43 B(6,3,17)       =    120.217854    -0.000003     0.031877   120.249731
	   44 B(6,12,7)       =    116.354583     0.000157     0.119457   116.474040
	   45 B(7,4,9)        =    117.927126     0.000346     0.762218   118.689344
	   46 B(7,4,18)       =    120.307895    -0.000020    -0.009012   120.298883
	   47 B(8,1,15)       =    120.823969    -0.000478    -1.108693   119.715276
	   48 B(8,11,14)      =    120.698759    -0.000648    -1.147351   119.551408
	   49 B(9,3,17)       =    121.883627    -0.000354    -0.820126   121.063501
	   50 B(9,4,18)       =    121.764971    -0.000327    -0.753204   121.011766
	   51 B(9,8,11)       =    120.202184     0.000273     0.606943   120.809126
	   52 B(10,2,16)      =    120.315896    -0.000179    -0.463374   119.852522
	   53 B(10,5,11)      =    119.960108    -0.000213    -0.454411   119.505697
	   54 B(10,5,19)      =    120.341451     0.000042     0.070012   120.411463
	   55 B(10,13,22)     =    110.257802    -0.000233    -0.569207   109.688596
	   56 B(11,5,19)      =    119.698439     0.000170     0.384321   120.082760
	   57 B(12,6,20)      =    115.174900     0.000073     0.201860   115.376760
	   58 B(12,7,21)      =    115.227270     0.000054     0.161592   115.388862
	   59 D(1,2,10,5)     =     -0.018609    -0.000005    -0.087469    -0.106077
	   60 D(1,2,10,13)    =    179.988267     0.000024     0.457639   180.445906
	   61 D(1,8,9,3)      =    -60.030615     0.000033     0.647470   -59.383145
	   62 D(1,8,9,4)      =    119.904915     0.000032     0.604689   120.509603
	   63 D(1,8,11,5)     =      0.018608     0.000000     0.000692     0.019299
	   64 D(1,8,11,14)    =   -179.996269    -0.000005    -0.118450  -180.114719
	   65 D(2,1,8,9)      =    179.981897     0.000000    -0.000182   179.981714
	   66 D(2,1,8,11)     =     -0.019945     0.000002     0.047598     0.027654
	   67 D(2,10,5,11)    =      0.017261     0.000007     0.134265     0.151527
	   68 D(2,10,5,19)    =   -179.967685     0.000011     0.222205  -179.745481
	   69 D(2,10,13,22)   =    -90.020501    -0.000005    -0.039427   -90.059928
	   70 D(3,6,12,7)     =      0.000000    -0.000001    -0.016954    -0.016954
	   71 D(3,9,4,7)      =     -0.002444     0.000004     0.055288     0.052844
	   72 D(3,9,4,18)     =   -179.970061     0.000001    -0.005397  -179.975459
	   73 D(3,9,8,11)     =    119.971231     0.000031     0.598524   120.569755
	   74 D(4,7,12,6)     =     -0.028079     0.000000     0.009687    -0.018391
	   75 D(4,9,3,6)      =     -0.022595    -0.000004    -0.062207    -0.084802
	   76 D(4,9,3,17)     =   -179.866889    -0.000008    -0.132120  -179.999009
	   77 D(4,9,8,11)     =    -60.093239     0.000030     0.555743   -59.537497
	   78 D(5,10,2,16)    =    179.917291    -0.000007    -0.133384   179.783907
	   79 D(5,10,13,22)   =     89.986376     0.000023     0.504927    90.491302
	   80 D(5,11,8,9)     =   -179.983240     0.000002     0.048434  -179.934806
	   81 D(6,3,9,8)      =    179.913192    -0.000005    -0.102498   179.810694
	   82 D(6,12,7,21)    =    179.917593     0.000002     0.052734   179.970327
	   83 D(7,4,9,8)      =   -179.938228     0.000004     0.095689  -179.842539
	   84 D(7,12,6,20)    =    179.881843     0.000005     0.092328   179.974171
	   85 D(8,1,2,10)     =      0.019955     0.000000    -0.004167     0.015788
	   86 D(8,1,2,16)     =   -179.916358     0.000002     0.042628  -179.873730
	   87 D(8,9,3,17)     =      0.068898    -0.000008    -0.172412    -0.103513
	   88 D(8,9,4,18)     =      0.094154     0.000001     0.035004     0.129159
	   89 D(8,11,5,10)    =     -0.017270    -0.000005    -0.091760    -0.109030
	   90 D(8,11,5,19)    =    179.967774    -0.000009    -0.179453   179.788321
	   91 D(9,3,6,12)     =      0.024638     0.000003     0.044873     0.069511
	   92 D(9,3,6,20)     =   -179.850775    -0.000003    -0.070388  -179.921163
	   93 D(9,4,7,12)     =      0.029399    -0.000002    -0.029399     0.000000
	   94 D(9,4,7,21)     =   -179.913416    -0.000004    -0.075107  -179.988523
	   95 D(9,8,1,15)     =      0.023110    -0.000003    -0.069192    -0.046082
	   96 D(9,8,11,14)    =      0.001883    -0.000003    -0.070707    -0.068825
	   97 D(10,2,1,15)    =    179.979432     0.000003     0.064076   180.043508
	   98 D(10,5,11,14)   =    179.997392     0.000000     0.026716   180.024108
	   99 D(11,5,10,13)   =   -179.989616    -0.000022    -0.407881  -180.397497
	  100 D(11,8,1,15)    =   -179.978731    -0.000001    -0.021269  -180.000000
	  101 D(12,6,3,17)    =    179.871634     0.000006     0.112804   179.984438
	  102 D(12,7,4,18)    =    179.997508     0.000001     0.030212   180.027721
	  103 D(13,10,2,16)   =     -0.075833     0.000022     0.411723     0.335890
	  104 D(13,10,5,19)   =      0.025437    -0.000017    -0.319941    -0.294504
	  105 D(14,11,5,19)   =     -0.017564    -0.000004    -0.060977    -0.078541
	  106 D(15,1,2,16)    =      0.043120     0.000006     0.110870     0.153990
	  107 D(17,3,6,20)    =     -0.003779     0.000000    -0.002458    -0.006237
	  108 D(18,4,7,21)    =      0.054693    -0.000001    -0.015122     0.039572
	  109 R(4,14)         =      3.010587     0.008645     0.002752     3.013338
	 ---------------------------------------------------------------------------
	Successfully symmetrized geometry.
	 Forces used to impose fixed constraints are not included.
	  Forces zeroed: 69 

  ==> Convergence Check <==

  Measures of convergence in internal coordinates in au.
  Criteria marked as inactive (o), active & met (*), and active & unmet ( ).
  --------------------------------------------------------------------------------------------- ~
   Step     Total Energy     Delta E     MAX Force     RMS Force      MAX Disp      RMS Disp    ~
  --------------------------------------------------------------------------------------------- ~
    Convergence Criteria    1.00e-06 *    3.00e-04 *             o    1.20e-03 *             o  ~
  --------------------------------------------------------------------------------------------- ~
      1    -652.86542066   -6.53e+02      1.60e-02      4.56e-03 o    3.03e-02      9.59e-03 o  ~
  ---------------------------------------------------------------------------------------------

	Writing optimization data to binary file.
	Structure for next step:
	Cartesian Geometry (in Angstrom)
	    C    -1.3401387331   0.7543913275  -0.7803728798
	    C    -2.4139040167   1.3266027484  -0.1097469021
	    C     0.6416992905  -1.4829051425  -1.6819571816
	    C     2.1325161066   0.0126503481  -0.5742839348
	    C    -1.4156657110   0.7214157491   1.9912068465
	    C     1.7442003434  -2.0193563289  -2.3285315702
	    C     3.1692111722  -0.5897940009  -1.2688177305
	    C    -0.2945258060   0.1616601840  -0.0787200605
	    C     0.8368776126  -0.4417643862  -0.7838045003
	    C    -2.4504589171   1.3106625624   1.2783376182
	    C    -0.3525310379   0.1564803912   1.3082152847
	    N     3.0016692412  -1.5948518795  -2.1404600251
	    O    -3.5097197284   1.8644099054   1.9486819569
	    F     0.6387837952  -0.4090698255   2.0085679599
	    H    -1.3185553585   0.7713953713  -1.8611457686
	    H    -3.2222243955   1.7827854539  -0.6641791659
	    H    -0.3472157049  -1.8713225680  -1.8789418899
	    H     2.3346940943   0.8197633133   0.1148470004
	    H    -1.4378714514   0.7008342693   3.0716001292
	    H     1.6294084002  -2.8303161873  -3.0355305085
	    H     4.1906558165  -0.2615129559  -1.1301311407
	    H    -3.3300006981   2.7931864238   2.1286974174
			--------------------------
			 OPTKING Finished Execution 
			--------------------------

    Structure for next step:
    Molecular point group: c1
    Full point group: C1

    Geometry (in Angstrom), charge = 0, multiplicity = 1:

    C           -1.338051074479     0.751446137590    -0.778963862171
    C           -2.411816358063     1.323657558525    -0.108337884475
    C            0.643786949206    -1.485850332355    -1.680548164000
    C            2.134603765268     0.009705158209    -0.572874917192
    C           -1.413578052354     0.718470559152     1.992615864125
    C            1.746288002069    -2.022301518838    -2.327122552617
    C            3.171298830816    -0.592739190818    -1.267408712931
    C           -0.292438147333     0.158714994092    -0.077311042863
    C            0.838965271261    -0.444709576132    -0.782395482740
    C           -2.448371258487     1.307717372529     1.279746635833
    C           -0.350443379283     0.153535201284     1.309624302343
    N            3.003756899880    -1.597797069444    -2.139051007528
    O           -3.507632069712     1.861464715498     1.950090974550
    F            0.640871453878    -0.412015015439     2.009976977517
    H           -1.316467699859     0.768450181354    -1.859736750972
    H           -3.220136736877     1.779840263953    -0.662770148282
    H           -0.345128046221    -1.874267757936    -1.877532872289
    H            2.336781752974     0.816818123420     0.116256017998
    H           -1.435783792714     0.697889079358     3.073009146784
    H            1.631496058818    -2.833261377180    -3.034121490857
    H            4.192743475209    -0.264458145799    -1.128722123049
    H           -3.327913039395     2.790241233852     2.130106434963

gradient() will perform analytic gradient computation.

*** tstart() called on gpu-2-14.local
*** at Sun Nov 12 00:46:47 2017

    SCF Algorithm Type (re)set to DF.

*** tstart() called on gpu-2-14.local
*** at Sun Nov 12 00:46:47 2017

   => Loading Basis Set <=

    Name: AUG-CC-PVTZ
    Role: ORBITAL
    Keyword: BASIS
    atoms 1-11  entry C          line   221 file /cbio/jclab/home/chayas/anaconda/envs/py35/share/psi4/basis/aug-cc-pvtz.gbs 
    atoms 12    entry N          line   267 file /cbio/jclab/home/chayas/anaconda/envs/py35/share/psi4/basis/aug-cc-pvtz.gbs 
    atoms 13    entry O          line   313 file /cbio/jclab/home/chayas/anaconda/envs/py35/share/psi4/basis/aug-cc-pvtz.gbs 
    atoms 14    entry F          line   359 file /cbio/jclab/home/chayas/anaconda/envs/py35/share/psi4/basis/aug-cc-pvtz.gbs 
    atoms 15-22 entry H          line    34 file /cbio/jclab/home/chayas/anaconda/envs/py35/share/psi4/basis/aug-cc-pvtz.gbs 


         ---------------------------------------------------------
                                   SCF
            by Justin Turney, Rob Parrish, and Andy Simmonett
                              RHF Reference
                        8 Threads,   4768 MiB Core
         ---------------------------------------------------------

  ==> Geometry <==

    Molecular point group: c1
    Full point group: C1

    Geometry (in Angstrom), charge = 0, multiplicity = 1:

       Center              X                  Y                   Z               Mass       
    ------------   -----------------  -----------------  -----------------  -----------------
           C         -1.338051074479     0.751446137590    -0.778963862171    12.000000000000
           C         -2.411816358063     1.323657558525    -0.108337884475    12.000000000000
           C          0.643786949206    -1.485850332355    -1.680548164000    12.000000000000
           C          2.134603765268     0.009705158209    -0.572874917192    12.000000000000
           C         -1.413578052354     0.718470559152     1.992615864125    12.000000000000
           C          1.746288002069    -2.022301518838    -2.327122552617    12.000000000000
           C          3.171298830816    -0.592739190818    -1.267408712931    12.000000000000
           C         -0.292438147333     0.158714994092    -0.077311042863    12.000000000000
           C          0.838965271261    -0.444709576132    -0.782395482740    12.000000000000
           C         -2.448371258487     1.307717372529     1.279746635833    12.000000000000
           C         -0.350443379283     0.153535201284     1.309624302343    12.000000000000
           N          3.003756899880    -1.597797069444    -2.139051007528    14.003074004780
           O         -3.507632069712     1.861464715498     1.950090974550    15.994914619560
           F          0.640871453878    -0.412015015439     2.009976977517    18.998403224000
           H         -1.316467699859     0.768450181354    -1.859736750972     1.007825032070
           H         -3.220136736877     1.779840263953    -0.662770148282     1.007825032070
           H         -0.345128046221    -1.874267757936    -1.877532872289     1.007825032070
           H          2.336781752974     0.816818123420     0.116256017998     1.007825032070
           H         -1.435783792714     0.697889079358     3.073009146784     1.007825032070
           H          1.631496058818    -2.833261377180    -3.034121490857     1.007825032070
           H          4.192743475209    -0.264458145799    -1.128722123049     1.007825032070
           H         -3.327913039395     2.790241233852     2.130106434963     1.007825032070

  Running in c1 symmetry.

  Rotational constants: A =      0.06437  B =      0.01293  C =      0.01156 [cm^-1]
  Rotational constants: A =   1929.74436  B =    387.60764  C =    346.44501 [MHz]
  Nuclear repulsion =  814.078941091559273

  Charge       = 0
  Multiplicity = 1
  Electrons    = 98
  Nalpha       = 49
  Nbeta        = 49

  ==> Algorithm <==

  SCF Algorithm Type is DF.
  DIIS enabled.
  MOM disabled.
  Fractional occupation disabled.
  Guess Type is READ.
  Energy threshold   = 1.00e-10
  Density threshold  = 1.00e-10
  Integral threshold = 0.00e+00

  ==> Primary Basis <==

  Basis Set: AUG-CC-PVTZ
    Blend: AUG-CC-PVTZ
    Number of shells: 268
    Number of basis function: 828
    Number of Cartesian functions: 970
    Spherical Harmonics?: true
    Max angular momentum: 3

   => Loading Basis Set <=

    Name: (AUG-CC-PVTZ AUX)
    Role: JKFIT
    Keyword: DF_BASIS_SCF
    atoms 1-11  entry C          line   161 file /cbio/jclab/home/chayas/anaconda/envs/py35/share/psi4/basis/aug-cc-pvtz-jkfit.gbs 
    atoms 12    entry N          line   223 file /cbio/jclab/home/chayas/anaconda/envs/py35/share/psi4/basis/aug-cc-pvtz-jkfit.gbs 
    atoms 13    entry O          line   285 file /cbio/jclab/home/chayas/anaconda/envs/py35/share/psi4/basis/aug-cc-pvtz-jkfit.gbs 
    atoms 14    entry F          line   347 file /cbio/jclab/home/chayas/anaconda/envs/py35/share/psi4/basis/aug-cc-pvtz-jkfit.gbs 
    atoms 15-22 entry H          line    69 file /cbio/jclab/home/chayas/anaconda/envs/py35/share/psi4/basis/aug-cc-pvtz-jkfit.gbs 

  Reading orbitals from file 180, no projection.

  ==> Pre-Iterations <==

   -------------------------------------------------------
    Irrep   Nso     Nmo     Nalpha   Nbeta   Ndocc  Nsocc
   -------------------------------------------------------
     A        828     828       0       0       0       0
   -------------------------------------------------------
    Total     828     828      49      49      49       0
   -------------------------------------------------------

  ==> Integral Setup <==

  ==> DFJK: Density-Fitted J/K Matrices <==

    J tasked:                  Yes
    K tasked:                  Yes
    wK tasked:                  No
    OpenMP threads:              8
    Integrals threads:           8
    Memory (MB):              3576
    Algorithm:                Disk
    Integral Cache:           NONE
    Schwarz Cutoff:          1E-12
    Fitting Condition:       1E-12

   => Auxiliary Basis Set <=

  Basis Set: (AUG-CC-PVTZ AUX)
    Blend: AUG-CC-PVTZ-JKFIT
    Number of shells: 532
    Number of basis function: 1824
    Number of Cartesian functions: 2274
    Spherical Harmonics?: true
    Max angular momentum: 4

  Minimum eigenvalue in the overlap matrix is 7.5455893211E-07.
  Using Symmetric Orthogonalization.

  SCF Guess: Orbitals guess was supplied from a previous computation.

  ==> Iterations <==

                           Total Energy        Delta E     RMS |[F,P]|

   @DF-RHF iter   0:  -650.23153724968677   -6.50232e+02   4.88669e-04 
   @DF-RHF iter   1:  -650.17508326945881    5.64540e-02   8.38162e-05 
   @DF-RHF iter   2:  -650.17539309763777   -3.09828e-04   5.54847e-05 DIIS
   @DF-RHF iter   3:  -650.17557152429367   -1.78427e-04   7.18424e-06 DIIS
   @DF-RHF iter   4:  -650.17557805575746   -6.53146e-06   3.78753e-06 DIIS
   @DF-RHF iter   5:  -650.17557994408969   -1.88833e-06   1.53143e-06 DIIS
   @DF-RHF iter   6:  -650.17558032243494   -3.78345e-07   8.83519e-07 DIIS
   @DF-RHF iter   7:  -650.17558046368936   -1.41254e-07   3.39226e-07 DIIS
   @DF-RHF iter   8:  -650.17558049623494   -3.25456e-08   1.28348e-07 DIIS
   @DF-RHF iter   9:  -650.17558049964066   -3.40572e-09   4.40803e-08 DIIS
   @DF-RHF iter  10:  -650.17558050006551   -4.24848e-10   1.51207e-08 DIIS
   @DF-RHF iter  11:  -650.17558050009654   -3.10365e-11   4.29810e-09 DIIS
   @DF-RHF iter  12:  -650.17558050009643    1.13687e-13   1.82832e-09 DIIS
   @DF-RHF iter  13:  -650.17558050008813    8.29914e-12   8.36835e-10 DIIS
   @DF-RHF iter  14:  -650.17558050009598   -7.84439e-12   3.90747e-10 DIIS
   @DF-RHF iter  15:  -650.17558050009620   -2.27374e-13   1.58530e-10 DIIS
   @DF-RHF iter  16:  -650.17558050009893   -2.72848e-12   7.51943e-11 DIIS

  ==> Post-Iterations <==

    Orbital Energies (a.u.)
    -----------------------

    Doubly Occupied:                                                      

       1A    -26.323155     2A    -20.595094     3A    -15.565345  
       4A    -11.343666     5A    -11.317124     6A    -11.274566  
       7A    -11.273821     8A    -11.268569     9A    -11.261971  
      10A    -11.258445    11A    -11.250069    12A    -11.246018  
      13A    -11.240734    14A    -11.239472    15A     -1.643520  
      16A     -1.412282    17A     -1.258159    18A     -1.184413  
      19A     -1.112329    20A     -1.042173    21A     -1.036030  
      22A     -1.022428    23A     -0.889395    24A     -0.875475  
      25A     -0.855855    26A     -0.828176    27A     -0.773052  
      28A     -0.733769    29A     -0.729401    30A     -0.709811  
      31A     -0.700420    32A     -0.667226    33A     -0.663590  
      34A     -0.648357    35A     -0.634391    36A     -0.628347  
      37A     -0.604271    38A     -0.599280    39A     -0.561412  
      40A     -0.541751    41A     -0.537262    42A     -0.526126  
      43A     -0.506748    44A     -0.499425    45A     -0.420689  
      46A     -0.393861    47A     -0.358859    48A     -0.349757  
      49A     -0.336982  

    Virtual:                                                              

      50A      0.021702    51A      0.029541    52A      0.033333  
      53A      0.036825    54A      0.042500    55A      0.046154  
      56A      0.050365    57A      0.057057    58A      0.073946  
      59A      0.082006    60A      0.084094    61A      0.084896  
      62A      0.089371    63A      0.094252    64A      0.096117  
      65A      0.101064    66A      0.106193    67A      0.108122  
      68A      0.109409    69A      0.112748    70A      0.117156  
      71A      0.117353    72A      0.118830    73A      0.126294  
      74A      0.126732    75A      0.132363    76A      0.132730  
      77A      0.134299    78A      0.138854    79A      0.144995  
      80A      0.145323    81A      0.148737    82A      0.151783  
      83A      0.154464    84A      0.155577    85A      0.166126  
      86A      0.172512    87A      0.173463    88A      0.177639  
      89A      0.185383    90A      0.195794    91A      0.200179  
      92A      0.207891    93A      0.211906    94A      0.215707  
      95A      0.223901    96A      0.232718    97A      0.234601  
      98A      0.235884    99A      0.239733   100A      0.240214  
     101A      0.244556   102A      0.249135   103A      0.253524  
     104A      0.256197   105A      0.261419   106A      0.261899  
     107A      0.264873   108A      0.271151   109A      0.275256  
     110A      0.278226   111A      0.283181   112A      0.285041  
     113A      0.290676   114A      0.298425   115A      0.301418  
     116A      0.304823   117A      0.308929   118A      0.314991  
     119A      0.317309   120A      0.320544   121A      0.321500  
     122A      0.323677   123A      0.330276   124A      0.332203  
     125A      0.336036   126A      0.342851   127A      0.346554  
     128A      0.348067   129A      0.352414   130A      0.356273  
     131A      0.364464   132A      0.368217   133A      0.376929  
     134A      0.382794   135A      0.383442   136A      0.390286  
     137A      0.396762   138A      0.404246   139A      0.405887  
     140A      0.414198   141A      0.415803   142A      0.422193  
     143A      0.424342   144A      0.427053   145A      0.430148  
     146A      0.437440   147A      0.441945   148A      0.443622  
     149A      0.448673   150A      0.454629   151A      0.457409  
     152A      0.464914   153A      0.470199   154A      0.474528  
     155A      0.476298   156A      0.476517   157A      0.479616  
     158A      0.482625   159A      0.489302   160A      0.490110  
     161A      0.494391   162A      0.497233   163A      0.499409  
     164A      0.505688   165A      0.509241   166A      0.512326  
     167A      0.512966   168A      0.515540   169A      0.519493  
     170A      0.519778   171A      0.527917   172A      0.532738  
     173A      0.536173   174A      0.539898   175A      0.542434  
     176A      0.545335   177A      0.549977   178A      0.556048  
     179A      0.559719   180A      0.563673   181A      0.571675  
     182A      0.579654   183A      0.581503   184A      0.586624  
     185A      0.590407   186A      0.599078   187A      0.604020  
     188A      0.613393   189A      0.619851   190A      0.623422  
     191A      0.628164   192A      0.631542   193A      0.639265  
     194A      0.639853   195A      0.645559   196A      0.653104  
     197A      0.659483   198A      0.669691   199A      0.675086  
     200A      0.676131   201A      0.686876   202A      0.696129  
     203A      0.699347   204A      0.703766   205A      0.706953  
     206A      0.710554   207A      0.721108   208A      0.723779  
     209A      0.726598   210A      0.733776   211A      0.735484  
     212A      0.739527   213A      0.746057   214A      0.748651  
     215A      0.763170   216A      0.763968   217A      0.769082  
     218A      0.776668   219A      0.789345   220A      0.793680  
     221A      0.798413   222A      0.806614   223A      0.808742  
     224A      0.821086   225A      0.827018   226A      0.832290  
     227A      0.838272   228A      0.839578   229A      0.847612  
     230A      0.850112   231A      0.851374   232A      0.862186  
     233A      0.867531   234A      0.873490   235A      0.875902  
     236A      0.881439   237A      0.884664   238A      0.888633  
     239A      0.895478   240A      0.901696   241A      0.908944  
     242A      0.911188   243A      0.919809   244A      0.925535  
     245A      0.927295   246A      0.932144   247A      0.937467  
     248A      0.942139   249A      0.945749   250A      0.949261  
     251A      0.953882   252A      0.957770   253A      0.960663  
     254A      0.963422   255A      0.966372   256A      0.973236  
     257A      0.981686   258A      0.983430   259A      0.988901  
     260A      0.991581   261A      0.998044   262A      1.001352  
     263A      1.009644   264A      1.011999   265A      1.020277  
     266A      1.021292   267A      1.026919   268A      1.030121  
     269A      1.034008   270A      1.037818   271A      1.042714  
     272A      1.047973   273A      1.053222   274A      1.058319  
     275A      1.069526   276A      1.072441   277A      1.073288  
     278A      1.079817   279A      1.082230   280A      1.085866  
     281A      1.087815   282A      1.091681   283A      1.098372  
     284A      1.102953   285A      1.105965   286A      1.111481  
[...]
	 B(3,9,4)         =         2.041686	     116.979970
	 B(3,9,8)         =         2.104279	     120.566308
	 B(4,7,12)        =         2.161566	     123.848627
	 B(4,7,21)        =         2.093427	     119.944549
	 B(4,9,8)         =         2.136934	     122.437319
	 B(5,10,13)       =         2.085531	     119.492128
	 B(5,11,8)        =         2.147422	     123.038245
	 B(5,11,14)       =         2.053222	     117.640959
	 B(6,3,9)         =         2.086605	     119.553636
	 B(6,3,17)        =         2.094287	     119.993799
	 B(6,12,7)        =         2.036604	     116.688834
	 B(7,4,9)         =         2.082388	     119.312067
	 B(7,4,18)        =         2.094618	     120.012756
	 B(8,1,15)        =         2.067102	     118.436210
	 B(8,11,14)       =         2.082208	     119.301705
	 B(9,3,17)        =         2.102088	     120.440768
	 B(9,4,18)        =         2.106087	     120.669888
	 B(9,8,11)        =         2.142381	     122.749370
	 B(10,2,16)       =         2.083495	     119.375458
	 B(10,5,11)       =         2.076659	     118.983801
	 B(10,5,19)       =         2.108865	     120.829072
	 B(10,13,22)      =         1.900653	     108.899394
	 B(11,5,19)       =         2.097590	     120.183053
	 B(12,6,20)       =         2.029783	     116.297994
	 B(12,7,21)       =         2.028189	     116.206684
	 D(1,2,10,5)      =        -0.015434	      -0.884310
	 D(1,2,10,13)     =        -3.093172	    -177.225704
	 D(1,8,9,3)       =        -0.688955	     -39.474199
	 D(1,8,9,4)       =         2.426140	     139.007606
	 D(1,8,11,5)      =        -0.001787	      -0.102369
	 D(1,8,11,14)     =         3.111389	     178.269451
	 D(2,1,8,9)       =         3.136066	     179.683322
	 D(2,1,8,11)      =         0.004768	       0.273197
	 D(2,10,5,11)     =         0.018208	       1.043237
	 D(2,10,5,19)     =        -3.110594	    -178.223888
	 D(2,10,13,22)    =        -1.570600	     -89.988765
	 D(3,6,12,7)      =         0.001834	       0.105087
	 D(3,9,4,7)       =         0.006767	       0.387727
	 D(3,9,4,18)      =         3.133761	     179.551259
	 D(3,9,8,11)      =         2.441672	     139.897494
	 D(4,7,12,6)      =        -0.000162	      -0.009271
	 D(4,9,3,6)       =        -0.005251	      -0.300843
	 D(4,9,3,17)      =         3.114535	     178.449715
	 D(4,9,8,11)      =        -0.726418	     -41.620701
	 D(5,10,2,16)     =         3.128048	     179.223960
	 D(5,10,13,22)    =         1.634528	      93.651547
	 D(5,11,8,9)      =        -3.132872	    -179.500332
	 D(6,3,9,8)       =         3.111248	     178.261366
	 D(6,12,7,21)     =        -3.139372	    -179.872779
	 D(7,4,9,8)       =        -3.109224	    -178.145409
	 D(7,12,6,20)     =        -3.134151	    -179.573627
	 D(8,1,2,10)      =         0.003745	       0.214561
	 D(8,1,2,16)      =        -3.139769	    -179.895540
	 D(8,9,3,17)      =        -0.052152	      -2.988075
	 D(8,9,4,18)      =         0.017770	       1.018123
	 D(8,11,5,10)     =        -0.009633	      -0.551950
	 D(8,11,5,19)     =         3.119253	     178.720027
	 D(9,3,6,12)      =         0.000969	       0.055506
	 D(9,3,6,20)      =         3.136752	     179.722627
	 D(9,4,7,12)      =        -0.004268	      -0.244562
	 D(9,4,7,21)      =         3.134858	     179.614111
	 D(9,8,1,15)      =        -0.028259	      -1.619132
	 D(9,8,11,14)     =        -0.019696	      -1.128512
	 D(10,2,1,15)     =        -3.114868	    -178.468778
	 D(10,5,11,14)    =        -3.123252	    -178.949172
	 D(11,5,10,13)    =         3.096536	     177.418423
	 D(11,8,1,15)     =         3.123629	     178.970743
	 D(12,6,3,17)     =        -3.118916	    -178.700717
	 D(12,7,4,18)     =        -3.131360	    -179.413691
	 D(13,10,2,16)    =         0.050310	       2.882567
	 D(13,10,5,19)    =        -0.032266	      -1.848702
	 D(14,11,5,19)    =         0.005634	       0.322806
	 D(15,1,2,16)     =         0.024803	       1.421122
	 D(17,3,6,20)     =         0.016867	       0.966404
	 D(18,4,7,21)     =         0.007766	       0.444982
	 R(4,14)          =         5.431310	       2.874126

	Current energy   :      -652.8704496810

	Energy change for the previous step:
		Projected    :         0.0000000674
		Actual       :        -0.0000000691

	Performing BFGS update.
	Previous computed or guess Hessian on step 1.
	Steps to be used in Hessian update: 11 10
	Adding user-defined constraint: Fragment 1; Coordinate 69:
		Value =    -1.570600; Fixed value    =    -1.570800
		Force =    -0.000155; Force constant =     0.775000
	Removing off-diagonal coupling between coordinate 69 and others.
	Taking RFO optimization step.
	Going to follow RFO solution 1.
	Using RFO vector 1.
	Norm of target step-size    0.00135
	Projected energy change by RFO approximation:        -0.0000001459

	Back-transformation to cartesian coordinates...
	Successfully converged to displaced geometry.

	--- Internal Coordinate Step in ANG or DEG, aJ/ANG or AJ/DEG ---
	 ---------------------------------------------------------------------------
	   Coordinate                Previous        Force       Change         New 
	   ----------                --------       ------       ------       ------
	    1 R(1,2)          =      1.384380     0.000035     0.000013     1.384394
	    2 R(1,8)          =      1.395197     0.000038    -0.000014     1.395182
	    3 R(1,15)         =      1.079639    -0.000002    -0.000005     1.079634
	    4 R(2,10)         =      1.386522     0.000050     0.000000     1.386522
	    5 R(2,16)         =      1.078346     0.000011    -0.000003     1.078343
	    6 R(3,6)          =      1.385405     0.000045     0.000011     1.385416
	    7 R(3,9)          =      1.391772     0.000015    -0.000009     1.391763
	    8 R(3,17)         =      1.079625    -0.000003    -0.000008     1.079617
	    9 R(4,7)          =      1.385645     0.000012     0.000004     1.385648
	   10 R(4,9)          =      1.391669     0.000083     0.000006     1.391675
	   11 R(4,18)         =      1.077877    -0.000005    -0.000013     1.077864
	   12 R(5,10)         =      1.385620     0.000083     0.000010     1.385631
	   13 R(5,11)         =      1.379076     0.000043     0.000007     1.379083
	   14 R(5,19)         =      1.077636     0.000009    -0.000006     1.077631
	   15 R(6,12)         =      1.334727     0.000014    -0.000001     1.334727
	   16 R(6,20)         =      1.081022     0.000009    -0.000001     1.081021
	   17 R(7,12)         =      1.335100     0.000060     0.000014     1.335113
	   18 R(7,21)         =      1.080877     0.000017    -0.000002     1.080875
	   19 R(8,9)          =      1.461894     0.000060     0.000007     1.461901
	   20 R(8,11)         =      1.389599     0.000191     0.000021     1.389620
	   21 R(10,13)        =      1.378664     0.000117     0.000032     1.378697
	   22 R(11,14)        =      1.346187     0.000036    -0.000009     1.346178
	   23 R(13,22)        =      0.961301     0.000044     0.000000     0.961301
	   24 B(1,2,10)       =    119.599058    -0.000000    -0.000357   119.598701
	   25 B(1,2,16)       =    121.025393     0.000000     0.002479   121.027872
	   26 B(1,8,9)        =    120.864303     0.000000     0.008367   120.872670
	   27 B(1,8,11)       =    116.383551     0.000000     0.003147   116.386698
	   28 B(2,1,8)        =    121.993560    -0.000000    -0.002930   121.990630
	   29 B(2,1,15)       =    119.557538     0.000000     0.002131   119.559669
	   30 B(2,10,5)       =    119.994119     0.000001     0.004294   119.998414
	   31 B(2,10,13)      =    120.413504    -0.000001    -0.002947   120.410558
	   32 B(3,6,12)       =    123.615801     0.000000    -0.000494   123.615307
	   33 B(3,6,20)       =    120.085428    -0.000000    -0.000516   120.084912
	   34 B(3,9,4)        =    116.979970     0.000000     0.001342   116.981312
	   35 B(3,9,8)        =    120.566308     0.000001     0.004620   120.570928
	   36 B(4,7,12)       =    123.848627     0.000000    -0.000206   123.848421
	   37 B(4,7,21)       =    119.944549     0.000000     0.000363   119.944911
	   38 B(4,9,8)        =    122.437319    -0.000001    -0.005827   122.431492
	   39 B(5,10,13)      =    119.492128    -0.000000    -0.001130   119.490998
	   40 B(5,11,8)       =    123.038245    -0.000000     0.000409   123.038653
	   41 B(5,11,14)      =    117.640959    -0.000000     0.002823   117.643782
	   42 B(6,3,9)        =    119.553636    -0.000000    -0.000273   119.553364
	   43 B(6,3,17)       =    119.993799     0.000000     0.000584   119.994383
	   44 B(6,12,7)       =    116.688834    -0.000000     0.000546   116.689380
	   45 B(7,4,9)        =    119.312067    -0.000000    -0.000921   119.311147
	   46 B(7,4,18)       =    120.012756     0.000000    -0.002397   120.010359
	   47 B(8,1,15)       =    118.436210    -0.000000     0.000838   118.437048
	   48 B(8,11,14)      =    119.301705     0.000000    -0.003506   119.298199
	   49 B(9,3,17)       =    120.440768    -0.000000    -0.000266   120.440502
	   50 B(9,4,18)       =    120.669888     0.000000     0.003254   120.673142
	   51 B(9,8,11)       =    122.749370    -0.000001    -0.011410   122.737959
	   52 B(10,2,16)      =    119.375458    -0.000000    -0.002118   119.373341
	   53 B(10,5,11)      =    118.983801    -0.000001    -0.004539   118.979262
	   54 B(10,5,19)      =    120.829072     0.000000    -0.000064   120.829008
	   55 B(10,13,22)     =    108.899394    -0.000000    -0.001989   108.897406
	   56 B(11,5,19)      =    120.183053     0.000000     0.004605   120.187658
	   57 B(12,6,20)      =    116.297994    -0.000000     0.000989   116.298983
	   58 B(12,7,21)      =    116.206684    -0.000000    -0.000172   116.206512
	   59 D(1,2,10,5)     =     -0.884310    -0.000000     0.004405    -0.879905
	   60 D(1,2,10,13)    =   -177.225704     0.000000     0.000469  -177.225235
	   61 D(1,8,9,3)      =    -39.474199    -0.000000    -0.004989   -39.479188
	   62 D(1,8,9,4)      =    139.007606    -0.000000     0.001278   139.008884
	   63 D(1,8,11,5)     =     -0.102369     0.000000     0.008336    -0.094032
	   64 D(1,8,11,14)    =    178.269451    -0.000000    -0.003281   178.266170
	   65 D(2,1,8,9)      =    179.683322     0.000000     0.008084   179.691406
	   66 D(2,1,8,11)     =      0.273197    -0.000000    -0.002949     0.270248
	   67 D(2,10,5,11)    =      1.043237     0.000000     0.000644     1.043880
	   68 D(2,10,5,19)    =   -178.223888     0.000000     0.000504  -178.223384
	   69 D(2,10,13,22)   =    -89.988765    -0.000000     0.001203   -89.987562
	   70 D(3,6,12,7)     =      0.105087     0.000000     0.000212     0.105299
	   71 D(3,9,4,7)      =      0.387727     0.000000     0.000689     0.388416
	   72 D(3,9,4,18)     =    179.551259    -0.000000    -0.004359   179.546900
	   73 D(3,9,8,11)     =    139.897494    -0.000000     0.006859   139.904353
	   74 D(4,7,12,6)     =     -0.009271    -0.000000    -0.001175    -0.010446
	   75 D(4,9,3,6)      =     -0.300843    -0.000000    -0.001573    -0.302416
	   76 D(4,9,3,17)     =    178.449715    -0.000000     0.000891   178.450606
	   77 D(4,9,8,11)     =    -41.620701    -0.000000     0.013126   -41.607575
	   78 D(5,10,2,16)    =    179.223960    -0.000000     0.001636   179.225596
	   79 D(5,10,13,22)   =     93.651547    -0.000000    -0.002911    93.648635
	   80 D(5,11,8,9)     =   -179.500332    -0.000000    -0.003051  -179.503383
	   81 D(6,3,9,8)      =    178.261366    -0.000000     0.004253   178.265619
	   82 D(6,12,7,21)    =   -179.872779     0.000000     0.006148  -179.866632
	   83 D(7,4,9,8)      =   -178.145409     0.000000    -0.005418  -178.150827
	   84 D(7,12,6,20)    =   -179.573627     0.000000     0.004476  -179.569152
	   85 D(8,1,2,10)     =      0.214561    -0.000000    -0.003254     0.211307
	   86 D(8,1,2,16)     =   -179.895540    -0.000000    -0.000443  -179.895982
	   87 D(8,9,3,17)     =     -2.988075    -0.000000     0.006716    -2.981359
	   88 D(8,9,4,18)     =      1.018123    -0.000000    -0.010467     1.007657
	   89 D(8,11,5,10)    =     -0.551950    -0.000000    -0.007285    -0.559235
	   90 D(8,11,5,19)    =    178.720027    -0.000000    -0.007180   178.712847
	   91 D(9,3,6,12)     =      0.055506    -0.000000     0.001176     0.056682
	   92 D(9,3,6,20)     =    179.722627    -0.000000    -0.003237   179.719390
	   93 D(9,4,7,12)     =     -0.244562    -0.000000     0.000728    -0.243834
	   94 D(9,4,7,21)     =    179.614111    -0.000000    -0.006855   179.607256
	   95 D(9,8,1,15)     =     -1.619132     0.000000     0.010132    -1.609000
	   96 D(9,8,11,14)    =     -1.128512    -0.000000    -0.014669    -1.143181
	   97 D(10,2,1,15)    =   -178.468778    -0.000000    -0.005307  -178.474085
	   98 D(10,5,11,14)   =   -178.949172     0.000000     0.004248  -178.944924
	   99 D(11,5,10,13)   =    177.418423    -0.000000     0.004474   177.422897
	  100 D(11,8,1,15)    =    178.970743    -0.000000    -0.000901   178.969843
	  101 D(12,6,3,17)    =   -178.700717    -0.000000    -0.001266  -178.701983
	  102 D(12,7,4,18)    =   -179.413691     0.000000     0.005694  -179.407996
	  103 D(13,10,2,16)   =      2.882567     0.000000    -0.002300     2.880266
	  104 D(13,10,5,19)   =     -1.848702     0.000000     0.004334    -1.844367
	  105 D(14,11,5,19)   =      0.322806     0.000000     0.004353     0.327158
	  106 D(15,1,2,16)    =      1.421122    -0.000000    -0.002496     1.418626
	  107 D(17,3,6,20)    =      0.966404    -0.000000    -0.005679     0.960725
	  108 D(18,4,7,21)    =      0.444982    -0.000000    -0.001889     0.443093
	  109 R(4,14)         =      2.874126    -0.000103    -0.000596     2.873530
	 ---------------------------------------------------------------------------
	Successfully symmetrized geometry.
	 Forces used to impose fixed constraints are not included.
	  Forces zeroed: 69 

  ==> Convergence Check <==

  Measures of convergence in internal coordinates in au.
  Criteria marked as inactive (o), active & met (*), and active & unmet ( ).
  ---------------------------------------------------------------------------------------------
   Step     Total Energy     Delta E     MAX Force     RMS Force      MAX Disp      RMS Disp   
  ---------------------------------------------------------------------------------------------
    Convergence Criteria    1.00e-06 *    3.00e-04 *             o    1.20e-03 *             o
  ---------------------------------------------------------------------------------------------
     12    -652.87044968   -6.91e-08 *    2.31e-05 *    4.54e-06 o    1.13e-03 *    1.30e-04 o  ~
  ---------------------------------------------------------------------------------------------


  **** Optimization is complete! (in 12 steps) ****

  ==> Optimization Summary <==

  Measures of convergence in internal coordinates in au.
  --------------------------------------------------------------------------------------------------------------- ~
   Step         Total Energy             Delta E       MAX Force       RMS Force        MAX Disp        RMS Disp  ~
  --------------------------------------------------------------------------------------------------------------- ~
      1    -652.865420655811   -652.865420655811      0.01597517      0.00455529      0.03025805      0.00958655  ~
      2    -652.868459204414     -0.003038548604      0.00520989      0.00158301      0.03581703      0.00957036  ~
      3    -652.869268867499     -0.000809663085      0.00186546      0.00047687      0.04967611      0.00955558  ~
      4    -652.869586511789     -0.000317644290      0.00132863      0.00029246      0.05080224      0.00954224  ~
      5    -652.869830814324     -0.000244302534      0.00109721      0.00027855      0.04865766      0.00953104  ~
      6    -652.870037095313     -0.000206280989      0.00097844      0.00026299      0.04593944      0.00952327  ~
      7    -652.870209267742     -0.000172172429      0.00092988      0.00020754      0.04830683      0.00951940  ~
      8    -652.870340745495     -0.000131477753      0.00077760      0.00014436      0.05338733      0.00951932  ~
      9    -652.870423397162     -0.000082651668      0.00045699      0.00009172      0.05511667      0.00952016  ~
     10    -652.870448489380     -0.000025092218      0.00025631      0.00006640      0.00664280      0.00133404  ~
     11    -652.870449611903     -0.000001122523      0.00004495      0.00001059      0.00195783      0.00022780  ~
     12    -652.870449681003     -0.000000069099      0.00002313      0.00000458      0.00112561      0.00012954  ~
  --------------------------------------------------------------------------------------------------------------- ~

	Writing optimization data to binary file.
	Final energy is   -652.8704496810028
	Final (previous) structure:
	Cartesian Geometry (in Angstrom)
	    C    -1.4163451668   0.5528444907  -0.7438078261
	    C    -2.4975279258   1.1250307453  -0.0956135981
	    C     0.6234966626  -1.3634283419  -1.8148846188
	    C     2.1683249276  -0.1892906758  -0.4488216677
	    C    -1.3567760334   0.8661227184   2.0007853911
	    C     1.7048965972  -1.8989304838  -2.4954425022
	    C     3.1843355291  -0.7730642037  -1.1883768451
	    C    -0.2811150673   0.1272816522  -0.0533566235
	    C     0.8439503939  -0.4801728973  -0.7621315941
	    C    -2.4620987449   1.2898734648   1.2806181001
	    C    -0.2946560077   0.3030139330   1.3250191533
	    N     2.9760465551  -1.6180840283  -2.2008233438
	    O    -3.5516345961   1.8050526632   1.9501087240
	    F     0.7559297986  -0.1189387613   2.0533351763
	    H    -1.4342543373   0.4474916704  -1.8181448579
	    H    -3.3679931289   1.4469684091  -0.6446824380
	    H    -0.3812922010  -1.6475161744  -2.0892627889
	    H     2.4070717297   0.4927564748   0.3509476249
	    H    -1.3269173467   0.9616855022   3.0737609284
	    H     1.5436842134  -2.5892671877  -3.3115643470
	    H     4.2164064266  -0.5494631540  -0.9578834281
	    H    -3.4675247621   2.7617498317   1.9920037313
	Saving final (previous) structure.
			--------------------------
			 OPTKING Finished Execution 
			--------------------------

    Final optimized geometry and variables:
    Molecular point group: c1
    Full point group: C1

    Geometry (in Angstrom), charge = 0, multiplicity = 1:

    C           -1.416345166772     0.552844490657    -0.743807826110
    C           -2.497527925796     1.125030745278    -0.095613598099
    C            0.623496662555    -1.363428341909    -1.814884618843
    C            2.168324927613    -0.189290675796    -0.448821667701
    C           -1.356776033405     0.866122718390     2.000785391132
    C            1.704896597196    -1.898930483769    -2.495442502169
    C            3.184335529086    -0.773064203741    -1.188376845085
    C           -0.281115067347     0.127281652151    -0.053356623528
    C            0.843950393907    -0.480172897286    -0.762131594084
    C           -2.462098744897     1.289873464825     1.280618100104
    C           -0.294656007691     0.303013932985     1.325019153303
    N            2.976046555138    -1.618084028297    -2.200823343815
    O           -3.551634596050     1.805052663201     1.950108724039
    F            0.755929798619    -0.118938761270     2.053335176260
    H           -1.434254337327     0.447491670444    -1.818144857900
    H           -3.367993128897     1.446968409125    -0.644682438043
    H           -0.381292200997    -1.647516174352    -2.089262788895
    H            2.407071729734     0.492756474756     0.350947624919
    H           -1.326917346654     0.961685502188     3.073760928363
    H            1.543684213359    -2.589267187669    -3.311564346951
    H            4.216406426607    -0.549463154039    -0.957883428127
    H           -3.467524762061     2.761749831686     1.992003731345

	Cleaning optimization helper files.

*** Psi4 exiting successfully. Buy a developer a beer!
