
    -----------------------------------------------------------------------
          Psi4: An Open-Source Ab Initio Electronic Structure Package
                               Psi4 1.1 release

                         Git: Rev {HEAD} add49b9 


    R. M. Parrish, L. A. Burns, D. G. A. Smith, A. C. Simmonett,
    A. E. DePrince III, E. G. Hohenstein, U. Bozkaya, A. Yu. Sokolov,
    R. Di Remigio, R. M. Richard, J. F. Gonthier, A. M. James,
    H. R. McAlexander, A. Kumar, M. Saitow, X. Wang, B. P. Pritchard,
    P. Verma, H. F. Schaefer III, K. Patkowski, R. A. King, E. F. Valeev,
    F. A. Evangelista, J. M. Turney, T. D. Crawford, and C. D. Sherrill,
    J. Chem. Theory Comput. in press (2017).
    (doi: 10.1021/acs.jctc.7b00174)

    -----------------------------------------------------------------------


    Psi4 started on: Saturday, 11 November 2017 10:51PM

    Process ID:   5385
    PSIDATADIR: /cbio/jclab/home/chayas/anaconda/envs/py35/share/psi4
    Memory:     500.0 MiB
    Threads:    8
    
  ==> Input File <==

--------------------------------------------------------------------------

memory 5 Gb

molecule phepyrFOH_neutral {
  symmetry C1
  0 1 
  C      1.885   -1.036   -0.112
  C      0.807   -0.463   0.561
  C      4.831   -1.446   -0.930
  C      4.323   -3.576   0.064
  C      1.800   -1.079   2.676
  C      5.889   -2.061   -1.579
  C      5.403   -4.097   -0.630
  C      2.921   -1.631   0.608
  C      4.038   -2.225   -0.095
  C      0.764   -0.484   1.955
  C      2.878   -1.652   2.002
  N      6.197   -3.372   -1.450
  O      -0.289   0.076   2.612
  F      3.866   -2.220   2.709
  H      1.904   -1.012   -1.199
  H      0.002   -0.002   -0.006
  H      4.640   -0.388   -1.078
  H      3.726   -4.215   0.706
  H      1.772   -1.099   3.762
  H      6.538   -1.497   -2.240
  H      5.667   -5.145   -0.542
  H      -0.175   -0.018   3.571
  units Angstrom
}

dih_string = "1 8 9 3 60"
set optking fixed_dihedral = $dih_string

optimize('MP2/aug-cc-PVTZ')
--------------------------------------------------------------------------

  Memory set to   4.657 GiB by Python driver.
gradient() will perform analytic gradient computation.

*** tstart() called on gpu-2-8.local
*** at Sat Nov 11 22:51:38 2017

    SCF Algorithm Type (re)set to DF.

*** tstart() called on gpu-2-8.local
*** at Sat Nov 11 22:51:39 2017

   => Loading Basis Set <=

    Name: AUG-CC-PVTZ
    Role: ORBITAL
    Keyword: BASIS
    atoms 1-11  entry C          line   221 file /cbio/jclab/home/chayas/anaconda/envs/py35/share/psi4/basis/aug-cc-pvtz.gbs 
    atoms 12    entry N          line   267 file /cbio/jclab/home/chayas/anaconda/envs/py35/share/psi4/basis/aug-cc-pvtz.gbs 
    atoms 13    entry O          line   313 file /cbio/jclab/home/chayas/anaconda/envs/py35/share/psi4/basis/aug-cc-pvtz.gbs 
    atoms 14    entry F          line   359 file /cbio/jclab/home/chayas/anaconda/envs/py35/share/psi4/basis/aug-cc-pvtz.gbs 
    atoms 15-22 entry H          line    34 file /cbio/jclab/home/chayas/anaconda/envs/py35/share/psi4/basis/aug-cc-pvtz.gbs 


         ---------------------------------------------------------
                                   SCF
            by Justin Turney, Rob Parrish, and Andy Simmonett
                              RHF Reference
                        8 Threads,   4768 MiB Core
         ---------------------------------------------------------

  ==> Geometry <==

    Molecular point group: c1
    Full point group: C1

    Geometry (in Angstrom), charge = 0, multiplicity = 1:

       Center              X                  Y                   Z               Mass       
    ------------   -----------------  -----------------  -----------------  -----------------
           C         -1.322108634284     0.755292077932    -0.800558656794    12.000000000000
           C         -2.400108634284     1.328292077932    -0.127558656794    12.000000000000
           C          1.623891365716     0.345292077932    -1.618558656794    12.000000000000
           C          1.115891365716    -1.784707922068    -0.624558656794    12.000000000000
           C         -1.407108634284     0.712292077932     1.987441343206    12.000000000000
           C          2.681891365716    -0.269707922068    -2.267558656794    12.000000000000
           C          2.195891365716    -2.305707922068    -1.318558656794    12.000000000000
           C         -0.286108634284     0.160292077932    -0.080558656794    12.000000000000
           C          0.830891365716    -0.433707922068    -0.783558656794    12.000000000000
           C         -2.443108634284     1.307292077932     1.266441343206    12.000000000000
           C         -0.329108634284     0.139292077932     1.313441343206    12.000000000000
           N          2.989891365716    -1.580707922068    -2.138558656794    14.003074004780
           O         -3.496108634284     1.867292077932     1.923441343206    15.994914619560
           F          0.658891365716    -0.428707922068     2.020441343206    18.998403224000
           H         -1.303108634284     0.779292077932    -1.887558656794     1.007825032070
           H         -3.205108634284     1.789292077932    -0.694558656794     1.007825032070
           H          1.432891365716     1.403292077932    -1.766558656794     1.007825032070
           H          0.518891365716    -2.423707922068     0.017441343206     1.007825032070
           H         -1.435108634284     0.692292077932     3.073441343206     1.007825032070
           H          3.330891365716     0.294292077932    -2.928558656794     1.007825032070
           H          2.459891365716    -3.353707922068    -1.230558656794     1.007825032070
           H         -3.382108634284     1.773292077932     2.882441343206     1.007825032070

  Running in c1 symmetry.

  Rotational constants: A =      0.06328  B =      0.01308  C =      0.01165 [cm^-1]
  Rotational constants: A =   1897.09385  B =    392.03849  C =    349.25766 [MHz]
  Nuclear repulsion =  814.049537294977426

  Charge       = 0
  Multiplicity = 1
  Electrons    = 98
  Nalpha       = 49
  Nbeta        = 49

  ==> Algorithm <==

  SCF Algorithm Type is DF.
  DIIS enabled.
  MOM disabled.
  Fractional occupation disabled.
  Guess Type is SAD.
  Energy threshold   = 1.00e-10
  Density threshold  = 1.00e-10
  Integral threshold = 0.00e+00

  ==> Primary Basis <==

  Basis Set: AUG-CC-PVTZ
    Blend: AUG-CC-PVTZ
    Number of shells: 268
    Number of basis function: 828
    Number of Cartesian functions: 970
    Spherical Harmonics?: true
    Max angular momentum: 3

   => Loading Basis Set <=

    Name: (AUG-CC-PVTZ AUX)
    Role: JKFIT
    Keyword: DF_BASIS_SCF
    atoms 1-11  entry C          line   161 file /cbio/jclab/home/chayas/anaconda/envs/py35/share/psi4/basis/aug-cc-pvtz-jkfit.gbs 
    atoms 12    entry N          line   223 file /cbio/jclab/home/chayas/anaconda/envs/py35/share/psi4/basis/aug-cc-pvtz-jkfit.gbs 
    atoms 13    entry O          line   285 file /cbio/jclab/home/chayas/anaconda/envs/py35/share/psi4/basis/aug-cc-pvtz-jkfit.gbs 
    atoms 14    entry F          line   347 file /cbio/jclab/home/chayas/anaconda/envs/py35/share/psi4/basis/aug-cc-pvtz-jkfit.gbs 
    atoms 15-22 entry H          line    69 file /cbio/jclab/home/chayas/anaconda/envs/py35/share/psi4/basis/aug-cc-pvtz-jkfit.gbs 

  ==> Pre-Iterations <==

   -------------------------------------------------------
    Irrep   Nso     Nmo     Nalpha   Nbeta   Ndocc  Nsocc
   -------------------------------------------------------
     A        828     828       0       0       0       0
   -------------------------------------------------------
    Total     828     828      49      49      49       0
   -------------------------------------------------------

  ==> Integral Setup <==

  ==> DFJK: Density-Fitted J/K Matrices <==

    J tasked:                  Yes
    K tasked:                  Yes
    wK tasked:                  No
    OpenMP threads:              8
    Integrals threads:           8
    Memory (MB):              3576
    Algorithm:                Disk
    Integral Cache:           NONE
    Schwarz Cutoff:          1E-12
    Fitting Condition:       1E-12

   => Auxiliary Basis Set <=

  Basis Set: (AUG-CC-PVTZ AUX)
    Blend: AUG-CC-PVTZ-JKFIT
    Number of shells: 532
    Number of basis function: 1824
    Number of Cartesian functions: 2274
    Spherical Harmonics?: true
    Max angular momentum: 4

  Minimum eigenvalue in the overlap matrix is 7.2421744494E-07.
  Using Symmetric Orthogonalization.

  SCF Guess: Superposition of Atomic Densities via on-the-fly atomic UHF.

  ==> Iterations <==

                           Total Energy        Delta E     RMS |[F,P]|

   @DF-RHF iter   0:  -657.01879882956030   -6.57019e+02   1.81295e-02 
   @DF-RHF iter   1:  -649.76652615567980    7.25227e+00   2.31028e-03 
   @DF-RHF iter   2:  -650.09430221316609   -3.27776e-01   1.01103e-03 DIIS
   @DF-RHF iter   3:  -650.15651871255386   -6.22165e-02   3.16613e-04 DIIS
   @DF-RHF iter   4:  -650.17168310749446   -1.51644e-02   1.24056e-04 DIIS
   @DF-RHF iter   5:  -650.17319224809069   -1.50914e-03   5.09961e-05 DIIS
   @DF-RHF iter   6:  -650.17347310745765   -2.80859e-04   2.07737e-05 DIIS
   @DF-RHF iter   7:  -650.17351815072925   -4.50433e-05   7.85107e-06 DIIS
   @DF-RHF iter   8:  -650.17352337949978   -5.22877e-06   1.93561e-06 DIIS
   @DF-RHF iter   9:  -650.17352418896905   -8.09469e-07   9.80519e-07 DIIS
   @DF-RHF iter  10:  -650.17352438176113   -1.92792e-07   2.85010e-07 DIIS
   @DF-RHF iter  11:  -650.17352443056234   -4.88012e-08   2.04807e-07 DIIS
   @DF-RHF iter  12:  -650.17352444047219   -9.90985e-09   7.28007e-08 DIIS
   @DF-RHF iter  13:  -650.17352444143989   -9.67702e-10   2.76670e-08 DIIS
   @DF-RHF iter  14:  -650.17352444153858   -9.86802e-11   7.10123e-09 DIIS
   @DF-RHF iter  15:  -650.17352444153892   -3.41061e-13   3.12625e-09 DIIS
   @DF-RHF iter  16:  -650.17352444153812    7.95808e-13   1.11635e-09 DIIS
   @DF-RHF iter  17:  -650.17352444155131   -1.31877e-11   3.83551e-10 DIIS
   @DF-RHF iter  18:  -650.17352444153903    1.22782e-11   1.91917e-10 DIIS
   @DF-RHF iter  19:  -650.17352444154540   -6.36646e-12   7.96969e-11 DIIS

  ==> Post-Iterations <==

    Orbital Energies (a.u.)
    -----------------------

    Doubly Occupied:                                                      

       1A    -26.327685     2A    -20.609295     3A    -15.565395  
       4A    -11.349737     5A    -11.327961     6A    -11.274978  
       7A    -11.274168     8A    -11.265365     9A    -11.265228  
      10A    -11.254340    11A    -11.252856    12A    -11.245884  
      13A    -11.239615    14A    -11.238247    15A     -1.645880  
      16A     -1.423909    17A     -1.250194    18A     -1.181842  
      19A     -1.110274    20A     -1.041492    21A     -1.034564  
      22A     -1.019597    23A     -0.892001    24A     -0.877020  
      25A     -0.853775    26A     -0.824849    27A     -0.773151  
      28A     -0.747470    29A     -0.725070    30A     -0.712121  
      31A     -0.697230    32A     -0.664612    33A     -0.661242  
      34A     -0.642015    35A     -0.635746    36A     -0.614192  
      37A     -0.608637    38A     -0.599349    39A     -0.577916  
      40A     -0.543538    41A     -0.534054    42A     -0.533318  
      43A     -0.521856    44A     -0.494675    45A     -0.419479  
      46A     -0.387192    47A     -0.360139    48A     -0.349286  
      49A     -0.324284  

    Virtual:                                                              

      50A      0.021872    51A      0.029151    52A      0.034371  
      53A      0.036715    54A      0.044649    55A      0.047123  
      56A      0.052844    57A      0.054602    58A      0.076412  
      59A      0.082391    60A      0.082844    61A      0.085587  
      62A      0.092329    63A      0.095304    64A      0.097198  
      65A      0.101214    66A      0.104295    67A      0.108387  
      68A      0.110212    69A      0.112835    70A      0.113129  
      71A      0.118621    72A      0.120902    73A      0.125193  
      74A      0.129500    75A      0.131573    76A      0.133768  
      77A      0.135500    78A      0.140458    79A      0.143329  
      80A      0.147152    81A      0.151610    82A      0.154218  
      83A      0.155597    84A      0.155953    85A      0.166967  
      86A      0.171465    87A      0.173343    88A      0.182799  
      89A      0.185843    90A      0.193541    91A      0.200514  
      92A      0.208261    93A      0.213445    94A      0.216379  
      95A      0.225269    96A      0.228546    97A      0.235656  
      98A      0.236241    99A      0.239914   100A      0.241493  
     101A      0.244392   102A      0.249005   103A      0.253529  
     104A      0.257337   105A      0.260619   106A      0.264497  
     107A      0.266858   108A      0.268934   109A      0.272533  
     110A      0.278865   111A      0.281922   112A      0.285320  
     113A      0.291290   114A      0.293797   115A      0.300386  
     116A      0.301434   117A      0.309800   118A      0.313502  
     119A      0.317665   120A      0.318896   121A      0.322875  
     122A      0.326985   123A      0.328841   124A      0.331228  
     125A      0.335944   126A      0.344771   127A      0.347801  
     128A      0.350089   129A      0.353794   130A      0.360094  
     131A      0.368320   132A      0.376549   133A      0.382211  
     134A      0.385943   135A      0.390226   136A      0.395644  
     137A      0.401130   138A      0.404193   139A      0.406660  
     140A      0.413112   141A      0.415940   142A      0.419045  
     143A      0.424530   144A      0.427283   145A      0.429720  
     146A      0.436638   147A      0.442783   148A      0.446012  
     149A      0.447823   150A      0.450977   151A      0.458903  
     152A      0.463253   153A      0.467245   154A      0.469397  
     155A      0.474241   156A      0.476066   157A      0.479260  
     158A      0.485394   159A      0.485648   160A      0.488314  
     161A      0.493415   162A      0.496639   163A      0.498063  
     164A      0.502035   165A      0.509423   166A      0.511190  
     167A      0.511556   168A      0.513090   169A      0.522357  
     170A      0.522819   171A      0.524504   172A      0.530113  
     173A      0.535152   174A      0.540720   175A      0.544595  
     176A      0.546984   177A      0.550908   178A      0.554703  
     179A      0.558806   180A      0.563267   181A      0.573796  
     182A      0.576103   183A      0.580403   184A      0.584144  
     185A      0.591000   186A      0.594268   187A      0.604442  
     188A      0.612640   189A      0.621921   190A      0.626973  
     191A      0.627878   192A      0.636809   193A      0.641197  
     194A      0.643879   195A      0.648784   196A      0.656888  
     197A      0.657679   198A      0.671936   199A      0.679369  
     200A      0.682709   201A      0.695145   202A      0.696632  
     203A      0.702429   204A      0.705831   205A      0.709026  
     206A      0.716754   207A      0.719797   208A      0.725580  
     209A      0.733496   210A      0.736488   211A      0.738307  
     212A      0.739652   213A      0.746785   214A      0.756272  
     215A      0.764610   216A      0.767656   217A      0.773784  
     218A      0.779801   219A      0.788915   220A      0.791491  
     221A      0.799548   222A      0.805197   223A      0.811192  
     224A      0.820944   225A      0.822922   226A      0.829067  
     227A      0.832135   228A      0.837333   229A      0.853033  
     230A      0.854773   231A      0.855499   232A      0.861824  
     233A      0.864472   234A      0.870834   235A      0.873674  
     236A      0.879812   237A      0.886385   238A      0.888305  
     239A      0.893437   240A      0.898143   241A      0.903691  
     242A      0.907590   243A      0.912039   244A      0.922851  
     245A      0.928132   246A      0.931581   247A      0.933046  
     248A      0.933906   249A      0.942300   250A      0.945093  
     251A      0.949158   252A      0.956053   253A      0.958971  
     254A      0.962965   255A      0.965970   256A      0.971000  
     257A      0.973535   258A      0.986025   259A      0.989607  
     260A      0.992124   261A      0.997525   262A      1.003174  
     263A      1.008658   264A      1.010998   265A      1.019458  
     266A      1.022394   267A      1.024571   268A      1.028307  
     269A      1.031745   270A      1.036927   271A      1.044431  
     272A      1.046953   273A      1.051771   274A      1.052538  
     275A      1.060170   276A      1.064096   277A      1.071284  
     278A      1.073512   279A      1.080174   280A      1.083912  
     281A      1.087764   282A      1.093826   283A      1.098606  
     284A      1.102262   285A      1.108562   286A      1.112545  
     287A      1.119649   288A      1.124757   289A      1.128583  
     290A      1.130342   291A      1.134606   292A      1.145513  
     293A      1.147430   294A      1.154305   295A      1.156453  
     296A      1.159041   297A      1.165120   298A      1.167584  
     299A      1.173113   300A      1.180228   301A      1.186942  
     302A      1.189380   303A      1.198941   304A      1.202075  
     305A      1.204665   306A      1.214023   307A      1.219872  
     308A      1.223891   309A      1.227617   310A      1.232048  
     311A      1.240259   312A      1.244994   313A      1.250779  
     314A      1.259494   315A      1.261730   316A      1.269538  
     317A      1.272857   318A      1.280396   319A      1.286128  
     320A      1.297781   321A      1.299641   322A      1.307078  
     323A      1.310722   324A      1.316305   325A      1.326068  
     326A      1.329780   327A      1.343228   328A      1.349324  
     329A      1.352279   330A      1.357571   331A      1.370879  
     332A      1.373148   333A      1.378129   334A      1.383900  
     335A      1.390427   336A      1.402528   337A      1.405568  
     338A      1.412710   339A      1.417282   340A      1.429375  
     341A      1.435189   342A      1.443454   343A      1.448767  
     344A      1.464483   345A      1.470106   346A      1.476921  
     347A      1.485447   348A      1.491711   349A      1.498511  
     350A      1.505449   351A      1.513321   352A      1.514976  
     353A      1.525359   354A      1.536351   355A      1.553407  
     356A      1.556973   357A      1.564704   358A      1.567539  
     359A      1.569783   360A      1.584871   361A      1.587853  
     362A      1.599298   363A      1.603527   364A      1.605267  
     365A      1.623171   366A      1.634449   367A      1.640071  
     368A      1.643895   369A      1.646573   370A      1.651520  
     371A      1.660808   372A      1.667679   373A      1.676415  
     374A      1.686690   375A      1.689879   376A      1.698449  
     377A      1.703505   378A      1.714181   379A      1.726642  
     380A      1.727627   381A      1.729524   382A      1.739553  
     383A      1.743715   384A      1.749311   385A      1.761229  
     386A      1.770017   387A      1.781155   388A      1.787273  
     389A      1.791700   390A      1.798793   391A      1.809588  
     392A      1.811162   393A      1.821087   394A      1.823755  
     395A      1.833966   396A      1.849035   397A      1.860925  
     398A      1.872798   399A      1.880708   400A      1.881997  
     401A      1.889687   402A      1.894371   403A      1.902046  
     404A      1.902450   405A      1.911496   406A      1.923268  
     407A      1.929684   408A      1.940370   409A      1.941488  
     410A      1.949759   411A      1.950864   412A      1.960450  
     413A      1.974570   414A      1.981497   415A      1.992614  
     416A      2.000399   417A      2.008575   418A      2.015949  
     419A      2.019876   420A      2.028423   421A      2.035468  
     422A      2.048371   423A      2.052715   424A      2.058481  
     425A      2.067089   426A      2.080801   427A      2.086354  
     428A      2.090872   429A      2.099115   430A      2.107678  
     431A      2.115632   432A      2.119599   433A      2.121652  
     434A      2.130488   435A      2.138074   436A      2.145450  
     437A      2.156526   438A      2.169312   439A      2.177845  
     440A      2.189955   441A      2.196209   442A      2.196857  
     443A      2.212378   444A      2.219695   445A      2.225606  
     446A      2.234849   447A      2.248149   448A      2.256140  
     449A      2.265334   450A      2.270554   451A      2.280383  
     452A      2.286631   453A      2.299202   454A      2.303301  
     455A      2.316462   456A      2.325258   457A      2.337173  
     458A      2.339320   459A      2.355229   460A      2.363692  
     461A      2.376894   462A      2.383259   463A      2.411860  
     464A      2.415156   465A      2.421527   466A      2.430182  
     467A      2.442739   468A      2.452707   469A      2.464133  
     470A      2.467309   471A      2.477667   472A      2.496085  
     473A      2.514349   474A      2.533095   475A      2.549370  
     476A      2.560692   477A      2.567542   478A      2.575463  
     479A      2.579457   480A      2.585889   481A      2.590729  
     482A      2.611353   483A      2.613740   484A      2.629297  
     485A      2.639294   486A      2.669892   487A      2.678406  
     488A      2.690041   489A      2.714511   490A      2.723893  
     491A      2.740283   492A      2.753394   493A      2.762879  
     494A      2.790893   495A      2.811088   496A      2.825170  
     497A      2.828963   498A      2.838476   499A      2.843839  
     500A      2.870364   501A      2.878330   502A      2.895882  
     503A      2.918193   504A      2.944159   505A      2.968579  
     506A      2.978017   507A      3.022667   508A      3.037052  
     509A      3.057866   510A      3.060322   511A      3.066194  
     512A      3.081221   513A      3.114746   514A      3.122262  
     515A      3.133077   516A      3.156334   517A      3.158830  
     518A      3.172940   519A      3.183073   520A      3.191935  
     521A      3.201848   522A      3.206872   523A      3.234520  
     524A      3.256883   525A      3.264184   526A      3.266078  
     527A      3.283126   528A      3.290379   529A      3.295926  
     530A      3.314000   531A      3.330762   532A      3.341967  
     533A      3.354695   534A      3.366677   535A      3.378057  
     536A      3.394904   537A      3.400665   538A      3.413255  
     539A      3.415341   540A      3.425999   541A      3.436987  
     542A      3.444199   543A      3.449807   544A      3.454673  
     545A      3.457876   546A      3.479363   547A      3.489615  
     548A      3.493118   549A      3.494488   550A      3.506084  
     551A      3.523305   552A      3.540110   553A      3.543773  
     554A      3.550780   555A      3.557862   556A      3.561628  
     557A      3.566271   558A      3.578179   559A      3.581483  
     560A      3.592146   561A      3.597402   562A      3.612069  
     563A      3.618889   564A      3.627064   565A      3.631050  
     566A      3.637688   567A      3.653732   568A      3.654643  
     569A      3.665980   570A      3.678383   571A      3.687460  
     572A      3.704860   573A      3.711510   574A      3.716979  
     575A      3.732940   576A      3.738305   577A      3.745953  
     578A      3.756314   579A      3.761794   580A      3.780118  
     581A      3.782855   582A      3.791156   583A      3.804651  
     584A      3.807902   585A      3.819922   586A      3.825208  
     587A      3.826086   588A      3.847404   589A      3.850739  
     590A      3.865440   591A      3.874383   592A      3.884043  
     593A      3.890846   594A      3.897722   595A      3.906563  
     596A      3.916349   597A      3.920085   598A      3.928856  
     599A      3.934788   600A      3.944431   601A      3.948880  
     602A      3.954818   603A      3.960834   604A      3.967898  
     605A      3.980555   606A      3.983907   607A      4.005020  
     608A      4.019230   609A      4.024623   610A      4.032802  
     611A      4.039522   612A      4.044751   613A      4.060657  
     614A      4.070751   615A      4.080441   616A      4.082745  
     617A      4.089172   618A      4.108934   619A      4.113416  
     620A      4.116234   621A      4.123056   622A      4.137998  
     623A      4.144247   624A      4.154958   625A      4.156773  
     626A      4.180746   627A      4.186245   628A      4.197471  
     629A      4.203245   630A      4.213894   631A      4.217233  
     632A      4.225563   633A      4.235026   634A      4.238118  
     635A      4.248993   636A      4.266143   637A      4.286593  
     638A      4.290154   639A      4.304183   640A      4.305190  
     641A      4.313419   642A      4.320185   643A      4.325364  
     644A      4.342723   645A      4.350900   646A      4.355777  
     647A      4.362243   648A      4.372590   649A      4.377704  
     650A      4.391798   651A      4.409350   652A      4.418770  
     653A      4.421934   654A      4.426058   655A      4.439320  
     656A      4.446780   657A      4.458425   658A      4.463453  
     659A      4.468752   660A      4.481080   661A      4.485662  
     662A      4.508832   663A      4.520946   664A      4.527196  
     665A      4.533069   666A      4.546282   667A      4.571075  
     668A      4.581318   669A      4.588253   670A      4.598982  
     671A      4.604458   672A      4.611299   673A      4.620862  
     674A      4.641039   675A      4.656208   676A      4.678905  
     677A      4.684170   678A      4.702710   679A      4.719359  
     680A      4.723829   681A      4.739281   682A      4.743107  
     683A      4.759907   684A      4.771596   685A      4.793906  
     686A      4.803691   687A      4.817561   688A      4.848001  
     689A      4.861594   690A      4.864243   691A      4.891304  
     692A      4.900768   693A      4.915200   694A      4.938750  
     695A      4.956346   696A      4.966903   697A      4.970615  
     698A      4.974922   699A      4.984789   700A      5.009028  
     701A      5.017913   702A      5.024931   703A      5.036802  
     704A      5.038053   705A      5.042100   706A      5.057848  
     707A      5.069544   708A      5.097293   709A      5.101648  
     710A      5.115102   711A      5.125063   712A      5.134101  
     713A      5.144674   714A      5.166259   715A      5.173175  
     716A      5.180016   717A      5.185180   718A      5.189637  
     719A      5.191016   720A      5.206824   721A      5.232150  
     722A      5.270676   723A      5.274537   724A      5.295197  
     725A      5.308808   726A      5.311834   727A      5.334328  
     728A      5.354396   729A      5.366434   730A      5.380731  
     731A      5.398158   732A      5.430013   733A      5.438961  
     734A      5.456053   735A      5.459982   736A      5.467921  
     737A      5.471680   738A      5.495703   739A      5.529630  
     740A      5.554270   741A      5.562418   742A      5.575437  
     743A      5.597280   744A      5.614380   745A      5.642343  
     746A      5.692771   747A      5.709718   748A      5.743927  
     749A      5.753814   750A      5.765415   751A      5.797074  
     752A      5.802622   753A      5.836161   754A      5.847717  
     755A      5.877100   756A      5.881457   757A      5.909087  
     758A      5.958513   759A      6.016544   760A      6.044632  
     761A      6.080882   762A      6.111766   763A      6.131463  
     764A      6.180582   765A      6.232209   766A      6.258305  
     767A      6.285575   768A      6.306665   769A      6.318633  
     770A      6.365540   771A      6.391934   772A      6.462075  
     773A      6.494196   774A      6.514388   775A      6.529304  
     776A      6.572243   777A      6.686592   778A      6.697713  
     779A      6.709455   780A      6.717250   781A      6.742944  
     782A      6.840710   783A      6.872338   784A      6.886087  
     785A      6.927018   786A      6.958251   787A      6.993444  
     788A      7.046727   789A      7.054780   790A      7.078044  
     791A      7.187686   792A      7.252554   793A      7.391898  
     794A      7.415068   795A      7.418158   796A      7.470950  
     797A      7.678936   798A      7.684675   799A      7.745830  
     800A      7.995028   801A      8.375824   802A      8.630332  
     803A      9.002606   804A      9.046187   805A      9.268762  
     806A      9.287033   807A      9.403356   808A      9.518800  
     809A      9.537483   810A      9.593376   811A      9.640004  
     812A      9.713341   813A     10.031384   814A     10.076037  
     815A     15.525044   816A     16.148664   817A     16.568793  
     818A     16.597050   819A     16.682893   820A     16.807647  
     821A     18.458579   822A     18.696451   823A     19.208190  
     824A     19.690761   825A     20.156052   826A     20.199970  
     827A     20.417754   828A     21.807930  

    Final Occupation by Irrep:
              A 
    DOCC [    49 ]

  Energy converged.

  @DF-RHF Final Energy:  -650.17352444154540

   => Energetics <=

    Nuclear Repulsion Energy =            814.0495372949774264
    One-Electron Energy =               -2502.9006748073948074
    Two-Electron Energy =                1038.6776130708719847
    DFT Exchange-Correlation Energy =       0.0000000000000000
    Empirical Dispersion Energy =           0.0000000000000000
    PCM Polarization Energy =               0.0000000000000000
    EFP Energy =                            0.0000000000000000
    Total Energy =                       -650.1735244415453963



Properties will be evaluated at   0.000000,   0.000000,   0.000000 Bohr

Properties computed using the SCF density matrix

  Nuclear Dipole Moment: (a.u.)
     X:    -2.1309      Y:     1.3126      Z:    -4.2665

  Electronic Dipole Moment: (a.u.)
     X:     1.1267      Y:    -0.7922      Z:     4.8970

  Dipole Moment: (a.u.)
     X:    -1.0042      Y:     0.5205      Z:     0.6305     Total:     1.2949

  Dipole Moment: (Debye)
     X:    -2.5524      Y:     1.3230      Z:     1.6026     Total:     3.2914


*** tstop() called on gpu-2-8.local at Sat Nov 11 22:59:01 2017
Module time:
	user time   =    1087.82 seconds =      18.13 minutes
	system time =      47.71 seconds =       0.80 minutes
	total time  =        442 seconds =       7.37 minutes
Total time:
	user time   =    1087.83 seconds =      18.13 minutes
	system time =      47.71 seconds =       0.80 minutes
	total time  =        443 seconds =       7.38 minutes

  //>>>>>>>>>>>>>>>>>>>>>>>>>>>>>>>>>>>//
  //               DFMP2               //
  //<<<<<<<<<<<<<<<<<<<<<<<<<<<<<<<<<<<//

   => Loading Basis Set <=

    Name: (AUG-CC-PVTZ AUX)
    Role: RIFIT
    Keyword: DF_BASIS_MP2
    atoms 1-11  entry C          line   147 file /cbio/jclab/home/chayas/anaconda/envs/py35/share/psi4/basis/aug-cc-pvtz-ri.gbs 
    atoms 12    entry N          line   205 file /cbio/jclab/home/chayas/anaconda/envs/py35/share/psi4/basis/aug-cc-pvtz-ri.gbs 
    atoms 13    entry O          line   263 file /cbio/jclab/home/chayas/anaconda/envs/py35/share/psi4/basis/aug-cc-pvtz-ri.gbs 
    atoms 14    entry F          line   321 file /cbio/jclab/home/chayas/anaconda/envs/py35/share/psi4/basis/aug-cc-pvtz-ri.gbs 
    atoms 15-22 entry H          line    29 file /cbio/jclab/home/chayas/anaconda/envs/py35/share/psi4/basis/aug-cc-pvtz-ri.gbs 

	 --------------------------------------------------------
	                          DF-MP2                         
	      2nd-Order Density-Fitted Moller-Plesset Theory     
	              RMP2 Wavefunction,   8 Threads             
	                                                         
	        Rob Parrish, Justin Turney, Andy Simmonett,      
	           Ed Hohenstein, and C. David Sherrill          
	 --------------------------------------------------------

   => Auxiliary Basis Set <=

  Basis Set: (AUG-CC-PVTZ AUX)
    Blend: AUG-CC-PVTZ-RI
    Number of shells: 504
    Number of basis function: 1852
    Number of Cartesian functions: 2344
    Spherical Harmonics?: true
    Max angular momentum: 4

	 --------------------------------------------------------
	                 NBF =   828, NAUX =  1852
	 --------------------------------------------------------
	   CLASS    FOCC     OCC    AOCC    AVIR     VIR    FVIR
	   PAIRS       0      49      49     779     779       0
	 --------------------------------------------------------


         ------------------------------------------------------------
                                     CPHF                           
                                  Rob Parrish                       
         ------------------------------------------------------------

  ==> Geometry <==

    Molecular point group: c1
    Full point group: C1

    Geometry (in Angstrom), charge = 0, multiplicity = 1:

       Center              X                  Y                   Z               Mass       
    ------------   -----------------  -----------------  -----------------  -----------------
           C         -1.322108634284     0.755292077932    -0.800558656794    12.000000000000
           C         -2.400108634284     1.328292077932    -0.127558656794    12.000000000000
           C          1.623891365716     0.345292077932    -1.618558656794    12.000000000000
           C          1.115891365716    -1.784707922068    -0.624558656794    12.000000000000
           C         -1.407108634284     0.712292077932     1.987441343206    12.000000000000
           C          2.681891365716    -0.269707922068    -2.267558656794    12.000000000000
           C          2.195891365716    -2.305707922068    -1.318558656794    12.000000000000
           C         -0.286108634284     0.160292077932    -0.080558656794    12.000000000000
           C          0.830891365716    -0.433707922068    -0.783558656794    12.000000000000
           C         -2.443108634284     1.307292077932     1.266441343206    12.000000000000
           C         -0.329108634284     0.139292077932     1.313441343206    12.000000000000
           N          2.989891365716    -1.580707922068    -2.138558656794    14.003074004780
           O         -3.496108634284     1.867292077932     1.923441343206    15.994914619560
           F          0.658891365716    -0.428707922068     2.020441343206    18.998403224000
           H         -1.303108634284     0.779292077932    -1.887558656794     1.007825032070
           H         -3.205108634284     1.789292077932    -0.694558656794     1.007825032070
           H          1.432891365716     1.403292077932    -1.766558656794     1.007825032070
           H          0.518891365716    -2.423707922068     0.017441343206     1.007825032070
           H         -1.435108634284     0.692292077932     3.073441343206     1.007825032070
           H          3.330891365716     0.294292077932    -2.928558656794     1.007825032070
           H          2.459891365716    -3.353707922068    -1.230558656794     1.007825032070
           H         -3.382108634284     1.773292077932     2.882441343206     1.007825032070

  Nuclear repulsion =  814.049537294977426
  Reference energy  = -650.173524441545396

  ==> Basis Set <==

  Basis Set: AUG-CC-PVTZ
    Blend: AUG-CC-PVTZ
    Number of shells: 268
    Number of basis function: 828
    Number of Cartesian functions: 970
    Spherical Harmonics?: true
    Max angular momentum: 3

  ==> CGRSolver (by Rob Parrish) <==

   Number of roots    =         1
   Preconditioning    =    JACOBI
   Convergence cutoff =     1E-06
   Maximum iterations =       100

  ==> CPHFRHamiltonian (by Rob Parrish) <== 

  ==> DFJK: Density-Fitted J/K Matrices <==

    J tasked:                  Yes
    K tasked:                  Yes
    wK tasked:                  No
    OpenMP threads:              8
    Integrals threads:           8
    Memory (MB):              3576
    Algorithm:                Disk
    Integral Cache:           NONE
    Schwarz Cutoff:          1E-12
    Fitting Condition:       1E-12

   => Auxiliary Basis Set <=

  Basis Set: (AUG-CC-PVTZ AUX)
    Blend: AUG-CC-PVTZ-JKFIT
    Number of shells: 532
    Number of basis function: 1824
    Number of Cartesian functions: 2274
    Spherical Harmonics?: true
    Max angular momentum: 4

  ==> CPHF Iterations <==

  => Iterations <=

             Iter  Converged  Remaining    Residual
  CGR           1          0          1   1.027E-01
  CGR           2          0          1   3.435E-02
  CGR           3          0          1   2.259E-02
  CGR           4          0          1   9.833E-03
  CGR           5          0          1   4.085E-03
  CGR           6          0          1   1.531E-03
  CGR           7          0          1   4.502E-04
  CGR           8          0          1   1.496E-04
  CGR           9          0          1   4.745E-05
  CGR          10          0          1   1.334E-05
  CGR          11          0          1   5.465E-06
  CGR          12          0          1   1.782E-06
  CGR          13          1          0   8.944E-07

    CGRSolver converged.

  ==> DFCorrGrad: Density-Fitted Correlated Gradients <==

    OpenMP threads:              8
    Integrals threads:           8
    Memory (MB):              3576
    Schwarz Cutoff:          0E+00
    Fitting Condition:       1E-12

   => Auxiliary Basis Set <=

  Basis Set: (AUG-CC-PVTZ AUX)
    Blend: AUG-CC-PVTZ-JKFIT
    Number of shells: 532
    Number of basis function: 1824
    Number of Cartesian functions: 2274
    Spherical Harmonics?: true
    Max angular momentum: 4

	-----------------------------------------------------------
	 ==================> DF-MP2 Energies <==================== 
	-----------------------------------------------------------
	 Reference Energy          =    -650.1735244415453963 [Eh]
	 Singles Energy            =      -0.0000000000000005 [Eh]
	 Same-Spin Energy          =      -0.6775377121671311 [Eh]
	 Opposite-Spin Energy      =      -2.0194782577486192 [Eh]
	 Correlation Energy        =      -2.6970159699157508 [Eh]
	 Total Energy              =    -652.8705404114610928 [Eh]
	-----------------------------------------------------------
	 ================> DF-SCS-MP2 Energies <================== 
	-----------------------------------------------------------
	 SCS Same-Spin Scale       =       0.3333333333333333 [-]
	 SCS Opposite-Spin Scale   =       1.2000000000000000 [-]
	 SCS Same-Spin Energy      =      -0.2258459040557104 [Eh]
	 SCS Opposite-Spin Energy  =      -2.4233739092983431 [Eh]
	 SCS Correlation Energy    =      -2.6492198133540539 [Eh]
	 SCS Total Energy          =    -652.8227442548994759 [Eh]
	-----------------------------------------------------------


  -Total Gradient:
     Atom            X                  Y                   Z
    ------   -----------------  -----------------  -----------------
       1        0.008266830548    -0.006658391787    -0.014487340364
       2        0.003645054424    -0.002383103243     0.003313266617
       3       -0.003057184780     0.006191402665     0.003075019686
       4       -0.007407476033     0.000021892723     0.004143491305
       5       -0.008058915654     0.004376896869     0.001154234415
       6       -0.006950920992     0.013063625503     0.002643040775
       7       -0.010328443111    -0.002932138574     0.008708183017
       8       -0.001194980770     0.000680978052    -0.002583396634
       9       -0.001701092064     0.000592530893    -0.001208260769
      10       -0.008758534756     0.004892583612    -0.004561039309
      11        0.023656800300    -0.010146701853     0.005670582286
      12        0.013447481253    -0.008097850976    -0.008347095236
      13        0.002886183734    -0.001475137819     0.000388847448
      14        0.001065397772    -0.001301707153     0.002133047402
      15       -0.002414930695     0.001964058733    -0.006255223670
      16       -0.003076700455     0.002104738781    -0.005353036352
      17        0.000632179136     0.004303469459    -0.002464882093
      18       -0.001306153242    -0.004310064883     0.002136661348
      19       -0.001172864917     0.000206166912     0.004360024383
      20        0.001751354993     0.000751514579    -0.001714374883
      21        0.001277570455    -0.002166296210    -0.000196348033
      22       -0.001200655152     0.000321533719     0.009444598665


*** tstop() called on gpu-2-8.local at Sat Nov 11 23:37:11 2017
Module time:
	user time   =    5858.70 seconds =      97.65 minutes
	system time =     109.44 seconds =       1.82 minutes
	total time  =       2732 seconds =      45.53 minutes
Total time:
	user time   =    5858.71 seconds =      97.65 minutes
	system time =     109.44 seconds =       1.82 minutes
	total time  =       2733 seconds =      45.55 minutes

			-----------------------------------------
			 OPTKING 2.0: for geometry optimizations 
			  - R.A. King,  Bethel University        
			-----------------------------------------

	Internal coordinates to be generated automatically.
	Detected frag 1 with atoms:  1 2 3 4 5 6 7 8 9 10 11 12 13 14 15 16 17 18 19 20
	 21 22
	---Fragment 1 Bond Connectivity---
	 1 : 2 8 15
	 2 : 1 10 16
	 3 : 6 9 17
	 4 : 7 9 18
	 5 : 10 11 19
	 6 : 3 12 20
	 7 : 4 12 21
	 8 : 1 9 11
	 9 : 3 4 8
	 10 : 2 5 13
	 11 : 5 8 14
	 12 : 6 7
	 13 : 10 22
	 14 : 11
	 15 : 1
	 16 : 2
	 17 : 3
	 18 : 4
	 19 : 5
	 20 : 6
	 21 : 7
	 22 : 13

	Assuming in current code that numbering for constraints corresponds to unified fragment.
	Fixed dihedral atom list: 
	     1     8     9     3
	---Fragment 1 Geometry and Gradient---
	 C          -2.4984232367        1.4272951776       -1.5128366147
	 C          -4.5355480080        2.5101082518       -0.2410509272
	 C           3.0687099508        0.6525074631       -3.0586325914
	 C           2.1087290753       -3.3726091999       -1.1802448153
	 C          -2.6590499580        1.3460369539        3.7557198438
	 C           5.0680401994       -0.5096741086       -4.2850648516
	 C           4.1496332988       -4.3571565151       -2.4917147515
	 C          -0.5406669631        0.3029081286       -0.1522337990
	 C           1.5701571274       -0.8195891944       -1.4807112704
	 C          -4.6168062317        2.4704240030        2.3932273020
	 C          -0.6219251868        0.2632238798        2.4820444303
	 N           5.6500758483       -2.9871050688       -4.0412901805
	 O          -6.6066878496        3.5286706374        3.6347773713
	 F           1.2451242325       -0.8101405637        3.8180808062
	 H          -2.4625184402        1.4726486048       -3.5669689211
	 H          -6.0567775449        3.3812719990       -1.3125256446
	 H           2.7077722594        2.6518377117       -3.3383120590
	 H           0.9805625739       -4.5801441988        0.0329593620
	 H          -2.7119622897        1.3082424313        5.8079624241
	 H           6.2944724596        0.5561314304       -5.5341738254
	 H           4.6485209979       -6.3375895024       -2.3254188518
	 H          -6.3912590705        3.3510363809        5.4470247328
	             0.0082668305       -0.0066583918       -0.0144873404
	             0.0036450544       -0.0023831032        0.0033132666
	            -0.0030571848        0.0061914027        0.0030750197
	            -0.0074074760        0.0000218927        0.0041434913
	            -0.0080589157        0.0043768969        0.0011542344
	            -0.0069509210        0.0130636255        0.0026430408
	            -0.0103284431       -0.0029321386        0.0087081830
	            -0.0011949808        0.0006809781       -0.0025833966
	            -0.0017010921        0.0005925309       -0.0012082608
	            -0.0087585348        0.0048925836       -0.0045610393
	             0.0236568003       -0.0101467019        0.0056705823
	             0.0134474813       -0.0080978510       -0.0083470952
	             0.0028861837       -0.0014751378        0.0003888474
	             0.0010653978       -0.0013017072        0.0021330474
	            -0.0024149307        0.0019640587       -0.0062552237
	            -0.0030767005        0.0021047388       -0.0053530364
	             0.0006321791        0.0043034695       -0.0024648821
	            -0.0013061532       -0.0043100649        0.0021366613
	            -0.0011728649        0.0002061669        0.0043600244
	             0.0017513550        0.0007515146       -0.0017143749
	             0.0012775705       -0.0021662962       -0.0001963480
	            -0.0012006552        0.0003215337        0.0094445987

	Previous optimization step data not found.  Starting new optimization.

	---Fragment 1 Intrafragment Coordinates---
	 - Coordinate -           - BOHR/RAD -       - ANG/DEG -
	 R(1,2)           =         2.634350	       1.394038
	 R(1,8)           =         2.635962	       1.394891
	 R(1,15)          =         2.054947	       1.087431
	 R(2,10)          =         2.635830	       1.394821
	 R(2,16)          =         2.054537	       1.087214
	 R(3,6)           =         2.617656	       1.385204
	 R(3,9)           =         2.627273	       1.390293
	 R(3,17)          =         2.050809	       1.085241
	 R(4,7)           =         2.618125	       1.385452
	 R(4,9)           =         2.626452	       1.389859
	 R(4,18)          =         2.050065	       1.084847
	 R(5,10)          =         2.636938	       1.395407
	 R(5,11)          =         2.635263	       1.394521
	 R(5,19)          =         2.053272	       1.086545
	 R(6,12)          =         2.556532	       1.352858
	 R(6,20)          =         2.049476	       1.084536
	 R(7,12)          =         2.555299	       1.352206
	 R(7,21)          =         2.049063	       1.084317
	 R(8,9)           =         2.735038	       1.447320
	 R(8,11)          =         2.635830	       1.394821
	 R(10,13)         =         2.573123	       1.361638
	 R(11,14)         =         2.534359	       1.341125
	 R(13,22)         =         1.833631	       0.970316
	 B(1,2,10)        =         2.094553	     120.009056
	 B(1,2,16)        =         2.088723	     119.675016
	 B(1,8,9)         =         2.091569	     119.838095
	 B(1,8,11)        =         2.093692	     119.959722
	 B(2,1,8)         =         2.094940	     120.031219
	 B(2,1,15)        =         2.079469	     119.144799
	 B(2,10,5)        =         2.094306	     119.994870
	 B(2,10,13)       =         2.094247	     119.991510
	 B(3,6,12)        =         2.164523	     124.018034
	 B(3,6,20)        =         2.107991	     120.779014
	 B(3,9,4)         =         2.090237	     119.761764
	 B(3,9,8)         =         2.096669	     120.130312
	 B(4,7,12)        =         2.165029	     124.047007
	 B(4,7,21)        =         2.109001	     120.836845
	 B(4,9,8)         =         2.096277	     120.107844
	 B(5,10,13)       =         2.094633	     120.013619
	 B(5,11,8)        =         2.095181	     120.045019
	 B(5,11,14)       =         2.081414	     119.256220
	 B(6,3,9)         =         2.058135	     117.922431
	 B(6,3,17)        =         2.098283	     120.222749
	 B(6,12,7)        =         2.030534	     116.341012
	 B(7,4,9)         =         2.057912	     117.909685
	 B(7,4,18)        =         2.098924	     120.259475
	 B(8,1,15)        =         2.108776	     120.823969
	 B(8,11,14)       =         2.106591	     120.698759
	 B(9,3,17)        =         2.126767	     121.854801
	 B(9,4,18)        =         2.126347	     121.830685
	 B(9,8,11)        =         2.097924	     120.202184
	 B(10,2,16)       =         2.099909	     120.315896
	 B(10,5,11)       =         2.093699	     119.960108
	 B(10,5,19)       =         2.100355	     120.341451
	 B(10,13,22)      =         1.924294	     110.253909
	 B(11,5,19)       =         2.089132	     119.698439
	 B(12,6,20)       =         2.010670	     115.202918
	 B(12,7,21)       =         2.009156	     115.116148
	 D(1,2,10,5)      =        -0.000325	      -0.018609
	 D(1,2,10,13)     =         3.141388	     179.988267
	 D(1,8,9,3)       =         1.047164	      59.998053
	 D(1,8,9,4)       =        -2.096229	    -120.105048
	 D(1,8,11,5)      =         0.000325	       0.018608
	 D(1,8,11,14)     =        -3.141528	    -179.996269
	 D(2,1,8,9)       =         3.141277	     179.981897
	 D(2,1,8,11)      =        -0.000348	      -0.019945
	 D(2,10,5,11)     =         0.000301	       0.017261
	 D(2,10,5,19)     =        -3.141029	    -179.967685
	 D(2,10,13,22)    =         3.141285	     179.982383
	 D(3,6,12,7)      =         0.000203	       0.011645
	 D(3,9,4,7)       =        -0.001317	      -0.075462
	 D(3,9,4,18)      =        -3.140415	    -179.932497
	 D(3,9,8,11)      =        -2.094397	    -120.000101
	 D(4,7,12,6)      =        -0.001228	      -0.070373
	 D(4,9,3,6)       =         0.000399	       0.022842
	 D(4,9,3,17)      =        -3.140329	    -179.927601
	 D(4,9,8,11)      =         1.045396	      59.896798
	 D(5,10,2,16)     =         3.140149	     179.917291
	 D(5,10,13,22)    =        -0.000187	      -0.010740
	 D(5,11,8,9)      =        -3.141300	    -179.983240
	 D(6,3,9,8)       =         3.140198	     179.920098
	 D(6,12,7,21)     =         3.140563	     179.940978
	 D(7,4,9,8)       =        -3.141117	    -179.972742
	 D(7,12,6,20)     =         3.140633	     179.945021
	 D(8,1,2,10)      =         0.000348	       0.019955
	 D(8,1,2,16)      =        -3.140133	    -179.916358
	 D(8,9,3,17)      =        -0.000530	      -0.030344
	 D(8,9,4,18)      =         0.002971	       0.170222
	 D(8,11,5,10)     =        -0.000301	      -0.017270
	 D(8,11,5,19)     =         3.141030	     179.967774
	 D(9,3,6,12)      =         0.000182	       0.010441
	 D(9,3,6,20)      =        -3.140186	    -179.919395
	 D(9,4,7,12)      =         0.001799	       0.103101
	 D(9,4,7,21)      =        -3.140002	    -179.908869
	 D(9,8,1,15)      =         0.000403	       0.023110
	 D(9,8,11,14)     =         0.000033	       0.001883
	 D(10,2,1,15)     =         3.141234	     179.979432
	 D(10,5,11,14)    =         3.141547	     179.997392
	 D(11,5,10,13)    =        -3.141411	    -179.989616
	 D(11,8,1,15)     =        -3.141221	    -179.978731
	 D(12,6,3,17)     =         3.140925	     179.961726
	 D(12,7,4,18)     =         3.140938	     179.962477
	 D(13,10,2,16)    =        -0.001324	      -0.075833
	 D(13,10,5,19)    =         0.000444	       0.025437
	 D(14,11,5,19)    =        -0.000307	      -0.017564
	 D(15,1,2,16)     =         0.000753	       0.043120
	 D(17,3,6,20)     =         0.000557	       0.031890
	 D(18,4,7,21)     =        -0.000864	      -0.049493
	 R(4,14)          =         5.682897	       3.007260

	Current energy   :      -652.8705404115

	Generating empirical Hessian (Schlegel '84) for each fragment.
	Adding user-defined constraint: Fragment 1; Coordinate 61:
		Value =     1.047164; Fixed value    =     1.047198
		Force =     0.000017; Force constant =     0.500000
	Removing off-diagonal coupling between coordinate 61 and others.
	Taking RFO optimization step.
	Going to follow RFO solution 1.
	Using RFO vector 1.

	Determining step-restricting scale parameter for RS-RFO.
	Maximum step size allowed    0.10000

	 Iter      |step|        alpha        rfo_root  
	------------------------------------------------
	    0     0.17849       1.00000           1
	    1     0.14405       6.50007           1
	    2     0.11695      19.37595           1
	    3     0.10351      31.48670           1
	    4     0.10020      35.42645           1
	    5     0.10000      35.67872           1
	------------------------------------------------
	Norm of target step-size    0.10000
	Projected energy change by RFO approximation:        -0.0048822276

	Back-transformation to cartesian coordinates...
	Could not converge backtransformation.
	Using first guess instead.

	--- Internal Coordinate Step in ANG or DEG, aJ/ANG or AJ/DEG ---
	 ---------------------------------------------------------------------------
	   Coordinate                Previous        Force       Change         New 
	   ----------                --------       ------       ------       ------
	    1 R(1,2)          =      1.394038    -0.056526    -0.005663     1.388375
	    2 R(1,8)          =      1.394891    -0.027875    -0.002552     1.392339
	    3 R(1,15)         =      1.087431    -0.051524    -0.006338     1.081093
	    4 R(2,10)         =      1.394821    -0.081504    -0.008204     1.386617
	    5 R(2,16)         =      1.087214    -0.049121    -0.005971     1.081243
	    6 R(3,6)          =      1.385204     0.007703     0.000744     1.385948
	    7 R(3,9)          =      1.390293    -0.017820    -0.001327     1.388966
	    8 R(3,17)         =      1.085241    -0.036417    -0.004457     1.080785
	    9 R(4,7)          =      1.385452     0.002808     0.000265     1.385717
	   10 R(4,9)          =      1.389859    -0.016137    -0.001110     1.388749
	   11 R(4,18)         =      1.084847    -0.037256    -0.004553     1.080294
	   12 R(5,10)         =      1.395407    -0.046258    -0.004682     1.390725
	   13 R(5,11)         =      1.394521    -0.105728    -0.010585     1.383936
	   14 R(5,19)         =      1.086545    -0.036120    -0.004342     1.082203
	   15 R(6,12)         =      1.352858    -0.126831    -0.011671     1.341187
	   16 R(6,20)         =      1.084536    -0.020462    -0.002500     1.082036
	   17 R(7,12)         =      1.352206    -0.118423    -0.010900     1.341306
	   18 R(7,21)         =      1.084317    -0.019682    -0.002394     1.081923
	   19 R(8,9)          =      1.447320     0.131403     0.015320     1.462640
	   20 R(8,11)         =      1.394821    -0.078875    -0.007703     1.387118
	   21 R(10,13)        =      1.361638    -0.024443    -0.002039     1.359599
	   22 R(11,14)        =      1.341125    -0.021933    -0.001841     1.339284
	   23 R(13,22)        =      0.970316    -0.075484    -0.006878     0.963438
	   24 B(1,2,10)       =    120.009056    -0.000177    -0.328554   119.680503
	   25 B(1,2,16)       =    119.675016     0.000294     0.635809   120.310826
	   26 B(1,8,9)        =    119.838095     0.000663     1.146562   120.984656
	   27 B(1,8,11)       =    119.959722    -0.000922    -1.677922   118.281800
	   28 B(2,1,8)        =    120.031219     0.000528     1.036513   121.067732
	   29 B(2,1,15)       =    119.144799    -0.000022     0.032798   119.177597
	   30 B(2,10,5)       =    119.994870    -0.000011    -0.017319   119.977552
	   31 B(2,10,13)      =    119.991510    -0.000752    -1.349028   118.642483
	   32 B(3,6,12)       =    124.018034    -0.000018    -0.098242   123.919793
	   33 B(3,6,20)       =    120.779014    -0.000039    -0.062282   120.716731
	   34 B(3,9,4)        =    119.761764    -0.000842    -1.418470   118.343294
	   35 B(3,9,8)        =    120.130312     0.000419     0.679446   120.809758
	   36 B(4,7,12)       =    124.047007    -0.000013    -0.086366   123.960641
	   37 B(4,7,21)       =    120.836845    -0.000056    -0.098620   120.738224
	   38 B(4,9,8)        =    120.107844     0.000423     0.738722   120.846566
	   39 B(5,10,13)      =    120.013619     0.000763     1.366335   121.379954
	   40 B(5,11,8)       =    120.045019     0.000787     1.391113   121.436132
	   41 B(5,11,14)      =    119.256220    -0.000185    -0.361242   118.894978
	   42 B(6,3,9)        =    117.922431     0.000362     0.752350   118.674781
	   43 B(6,3,17)       =    120.222749    -0.000004     0.025287   120.248036
	   44 B(6,12,7)       =    116.341012     0.000157     0.111091   116.452104
	   45 B(7,4,9)        =    117.909685     0.000355     0.739440   118.649125
	   46 B(7,4,18)       =    120.259475    -0.000014     0.002637   120.262112
	   47 B(8,1,15)       =    120.823969    -0.000506    -1.069370   119.754599
	   48 B(8,11,14)      =    120.698759    -0.000602    -1.029946   119.668814
	   49 B(9,3,17)       =    121.854801    -0.000357    -0.777653   121.077148
	   50 B(9,4,18)       =    121.830685    -0.000341    -0.742189   121.088496
	   51 B(9,8,11)       =    120.202184     0.000259     0.531176   120.733359
	   52 B(10,2,16)      =    120.315896    -0.000118    -0.307291   120.008605
	   53 B(10,5,11)      =    119.960108    -0.000205    -0.403928   119.556180
	   54 B(10,5,19)      =    120.341451     0.000186     0.391149   120.732600
	   55 B(10,13,22)     =    110.253909    -0.000364    -0.827775   109.426134
	   56 B(11,5,19)      =    119.698439     0.000019     0.012779   119.711218
	   57 B(12,6,20)      =    115.202918     0.000058     0.160390   115.363309
	   58 B(12,7,21)      =    115.116148     0.000068     0.184985   115.301133
	   59 D(1,2,10,5)     =     -0.018609    -0.000002    -0.037629    -0.056238
	   60 D(1,2,10,13)    =    179.988267    -0.000000    -0.005775   179.982492
	   61 D(1,8,9,3)      =     59.998053    -0.000020    -0.168135    59.829918
	   62 D(1,8,9,4)      =   -120.105048    -0.000024    -0.293485  -120.398533
	   63 D(1,8,11,5)     =      0.018608    -0.000006    -0.136048    -0.117440
	   64 D(1,8,11,14)    =   -179.996269    -0.000001    -0.019562  -180.015832
	   65 D(2,1,8,9)      =    179.981897    -0.000002    -0.073744   179.908153
	   66 D(2,1,8,11)     =     -0.019945     0.000003     0.083240     0.063295
	   67 D(2,10,5,11)    =      0.017261    -0.000001    -0.013543     0.003718
	   68 D(2,10,5,19)    =   -179.967685    -0.000001    -0.013611  -179.981296
	   69 D(2,10,13,22)   =    179.982383    -0.000000    -0.007127   179.975256
	   70 D(3,6,12,7)     =      0.011645     0.000000     0.000677     0.012322
	   71 D(3,9,4,7)      =     -0.075462    -0.000006    -0.116171    -0.191633
	   72 D(3,9,4,18)     =   -179.932497    -0.000003    -0.071748  -180.004245
	   73 D(3,9,8,11)     =   -120.000101    -0.000026    -0.328928  -120.329028
	   74 D(4,7,12,6)     =     -0.070373     0.000001     0.024098    -0.046275
	   75 D(4,9,3,6)      =      0.022842     0.000007     0.138158     0.160999
	   76 D(4,9,3,17)     =   -179.927601     0.000008     0.156375  -179.771226
	   77 D(4,9,8,11)     =     59.896798    -0.000030    -0.454277    59.442521
	   78 D(5,10,2,16)    =    179.917291    -0.000003    -0.067054   179.850237
	   79 D(5,10,13,22)   =     -0.010740     0.000001     0.025292     0.014552
	   80 D(5,11,8,9)     =   -179.983240    -0.000001     0.020537  -179.962703
	   81 D(6,3,9,8)      =    179.920098     0.000003     0.018050   179.938149
	   82 D(6,12,7,21)    =    179.940978    -0.000000    -0.000656   179.940322
	   83 D(7,4,9,8)      =   -179.972742    -0.000001     0.004046  -179.968697
	   84 D(7,12,6,20)    =    179.945021    -0.000004    -0.080975   179.864046
	   85 D(8,1,2,10)     =      0.019955     0.000001     0.002275     0.022230
	   86 D(8,1,2,16)     =   -179.916358     0.000002     0.032400  -179.883958
	   87 D(8,9,3,17)     =     -0.030344     0.000004     0.036268     0.005923
	   88 D(8,9,4,18)     =      0.170222     0.000001     0.048468     0.218691
	   89 D(8,11,5,10)    =     -0.017270     0.000005     0.102317     0.085047
	   90 D(8,11,5,19)    =    179.967774     0.000005     0.102442   180.070216
	   91 D(9,3,6,12)     =      0.010441    -0.000004    -0.083123    -0.072682
	   92 D(9,3,6,20)     =   -179.919395     0.000000     0.002562  -179.916833
	   93 D(9,4,7,12)     =      0.103101     0.000002     0.035940     0.139041
	   94 D(9,4,7,21)     =   -179.908869     0.000003     0.062008  -179.846861
	   95 D(9,8,1,15)     =      0.023110     0.000001    -0.016687     0.006423
	   96 D(9,8,11,14)    =      0.001883     0.000005     0.137022     0.138905
	   97 D(10,2,1,15)    =    179.979432    -0.000003    -0.054916   179.924517
	   98 D(10,5,11,14)   =    179.997392    -0.000000    -0.013187   179.984205
	   99 D(11,5,10,13)   =   -179.989616    -0.000002    -0.046479  -180.036095
	  100 D(11,8,1,15)    =   -179.978731     0.000007     0.140297  -179.838434
	  101 D(12,6,3,17)    =    179.961726    -0.000005    -0.101604   179.860122
	  102 D(12,7,4,18)    =    179.962477    -0.000001    -0.009227   179.953250
	  103 D(13,10,2,16)   =     -0.075833    -0.000002    -0.035201    -0.111033
	  104 D(13,10,5,19)   =      0.025437    -0.000002    -0.046547    -0.021110
	  105 D(14,11,5,19)   =     -0.017564    -0.000000    -0.013062    -0.030626
	  106 D(15,1,2,16)    =      0.043120    -0.000001    -0.024791     0.018329
	  107 D(17,3,6,20)    =      0.031890    -0.000001    -0.015919     0.015971
	  108 D(18,4,7,21)    =     -0.049493     0.000001     0.016841    -0.032652
	  109 R(4,14)         =      3.007260     0.010333     0.003138     3.010398
	 ---------------------------------------------------------------------------
	Successfully symmetrized geometry.
	 Forces used to impose fixed constraints are not included.
	  Forces zeroed: 61 

  ==> Convergence Check <==

  Measures of convergence in internal coordinates in au.
  Criteria marked as inactive (o), active & met (*), and active & unmet ( ).
  --------------------------------------------------------------------------------------------- ~
   Step     Total Energy     Delta E     MAX Force     RMS Force      MAX Disp      RMS Disp    ~
  --------------------------------------------------------------------------------------------- ~
    Convergence Criteria    1.00e-06 *    3.00e-04 *             o    1.20e-03 *             o  ~
  --------------------------------------------------------------------------------------------- ~
      1    -652.87054041   -6.53e+02      1.59e-02      4.73e-03 o    2.93e-02      9.58e-03 o  ~
  ---------------------------------------------------------------------------------------------

	Writing optimization data to binary file.
	Structure for next step:
	Cartesian Geometry (in Angstrom)
	    C    -1.3386247678   0.7673806961  -0.7769011425
	    C    -2.4124483117   1.3375510486  -0.1065325955
	    C     1.6374426525   0.3271400660  -1.6270944152
	    C     1.1356178363  -1.7832056559  -0.6351318781
	    C    -1.4143302771   0.7129769919   1.9905098471
	    C     2.6967504021  -0.2881986854  -2.2752281677
	    C     2.2163772063  -2.3058872485  -1.3272120676
	    C    -0.2939739336   0.1659267872  -0.0800760860
	    C     0.8354458507  -0.4359549920  -0.7882178651
	    C    -2.4493959297   1.3104510785   1.2793275979
	    C    -0.3523529798   0.1485962195   1.3057042313
	    N     3.0024105410  -1.5873445099  -2.1426559733
	    O    -3.5107164701   1.8753504459   1.9141489627
	    F     0.6374062469  -0.4229767831   2.0038184070
	    H    -1.3187232674   0.7920115437  -1.8575305788
	    H    -3.2180900551   1.7997936690  -0.6600299190
	    H     1.4461417464   1.3804483222  -1.7755568466
	    H     0.5414284460  -2.4177183917   0.0062482889
	    H    -1.4308387008   0.6846506387   3.0722159536
	    H     3.3433468686   0.2750912047  -2.9350907084
	    H     2.4789796525  -3.3513779883  -1.2347620458
	    H    -3.4012427105   1.7817212574   2.8667565515
			--------------------------
			 OPTKING Finished Execution 
			--------------------------

    Structure for next step:
    Molecular point group: c1
    Full point group: C1

    Geometry (in Angstrom), charge = 0, multiplicity = 1:

    C           -1.336265522404     0.766503659029    -0.775073923795
    C           -2.410089066326     1.336674011508    -0.104705376822
    C            1.639801897842     0.326263028909    -1.625267196586
    C            1.137977081638    -1.784082693000    -0.633304659395
    C           -1.411971031774     0.712099954774     1.992337065793
    C            2.699109647491    -0.289075722529    -2.273400949057
    C            2.218736451699    -2.306764285616    -1.325384848911
    C           -0.291614688250     0.165049750086    -0.078248867332
    C            0.837805096081    -0.436832029144    -0.786390646406
    C           -2.447036684296     1.309574041386     1.281154816520
    C           -0.349993734456     0.147719182375     1.307531450001
    N            3.004769786380    -1.588221547043    -2.140828754619
    O           -3.508357224788     1.874473408809     1.915976181380
    F            0.639765492219    -0.423853820222     2.005645625625
    H           -1.316364021992     0.791134506593    -1.855703360149
    H           -3.215730809706     1.798916631915    -0.658202700353
    H            1.448500991790     1.379571285056    -1.773729627915
    H            0.543787691368    -2.418595428762     0.008075507572
    H           -1.428479455486     0.683773601586     3.074043172240
    H            3.345706113953     0.274214167627    -2.933263489707
    H            2.481338897816    -3.352255025391    -1.232934827160
    H           -3.398883465151     1.780844220293     2.868583770159

gradient() will perform analytic gradient computation.

*** tstart() called on gpu-2-8.local
*** at Sat Nov 11 23:37:12 2017

    SCF Algorithm Type (re)set to DF.

*** tstart() called on gpu-2-8.local
*** at Sat Nov 11 23:37:12 2017

   => Loading Basis Set <=

    Name: AUG-CC-PVTZ
    Role: ORBITAL
    Keyword: BASIS
    atoms 1-11  entry C          line   221 file /cbio/jclab/home/chayas/anaconda/envs/py35/share/psi4/basis/aug-cc-pvtz.gbs 
    atoms 12    entry N          line   267 file /cbio/jclab/home/chayas/anaconda/envs/py35/share/psi4/basis/aug-cc-pvtz.gbs 
    atoms 13    entry O          line   313 file /cbio/jclab/home/chayas/anaconda/envs/py35/share/psi4/basis/aug-cc-pvtz.gbs 
    atoms 14    entry F          line   359 file /cbio/jclab/home/chayas/anaconda/envs/py35/share/psi4/basis/aug-cc-pvtz.gbs 
    atoms 15-22 entry H          line    34 file /cbio/jclab/home/chayas/anaconda/envs/py35/share/psi4/basis/aug-cc-pvtz.gbs 


         ---------------------------------------------------------
                                   SCF
            by Justin Turney, Rob Parrish, and Andy Simmonett
                              RHF Reference
                        8 Threads,   4768 MiB Core
         ---------------------------------------------------------

  ==> Geometry <==

    Molecular point group: c1
    Full point group: C1

    Geometry (in Angstrom), charge = 0, multiplicity = 1:

       Center              X                  Y                   Z               Mass       
    ------------   -----------------  -----------------  -----------------  -----------------
           C         -1.336265522404     0.766503659029    -0.775073923795    12.000000000000
           C         -2.410089066326     1.336674011508    -0.104705376822    12.000000000000
           C          1.639801897842     0.326263028909    -1.625267196586    12.000000000000
           C          1.137977081638    -1.784082693000    -0.633304659395    12.000000000000
           C         -1.411971031774     0.712099954774     1.992337065793    12.000000000000
           C          2.699109647491    -0.289075722529    -2.273400949057    12.000000000000
           C          2.218736451699    -2.306764285616    -1.325384848911    12.000000000000
           C         -0.291614688250     0.165049750086    -0.078248867332    12.000000000000
           C          0.837805096081    -0.436832029144    -0.786390646406    12.000000000000
           C         -2.447036684296     1.309574041386     1.281154816520    12.000000000000
           C         -0.349993734456     0.147719182375     1.307531450001    12.000000000000
           N          3.004769786380    -1.588221547043    -2.140828754619    14.003074004780
           O         -3.508357224788     1.874473408809     1.915976181380    15.994914619560
           F          0.639765492219    -0.423853820222     2.005645625625    18.998403224000
           H         -1.316364021992     0.791134506593    -1.855703360149     1.007825032070
           H         -3.215730809706     1.798916631915    -0.658202700353     1.007825032070
           H          1.448500991790     1.379571285056    -1.773729627915     1.007825032070
           H          0.543787691368    -2.418595428762     0.008075507572     1.007825032070
           H         -1.428479455486     0.683773601586     3.074043172240     1.007825032070
           H          3.345706113953     0.274214167627    -2.933263489707     1.007825032070
           H          2.481338897816    -3.352255025391    -1.232934827160     1.007825032070
           H         -3.398883465151     1.780844220293     2.868583770159     1.007825032070

  Running in c1 symmetry.

  Rotational constants: A =      0.06439  B =      0.01296  C =      0.01157 [cm^-1]
  Rotational constants: A =   1930.23125  B =    388.48327  C =    346.91527 [MHz]
  Nuclear repulsion =  814.662290694915896

  Charge       = 0
  Multiplicity = 1
  Electrons    = 98
  Nalpha       = 49
  Nbeta        = 49

  ==> Algorithm <==

  SCF Algorithm Type is DF.
  DIIS enabled.
  MOM disabled.
  Fractional occupation disabled.
  Guess Type is READ.
  Energy threshold   = 1.00e-10
  Density threshold  = 1.00e-10
  Integral threshold = 0.00e+00

  ==> Primary Basis <==

  Basis Set: AUG-CC-PVTZ
    Blend: AUG-CC-PVTZ
    Number of shells: 268
    Number of basis function: 828
    Number of Cartesian functions: 970
    Spherical Harmonics?: true
    Max angular momentum: 3

   => Loading Basis Set <=

    Name: (AUG-CC-PVTZ AUX)
    Role: JKFIT
    Keyword: DF_BASIS_SCF
    atoms 1-11  entry C          line   161 file /cbio/jclab/home/chayas/anaconda/envs/py35/share/psi4/basis/aug-cc-pvtz-jkfit.gbs 
    atoms 12    entry N          line   223 file /cbio/jclab/home/chayas/anaconda/envs/py35/share/psi4/basis/aug-cc-pvtz-jkfit.gbs 
    atoms 13    entry O          line   285 file /cbio/jclab/home/chayas/anaconda/envs/py35/share/psi4/basis/aug-cc-pvtz-jkfit.gbs 
    atoms 14    entry F          line   347 file /cbio/jclab/home/chayas/anaconda/envs/py35/share/psi4/basis/aug-cc-pvtz-jkfit.gbs 
    atoms 15-22 entry H          line    69 file /cbio/jclab/home/chayas/anaconda/envs/py35/share/psi4/basis/aug-cc-pvtz-jkfit.gbs 

  Reading orbitals from file 180, no projection.

  ==> Pre-Iterations <==

   -------------------------------------------------------
    Irrep   Nso     Nmo     Nalpha   Nbeta   Ndocc  Nsocc
   -------------------------------------------------------
     A        828     828       0       0       0       0
   -------------------------------------------------------
    Total     828     828      49      49      49       0
   -------------------------------------------------------

  ==> Integral Setup <==

  ==> DFJK: Density-Fitted J/K Matrices <==

    J tasked:                  Yes
    K tasked:                  Yes
    wK tasked:                  No
    OpenMP threads:              8
    Integrals threads:           8
    Memory (MB):              3576
    Algorithm:                Disk
    Integral Cache:           NONE
    Schwarz Cutoff:          1E-12
    Fitting Condition:       1E-12

   => Auxiliary Basis Set <=

  Basis Set: (AUG-CC-PVTZ AUX)
    Blend: AUG-CC-PVTZ-JKFIT
    Number of shells: 532
    Number of basis function: 1824
    Number of Cartesian functions: 2274
    Spherical Harmonics?: true
    Max angular momentum: 4

  Minimum eigenvalue in the overlap matrix is 6.9681989423E-07.
  Using Symmetric Orthogonalization.

  SCF Guess: Orbitals guess was supplied from a previous computation.

  ==> Iterations <==

                           Total Energy        Delta E     RMS |[F,P]|

   @DF-RHF iter   0:  -650.23680168727128   -6.50237e+02   4.75911e-04 
   @DF-RHF iter   1:  -650.17939340181260    5.74083e-02   8.78688e-05 
   @DF-RHF iter   2:  -650.17967652486345   -2.83123e-04   5.83826e-05 DIIS
   @DF-RHF iter   3:  -650.17982928317690   -1.52758e-04   1.02361e-05 DIIS
   @DF-RHF iter   4:  -650.17983530273671   -6.01956e-06   4.23763e-06 DIIS
   @DF-RHF iter   5:  -650.17983706672715   -1.76399e-06   1.30202e-06 DIIS
   @DF-RHF iter   6:  -650.17983743465527   -3.67928e-07   8.53133e-07 DIIS
   @DF-RHF iter   7:  -650.17983756749754   -1.32842e-07   3.61602e-07 DIIS
   @DF-RHF iter   8:  -650.17983760271318   -3.52156e-08   1.29942e-07 DIIS
   @DF-RHF iter   9:  -650.17983760571451   -3.00133e-09   4.05282e-08 DIIS
   @DF-RHF iter  10:  -650.17983760599475   -2.80238e-10   1.13270e-08 DIIS
   @DF-RHF iter  11:  -650.17983760602067   -2.59206e-11   3.73621e-09 DIIS
   @DF-RHF iter  12:  -650.17983760600521    1.54614e-11   1.51602e-09 DIIS
   @DF-RHF iter  13:  -650.17983760599918    6.02540e-12   5.86053e-10 DIIS
   @DF-RHF iter  14:  -650.17983760601885   -1.96678e-11   3.31232e-10 DIIS
   @DF-RHF iter  15:  -650.17983760600146    1.73941e-11   1.50179e-10 DIIS
   @DF-RHF iter  16:  -650.17983760602476   -2.33058e-11   6.24481e-11 DIIS

  ==> Post-Iterations <==

    Orbital Energies (a.u.)
    -----------------------

    Doubly Occupied:                                                      

       1A    -26.325321     2A    -20.609519     3A    -15.563683  
       4A    -11.346847     5A    -11.326003     6A    -11.273113  
       7A    -11.272294     8A    -11.266598     9A    -11.263034  
      10A    -11.252604    11A    -11.251792    12A    -11.242109  
      13A    -11.238822    14A    -11.237404    15A     -1.645348  
      16A     -1.427241    17A     -1.256193    18A     -1.184138  
      19A     -1.111451    20A     -1.043166    21A     -1.034583  
      22A     -1.022910    23A     -0.892782    24A     -0.877134  
      25A     -0.856329    26A     -0.826734    27A     -0.774203  
      28A     -0.748817    29A     -0.725779    30A     -0.711554  
      31A     -0.696767    32A     -0.665821    33A     -0.661838  
      34A     -0.642876    35A     -0.636709    36A     -0.615549  
      37A     -0.610415    38A     -0.597938    39A     -0.580030  
      40A     -0.545783    41A     -0.537633    42A     -0.534119  
      43A     -0.522178    44A     -0.496620    45A     -0.419109  
      46A     -0.389505    47A     -0.360990    48A     -0.348378  
      49A     -0.326245  

    Virtual:                                                              

      50A      0.021869    51A      0.029322    52A      0.034435  
      53A      0.036826    54A      0.044534    55A      0.047288  
      56A      0.052961    57A      0.054580    58A      0.076555  
      59A      0.082856    60A      0.083175    61A      0.085874  
      62A      0.093380    63A      0.095566    64A      0.097276  
      65A      0.101277    66A      0.104397    67A      0.108511  
      68A      0.110214    69A      0.113140    70A      0.113342  
      71A      0.118689    72A      0.120851    73A      0.125248  
      74A      0.129480    75A      0.131719    76A      0.133867  
      77A      0.135426    78A      0.140714    79A      0.143647  
      80A      0.147494    81A      0.151769    82A      0.153846  
      83A      0.155573    84A      0.156303    85A      0.166844  
      86A      0.171409    87A      0.173247    88A      0.182692  
      89A      0.185752    90A      0.193945    91A      0.200830  
      92A      0.207959    93A      0.213547    94A      0.216268  
      95A      0.225048    96A      0.228448    97A      0.235611  
      98A      0.236332    99A      0.239912   100A      0.241508  
     101A      0.244286   102A      0.248688   103A      0.253422  
     104A      0.257182   105A      0.261018   106A      0.264469  
     107A      0.266763   108A      0.269484   109A      0.272648  
     110A      0.278779   111A      0.282081   112A      0.285726  
     113A      0.291082   114A      0.294770   115A      0.300756  
     116A      0.301919   117A      0.310804   118A      0.314132  
     119A      0.318461   120A      0.319221   121A      0.323069  
     122A      0.327076   123A      0.329714   124A      0.331693  
     125A      0.336274   126A      0.344929   127A      0.347956  
     128A      0.350762   129A      0.354643   130A      0.360514  
     131A      0.369474   132A      0.376123   133A      0.382583  
     134A      0.386827   135A      0.390158   136A      0.396065  
     137A      0.401381   138A      0.404023   139A      0.406787  
     140A      0.414861   141A      0.415630   142A      0.420443  
     143A      0.425182   144A      0.428593   145A      0.430669  
     146A      0.436976   147A      0.443122   148A      0.446032  
     149A      0.447792   150A      0.451708   151A      0.458924  
     152A      0.463548   153A      0.467314   154A      0.469638  
     155A      0.474657   156A      0.477583   157A      0.480867  
     158A      0.485609   159A      0.486391   160A      0.488319  
     161A      0.493993   162A      0.498341   163A      0.498821  
     164A      0.502023   165A      0.509841   166A      0.511383  
     167A      0.513012   168A      0.513879   169A      0.522945  
     170A      0.523369   171A      0.525463   172A      0.530767  
     173A      0.536101   174A      0.540132   175A      0.544748  
     176A      0.547545   177A      0.550646   178A      0.556190  
     179A      0.559078   180A      0.562054   181A      0.573794  
     182A      0.576680   183A      0.580751   184A      0.585122  
     185A      0.592023   186A      0.593161   187A      0.603822  
     188A      0.613290   189A      0.621001   190A      0.626265  
     191A      0.627682   192A      0.637218   193A      0.641611  
     194A      0.643603   195A      0.649271   196A      0.657604  
     197A      0.660005   198A      0.673563   199A      0.679734  
     200A      0.683638   201A      0.695329   202A      0.696675  
     203A      0.703046   204A      0.707207   205A      0.709758  
     206A      0.718527   207A      0.720794   208A      0.725745  
     209A      0.733496   210A      0.738031   211A      0.738553  
     212A      0.740235   213A      0.748580   214A      0.756843  
     215A      0.765235   216A      0.767656   217A      0.776229  
     218A      0.780579   219A      0.789354   220A      0.791658  
     221A      0.801121   222A      0.803363   223A      0.811550  
     224A      0.822521   225A      0.823750   226A      0.830308  
     227A      0.830733   228A      0.839599   229A      0.851950  
     230A      0.854420   231A      0.856353   232A      0.862093  
     233A      0.864826   234A      0.871995   235A      0.873930  
     236A      0.880955   237A      0.887255   238A      0.888223  
     239A      0.893665   240A      0.899052   241A      0.904479  
     242A      0.908776   243A      0.912442   244A      0.923388  
     245A      0.928244   246A      0.931751   247A      0.933268  
     248A      0.935131   249A      0.941721   250A      0.945628  
     251A      0.948391   252A      0.957480   253A      0.960145  
     254A      0.963993   255A      0.965915   256A      0.970114  
     257A      0.973642   258A      0.985962   259A      0.988528  
     260A      0.991830   261A      0.997725   262A      1.002876  
     263A      1.007883   264A      1.010314   265A      1.019898  
     266A      1.022661   267A      1.024971   268A      1.027142  
     269A      1.032156   270A      1.037709   271A      1.044277  
     272A      1.048061   273A      1.050922   274A      1.053560  
     275A      1.061466   276A      1.064652   277A      1.072732  
     278A      1.072891   279A      1.080172   280A      1.083240  
     281A      1.086890   282A      1.093892   283A      1.098197  
     284A      1.103982   285A      1.108801   286A      1.112576  
     287A      1.118903   288A      1.126457   289A      1.128260  
     290A      1.130696   291A      1.134587   292A      1.144619  
     293A      1.147827   294A      1.154651   295A      1.155468  
[...]
	 B(1,2,16)        =         2.116246	     121.251978
	 B(1,8,9)         =         2.120134	     121.474718
	 B(1,8,11)        =         2.034048	     116.542341
	 B(2,1,8)         =         2.129125	     121.989878
	 B(2,1,15)        =         2.088047	     119.636259
	 B(2,10,5)        =         2.093414	     119.943791
	 B(2,10,13)       =         2.049983	     117.455391
	 B(3,6,12)        =         2.156786	     123.574764
	 B(3,6,20)        =         2.097151	     120.157910
	 B(3,9,4)         =         2.047876	     117.334633
	 B(3,9,8)         =         2.110404	     120.917241
	 B(4,7,12)        =         2.158852	     123.693124
	 B(4,7,21)        =         2.096293	     120.108743
	 B(4,9,8)         =         2.124660	     121.734065
	 B(5,10,13)       =         2.139784	     122.600617
	 B(5,11,8)        =         2.147390	     123.036369
	 B(5,11,14)       =         2.055613	     117.777946
	 B(6,3,9)         =         2.082420	     119.313888
	 B(6,3,17)        =         2.101645	     120.415378
	 B(6,12,7)        =         2.039546	     116.857399
	 B(7,4,9)         =         2.080663	     119.213192
	 B(7,4,18)        =         2.101221	     120.391092
	 B(8,1,15)        =         2.065995	     118.372782
	 B(8,11,14)       =         2.080051	     119.178122
	 B(9,3,17)        =         2.099118	     120.270580
	 B(9,4,18)        =         2.101282	     120.394585
	 B(9,8,11)        =         2.128068	     121.929337
	 B(10,2,16)       =         2.080077	     119.179640
	 B(10,5,11)       =         2.075369	     118.909906
	 B(10,5,19)       =         2.127295	     121.885038
	 B(10,13,22)      =         1.907172	     109.272912
	 B(11,5,19)       =         2.080518	     119.204910
	 B(12,6,20)       =         2.029207	     116.264974
	 B(12,7,21)       =         2.028038	     116.198020
	 D(1,2,10,5)      =        -0.003475	      -0.199099
	 D(1,2,10,13)     =         3.140888	     179.959642
	 D(1,8,9,3)       =         1.041621	      59.680492
	 D(1,8,9,4)       =        -2.124417	    -121.720123
	 D(1,8,11,5)      =        -0.022818	      -1.307402
	 D(1,8,11,14)     =         3.136638	     179.716106
	 D(2,1,8,9)       =         3.114421	     178.443196
	 D(2,1,8,11)      =         0.018448	       1.056988
	 D(2,10,5,11)     =        -0.000467	      -0.026743
	 D(2,10,5,19)     =         3.138685	     179.833391
	 D(2,10,13,22)    =         3.139945	     179.905573
	 D(3,6,12,7)      =        -0.000805	      -0.046126
	 D(3,9,4,7)       =        -0.020169	      -1.155604
	 D(3,9,4,18)      =         3.128150	     179.229768
	 D(3,9,8,11)      =        -2.148060	    -123.074778
	 D(4,7,12,6)      =         0.004402	       0.252238
	 D(4,9,3,6)       =         0.023478	       1.345195
	 D(4,9,3,17)      =        -3.115637	    -178.512867
	 D(4,9,8,11)      =         0.969087	      55.524607
	 D(5,10,2,16)     =         3.128922	     179.274017
	 D(5,10,13,22)    =         0.001202	       0.068849
	 D(5,11,8,9)      =        -3.118568	    -178.680760
	 D(6,3,9,8)       =        -3.141518	    -179.995746
	 D(6,12,7,21)     =        -3.139333	    -179.870546
	 D(7,4,9,8)       =        -3.138154	    -179.802975
	 D(7,12,6,20)     =         3.131038	     179.395285
	 D(8,1,2,10)      =        -0.005931	      -0.339840
	 D(8,1,2,16)      =        -3.138132	    -179.801738
	 D(8,9,3,17)      =         0.002552	       0.146192
	 D(8,9,4,18)      =         0.010165	       0.582397
	 D(8,11,5,10)     =         0.014280	       0.818163
	 D(8,11,5,19)     =        -3.124938	    -179.045779
	 D(9,3,6,12)      =        -0.013541	      -0.775849
	 D(9,3,6,20)      =         3.138163	     179.803486
	 D(9,4,7,12)      =         0.006440	       0.369000
	 D(9,4,7,21)      =        -3.132930	    -179.503646
	 D(9,8,1,15)      =        -0.020542	      -1.176963
	 D(9,8,11,14)     =         0.040889	       2.342749
	 D(10,2,1,15)     =         3.128950	     179.275646
	 D(10,5,11,14)    =         3.138244	     179.808136
	 D(11,5,10,13)    =         3.138208	     179.806052
	 D(11,8,1,15)     =        -3.116515	    -178.563171
	 D(12,6,3,17)     =         3.125571	     179.082002
	 D(12,7,4,18)     =         3.141307	     179.983641
	 D(13,10,2,16)    =        -0.009900	      -0.567242
	 D(13,10,5,19)    =        -0.005826	      -0.333815
	 D(14,11,5,19)    =        -0.000974	      -0.055806
	 D(15,1,2,16)     =        -0.003251	      -0.186253
	 D(17,3,6,20)     =        -0.005911	      -0.338662
	 D(18,4,7,21)     =         0.001937	       0.110995
	 R(4,14)          =         5.692232	       3.012200

	Current energy   :      -652.8746358780

	Energy change for the previous step:
		Projected    :         0.0000001808
		Actual       :         0.0000003160

	Performing BFGS update.
	Previous computed or guess Hessian on step 1.
	Steps to be used in Hessian update: 6 5
	Adding user-defined constraint: Fragment 1; Coordinate 61:
		Value =     1.041621; Fixed value    =     1.047200
		Force =     0.003626; Force constant =     0.650000
	Removing off-diagonal coupling between coordinate 61 and others.
	Taking RFO optimization step.
	Going to follow RFO solution 1.
	Rejecting RFO root 1 because normalization gives large value.
	Using RFO vector 2.
	Norm of target step-size    0.00386
	Projected energy change by RFO approximation:        -0.0000005482

	Back-transformation to cartesian coordinates...
	Could not converge backtransformation.
	Using first guess instead.

	--- Internal Coordinate Step in ANG or DEG, aJ/ANG or AJ/DEG ---
	 ---------------------------------------------------------------------------
	   Coordinate                Previous        Force       Change         New 
	   ----------                --------       ------       ------       ------
	    1 R(1,2)          =      1.382885    -0.000176    -0.000058     1.382828
	    2 R(1,8)          =      1.394361     0.000256     0.000109     1.394470
	    3 R(1,15)         =      1.079902    -0.000201    -0.000035     1.079867
	    4 R(2,10)         =      1.387856     0.000033     0.000035     1.387891
	    5 R(2,16)         =      1.077999    -0.000035     0.000005     1.078004
	    6 R(3,6)          =      1.386475    -0.000346    -0.000063     1.386413
	    7 R(3,9)          =      1.389959     0.000175     0.000040     1.389999
	    8 R(3,17)         =      1.079784    -0.000173    -0.000028     1.079756
	    9 R(4,7)          =      1.385736    -0.000217    -0.000031     1.385705
	   10 R(4,9)          =      1.390027     0.000008    -0.000000     1.390027
	   11 R(4,18)         =      1.079101    -0.000203    -0.000037     1.079064
	   12 R(5,10)         =      1.387370    -0.000245    -0.000061     1.387309
	   13 R(5,11)         =      1.379746    -0.000010     0.000024     1.379770
	   14 R(5,19)         =      1.079337     0.000032     0.000009     1.079346
	   15 R(6,12)         =      1.334525     0.000356     0.000069     1.334593
	   16 R(6,20)         =      1.081013     0.000018     0.000005     1.081018
	   17 R(7,12)         =      1.335430     0.000171     0.000029     1.335459
	   18 R(7,21)         =      1.080883     0.000068     0.000017     1.080899
	   19 R(8,9)          =      1.463376    -0.000030    -0.000037     1.463339
	   20 R(8,11)         =      1.385815    -0.000553    -0.000124     1.385690
	   21 R(10,13)        =      1.360121    -0.000127    -0.000035     1.360086
	   22 R(11,14)        =      1.345857     0.000080     0.000082     1.345939
	   23 R(13,22)        =      0.961940    -0.000124    -0.000013     0.961927
	   24 B(1,2,10)       =    119.566230     0.000001     0.006984   119.573214
	   25 B(1,2,16)       =    121.251978    -0.000001    -0.000521   121.251457
	   26 B(1,8,9)        =    121.474718    -0.000002    -0.020443   121.454275
	   27 B(1,8,11)       =    116.542341    -0.000001    -0.006416   116.535926
	   28 B(2,1,8)        =    121.989878    -0.000001    -0.002943   121.986936
	   29 B(2,1,15)       =    119.636259     0.000001     0.003032   119.639290
	   30 B(2,10,5)       =    119.943791    -0.000001    -0.006288   119.937503
	   31 B(2,10,13)      =    117.455391     0.000001     0.003111   117.458502
	   32 B(3,6,12)       =    123.574764    -0.000001    -0.002240   123.572523
	   33 B(3,6,20)       =    120.157910     0.000001     0.006258   120.164168
	   34 B(3,9,4)        =    117.334633     0.000001     0.001559   117.336192
	   35 B(3,9,8)        =    120.917241     0.000000    -0.003089   120.914152
	   36 B(4,7,12)       =    123.693124    -0.000001    -0.000925   123.692199
	   37 B(4,7,21)       =    120.108743     0.000001     0.003912   120.112654
	   38 B(4,9,8)        =    121.734065    -0.000001     0.000533   121.734598
	   39 B(5,10,13)      =    122.600617     0.000000     0.003231   122.603848
	   40 B(5,11,8)       =    123.036369     0.000002     0.009020   123.045389
	   41 B(5,11,14)      =    117.777946    -0.000000    -0.008433   117.769513
	   42 B(6,3,9)        =    119.313888    -0.000000     0.000569   119.314457
	   43 B(6,3,17)       =    120.415378    -0.000001    -0.003758   120.411620
	   44 B(6,12,7)       =    116.857399     0.000001     0.001412   116.858811
	   45 B(7,4,9)        =    119.213192    -0.000000    -0.000567   119.212625
	   46 B(7,4,18)       =    120.391092    -0.000001    -0.006700   120.384392
	   47 B(8,1,15)       =    118.372782     0.000000    -0.000032   118.372750
	   48 B(8,11,14)      =    119.178122    -0.000001    -0.000453   119.177669
	   49 B(9,3,17)       =    120.270580     0.000001     0.003202   120.273782
	   50 B(9,4,18)       =    120.394585     0.000001     0.007198   120.401783
	   51 B(9,8,11)       =    121.929337     0.000003     0.025079   121.954415
	   52 B(10,2,16)      =    119.179640    -0.000000    -0.006444   119.173195
	   53 B(10,5,11)      =    118.909906     0.000000    -0.000547   118.909359
	   54 B(10,5,19)      =    121.885038     0.000001     0.012789   121.897827
	   55 B(10,13,22)     =    109.272912     0.000001     0.006335   109.279247
	   56 B(11,5,19)      =    119.204910    -0.000001    -0.012225   119.192685
	   57 B(12,6,20)      =    116.264974    -0.000000    -0.003369   116.261605
	   58 B(12,7,21)      =    116.198020    -0.000000    -0.002893   116.195126
	   59 D(1,2,10,5)     =     -0.199099     0.000000     0.006859    -0.192240
	   60 D(1,2,10,13)    =    179.959642    -0.000000    -0.015950   179.943692
	   61 D(1,8,9,3)      =     59.680492     0.000001     0.014537    59.695029
	   62 D(1,8,9,4)      =   -121.720123     0.000001    -0.034224  -121.754348
	   63 D(1,8,11,5)     =     -1.307402     0.000000    -0.011308    -1.318711
	   64 D(1,8,11,14)    =    179.716106    -0.000000    -0.020350   179.695756
	   65 D(2,1,8,9)      =    178.443196    -0.000000    -0.032934   178.410261
	   66 D(2,1,8,11)     =      1.056988     0.000000     0.009371     1.066359
	   67 D(2,10,5,11)    =     -0.026743    -0.000000    -0.008394    -0.035136
	   68 D(2,10,5,19)    =    179.833391    -0.000000    -0.000384   179.833006
	   69 D(2,10,13,22)   =    179.905573     0.000000     0.005354   179.910927
	   70 D(3,6,12,7)     =     -0.046126    -0.000000    -0.034988    -0.081114
	   71 D(3,9,4,7)      =     -1.155604    -0.000000    -0.037316    -1.192920
	   72 D(3,9,4,18)     =    179.229768    -0.000000    -0.025754   179.204014
	   73 D(3,9,8,11)     =   -123.074778     0.000001    -0.030982  -123.105760
	   74 D(4,7,12,6)     =      0.252238    -0.000000    -0.009839     0.242399
	   75 D(4,9,3,6)      =      1.345195    -0.000000    -0.003648     1.341547
	   76 D(4,9,3,17)     =   -178.512867    -0.000000    -0.009353  -178.522220
	   77 D(4,9,8,11)     =     55.524607     0.000000    -0.079744    55.444863
	   78 D(5,10,2,16)    =    179.274017     0.000000     0.009122   179.283140
	   79 D(5,10,13,22)   =      0.068849    -0.000000    -0.018093     0.050756
	   80 D(5,11,8,9)     =   -178.680760     0.000000     0.032517  -178.648242
	   81 D(6,3,9,8)      =   -179.995746    -0.000000    -0.050343  -180.046089
	   82 D(6,12,7,21)    =   -179.870546     0.000001     0.060678  -179.809869
	   83 D(7,4,9,8)      =   -179.802975     0.000000     0.009839  -179.793136
	   84 D(7,12,6,20)    =    179.395285     0.000001     0.048165   179.443451
	   85 D(8,1,2,10)     =     -0.339840    -0.000000    -0.007536    -0.347376
	   86 D(8,1,2,16)     =   -179.801738    -0.000000    -0.009816  -179.811555
	   87 D(8,9,3,17)     =      0.146192    -0.000000    -0.056048     0.090144
	   88 D(8,9,4,18)     =      0.582397     0.000000     0.021401     0.603799
	   89 D(8,11,5,10)    =      0.818163    -0.000000     0.011094     0.829257
	   90 D(8,11,5,19)    =   -179.045779    -0.000000     0.003270  -179.042509
	   91 D(9,3,6,12)     =     -0.775849     0.000000     0.042062    -0.733787
	   92 D(9,3,6,20)     =    179.803486    -0.000000    -0.044134   179.759352
	   93 D(9,4,7,12)     =      0.369000     0.000000     0.046383     0.415383
	   94 D(9,4,7,21)     =   -179.503646    -0.000000    -0.026754  -179.530400
	   95 D(9,8,1,15)     =     -1.176963    -0.000000    -0.043012    -1.219974
	   96 D(9,8,11,14)    =      2.342749    -0.000000     0.023475     2.366224
	   97 D(10,2,1,15)    =    179.275646    -0.000000     0.002655   179.278300
	   98 D(10,5,11,14)   =    179.808136     0.000000     0.020090   179.828225
	   99 D(11,5,10,13)   =    179.806052     0.000000     0.015631   179.821683
	  100 D(11,8,1,15)    =   -178.563171    -0.000000    -0.000707  -178.563877
	  101 D(12,6,3,17)    =    179.082002     0.000001     0.047785   179.129787
	  102 D(12,7,4,18)    =    179.983641     0.000000     0.034878   180.018520
	  103 D(13,10,2,16)   =     -0.567242    -0.000000    -0.013687    -0.580929
	  104 D(13,10,5,19)   =     -0.333815     0.000000     0.023640    -0.310175
	  105 D(14,11,5,19)   =     -0.055806     0.000000     0.012265    -0.043541
	  106 D(15,1,2,16)    =     -0.186253    -0.000000     0.000374    -0.185879
	  107 D(17,3,6,20)    =     -0.338662    -0.000000    -0.038411    -0.377073
	  108 D(18,4,7,21)    =      0.110995    -0.000000    -0.038259     0.072736
	  109 R(4,14)         =      3.012200     0.000085    -0.000273     3.011927
	 ---------------------------------------------------------------------------
	Successfully symmetrized geometry.
	 Forces used to impose fixed constraints are not included.
	  Forces zeroed: 61 

  ==> Convergence Check <==

  Measures of convergence in internal coordinates in au.
  Criteria marked as inactive (o), active & met (*), and active & unmet ( ).
  ---------------------------------------------------------------------------------------------
   Step     Total Energy     Delta E     MAX Force     RMS Force      MAX Disp      RMS Disp   
  ---------------------------------------------------------------------------------------------
    Convergence Criteria    1.00e-06 *    3.00e-04 *             o    1.20e-03 *             o
  ---------------------------------------------------------------------------------------------
      7    -652.87463588    3.16e-07 *    6.72e-05 *    1.79e-05 o    1.39e-03      3.69e-04 o  ~
  ---------------------------------------------------------------------------------------------


  **** Optimization is complete! (in 7 steps) ****

  ==> Optimization Summary <==

  Measures of convergence in internal coordinates in au.
  --------------------------------------------------------------------------------------------------------------- ~
   Step         Total Energy             Delta E       MAX Force       RMS Force        MAX Disp        RMS Disp  ~
  --------------------------------------------------------------------------------------------------------------- ~
      1    -652.870540411461   -652.870540411461      0.01594949      0.00473572      0.02928526      0.00958212  ~
      2    -652.873788889862     -0.003248478400      0.00538307      0.00170489      0.03536726      0.00959853  ~
      3    -652.874577245257     -0.000788355395      0.00219585      0.00037733      0.02359025      0.00443019  ~
      4    -652.874631711854     -0.000054466598      0.00071477      0.00014164      0.01037590      0.00198922  ~
      5    -652.874643216684     -0.000011504830      0.00026213      0.00005231      0.00252045      0.00090606  ~
      6    -652.874636194086      0.000007022598      0.00011233      0.00002927      0.00210098      0.00067026  ~
      7    -652.874635878040      0.000000316046      0.00006717      0.00001855      0.00139180      0.00036941  ~
  --------------------------------------------------------------------------------------------------------------- ~

	Writing optimization data to binary file.
	Final energy is   -652.8746358780401
	Final (previous) structure:
	Cartesian Geometry (in Angstrom)
	    C    -1.3234113447   0.7960114450  -0.7565655388
	    C    -2.3995728448   1.3563452523  -0.0930338004
	    C     1.6471326234   0.3123289161  -1.6446189903
	    C     1.1660288904  -1.7761497686  -0.6222050578
	    C    -1.4250433082   0.6992351679   2.0025893351
	    C     2.6965247279  -0.3080851461  -2.3050553829
	    C     2.2374340186  -2.3075374489  -1.3221926501
	    C    -0.2718298893   0.1850079958  -0.0745876450
	    C     0.8450853301  -0.4340375865  -0.7892574426
	    C    -2.4493294634   1.3094064655   1.2931356510
	    C    -0.3692275016   0.1465367315   1.3072647747
	    N     3.0010358087  -1.5990374679  -2.1578448910
	    O    -3.5266974437   1.8743487120   1.9014512795
	    F     0.6137544359  -0.4360733931   2.0183507157
	    H    -1.2892538336   0.8215053626  -1.8356262711
	    H    -3.2078325721   1.8230554845  -0.6324600402
	    H     1.4552787373   1.3648574629  -1.7905938233
	    H     0.5839214118  -2.3984017640   0.0399220110
	    H    -1.4305102713   0.6472302329   3.0806587836
	    H     3.3269422793   0.2586439205  -2.9758616687
	    H     2.4948044517  -3.3512484801  -1.2093426574
	    H    -3.4418969100   1.7743485749   2.8544138567
	Saving final (previous) structure.
			--------------------------
			 OPTKING Finished Execution 
			--------------------------

    Final optimized geometry and variables:
    Molecular point group: c1
    Full point group: C1

    Geometry (in Angstrom), charge = 0, multiplicity = 1:

    C           -1.323411344661     0.796011445012    -0.756565538752
    C           -2.399572844834     1.356345252292    -0.093033800355
    C            1.647132623406     0.312328916115    -1.644618990254
    C            1.166028890414    -1.776149768571    -0.622205057754
    C           -1.425043308186     0.699235167869     2.002589335147
    C            2.696524727909    -0.308085146076    -2.305055382870
    C            2.237434018551    -2.307537448895    -1.322192650144
    C           -0.271829889314     0.185007995843    -0.074587645007
    C            0.845085330069    -0.434037586492    -0.789257442608
    C           -2.449329463370     1.309406465533     1.293135650961
    C           -0.369227501573     0.146536731539     1.307264774734
    N            3.001035808714    -1.599037467943    -2.157844890992
    O           -3.526697443703     1.874348712006     1.901451279536
    F            0.613754435865    -0.436073393144     2.018350715691
    H           -1.289253833592     0.821505362633    -1.835626271103
    H           -3.207832572132     1.823055484505    -0.632460040212
    H            1.455278737267     1.364857462886    -1.790593823304
    H            0.583921411799    -2.398401764045     0.039922010998
    H           -1.430510271333     0.647230232924     3.080658783628
    H            3.326942279293     0.258643920495    -2.975861668716
    H            2.494804451655    -3.351248480067    -1.209342657392
    H           -3.441896909979     1.774348574944     2.854413856696

	Cleaning optimization helper files.

*** Psi4 exiting successfully. Buy a developer a beer!
