
    -----------------------------------------------------------------------
          Psi4: An Open-Source Ab Initio Electronic Structure Package
                               Psi4 1.1 release

                         Git: Rev {HEAD} add49b9 


    R. M. Parrish, L. A. Burns, D. G. A. Smith, A. C. Simmonett,
    A. E. DePrince III, E. G. Hohenstein, U. Bozkaya, A. Yu. Sokolov,
    R. Di Remigio, R. M. Richard, J. F. Gonthier, A. M. James,
    H. R. McAlexander, A. Kumar, M. Saitow, X. Wang, B. P. Pritchard,
    P. Verma, H. F. Schaefer III, K. Patkowski, R. A. King, E. F. Valeev,
    F. A. Evangelista, J. M. Turney, T. D. Crawford, and C. D. Sherrill,
    J. Chem. Theory Comput. in press (2017).
    (doi: 10.1021/acs.jctc.7b00174)

    -----------------------------------------------------------------------


    Psi4 started on: Saturday, 11 November 2017 06:12PM

    Process ID:  23717
    PSIDATADIR: /cbio/jclab/home/chayas/anaconda/envs/py35/share/psi4
    Memory:     500.0 MiB
    Threads:    8
    
  ==> Input File <==

--------------------------------------------------------------------------

memory 5 Gb

molecule phepyrF {
  symmetry C1
  0 1 
  C      1.885   -1.036   -0.112
  C      0.807   -0.463   0.561
  C      2.921   -1.631   0.608
  C      0.764   -0.484   1.955
  C      5.246   -2.278   2.227
  C      3.704   -2.856   3.981
  C      6.242   -2.881   2.978
  C      4.769   -3.433   4.653
  C      2.878   -1.652   2.002
  C      3.955   -2.270   2.745
  C      1.800   -1.079   2.676
  N      6.036   -3.461   4.182
  F      1.744   -1.089   4.016
  H      1.918   -1.020   -1.198
  H      0.000   -0.000   -0.000
  H      3.755   -2.073   0.068
  H      -0.076   -0.038   2.480
  H      5.481   -1.830   1.268
  H      2.710   -2.869   4.416
  H      7.266   -2.912   2.620
  H      4.625   -3.905   5.619
  units Angstrom
}

dih_string = "3 9 10 5 30"
set optking fixed_dihedral = $dih_string

optimize('MP2/aug-cc-PVTZ')
--------------------------------------------------------------------------

  Memory set to   4.657 GiB by Python driver.
gradient() will perform analytic gradient computation.

*** tstart() called on gpu-2-8.local
*** at Sat Nov 11 18:12:58 2017

    SCF Algorithm Type (re)set to DF.

*** tstart() called on gpu-2-8.local
*** at Sat Nov 11 18:12:58 2017

   => Loading Basis Set <=

    Name: AUG-CC-PVTZ
    Role: ORBITAL
    Keyword: BASIS
    atoms 1-11  entry C          line   221 file /cbio/jclab/home/chayas/anaconda/envs/py35/share/psi4/basis/aug-cc-pvtz.gbs 
    atoms 12    entry N          line   267 file /cbio/jclab/home/chayas/anaconda/envs/py35/share/psi4/basis/aug-cc-pvtz.gbs 
    atoms 13    entry F          line   359 file /cbio/jclab/home/chayas/anaconda/envs/py35/share/psi4/basis/aug-cc-pvtz.gbs 
    atoms 14-21 entry H          line    34 file /cbio/jclab/home/chayas/anaconda/envs/py35/share/psi4/basis/aug-cc-pvtz.gbs 


         ---------------------------------------------------------
                                   SCF
            by Justin Turney, Rob Parrish, and Andy Simmonett
                              RHF Reference
                        8 Threads,   4768 MiB Core
         ---------------------------------------------------------

  ==> Geometry <==

    Molecular point group: c1
    Full point group: C1

    Geometry (in Angstrom), charge = 0, multiplicity = 1:

       Center              X                  Y                   Z               Mass       
    ------------   -----------------  -----------------  -----------------  -----------------
           C         -1.369214953775     0.840019091910    -2.663303314738    12.000000000000
           C         -2.447214953775     1.413019091910    -1.990303314738    12.000000000000
           C         -0.333214953775     0.245019091910    -1.943303314738    12.000000000000
           C         -2.490214953775     1.392019091910    -0.596303314738    12.000000000000
           C          1.991785046225    -0.401980908090    -0.324303314738    12.000000000000
           C          0.449785046225    -0.979980908090     1.429696685262    12.000000000000
           C          2.987785046225    -1.004980908090     0.426696685262    12.000000000000
           C          1.514785046225    -1.556980908090     2.101696685262    12.000000000000
           C         -0.376214953775     0.224019091910    -0.549303314738    12.000000000000
           C          0.700785046225    -0.393980908090     0.193696685262    12.000000000000
           C         -1.454214953775     0.797019091910     0.124696685262    12.000000000000
           N          2.781785046225    -1.584980908090     1.630696685262    14.003074004780
           F         -1.510214953775     0.787019091910     1.464696685262    18.998403224000
           H         -1.336214953775     0.856019091910    -3.749303314738     1.007825032070
           H         -3.254214953775     1.876019091910    -2.551303314738     1.007825032070
           H          0.500785046225    -0.196980908090    -2.483303314738     1.007825032070
           H         -3.330214953775     1.838019091910    -0.071303314738     1.007825032070
           H          2.226785046225     0.046019091910    -1.283303314738     1.007825032070
           H         -0.544214953775    -0.992980908090     1.864696685262     1.007825032070
           H          4.011785046225    -1.035980908090     0.068696685262     1.007825032070
           H          1.370785046225    -2.028980908090     3.067696685262     1.007825032070

  Running in c1 symmetry.

  Rotational constants: A =      0.06385  B =      0.01858  C =      0.01478 [cm^-1]
  Rotational constants: A =   1914.19370  B =    557.13298  C =    443.04628 [MHz]
  Nuclear repulsion =  717.865864692705941

  Charge       = 0
  Multiplicity = 1
  Electrons    = 90
  Nalpha       = 45
  Nbeta        = 45

  ==> Algorithm <==

  SCF Algorithm Type is DF.
  DIIS enabled.
  MOM disabled.
  Fractional occupation disabled.
  Guess Type is SAD.
  Energy threshold   = 1.00e-10
  Density threshold  = 1.00e-10
  Integral threshold = 0.00e+00

  ==> Primary Basis <==

  Basis Set: AUG-CC-PVTZ
    Blend: AUG-CC-PVTZ
    Number of shells: 254
    Number of basis function: 782
    Number of Cartesian functions: 915
    Spherical Harmonics?: true
    Max angular momentum: 3

   => Loading Basis Set <=

    Name: (AUG-CC-PVTZ AUX)
    Role: JKFIT
    Keyword: DF_BASIS_SCF
    atoms 1-11  entry C          line   161 file /cbio/jclab/home/chayas/anaconda/envs/py35/share/psi4/basis/aug-cc-pvtz-jkfit.gbs 
    atoms 12    entry N          line   223 file /cbio/jclab/home/chayas/anaconda/envs/py35/share/psi4/basis/aug-cc-pvtz-jkfit.gbs 
    atoms 13    entry F          line   347 file /cbio/jclab/home/chayas/anaconda/envs/py35/share/psi4/basis/aug-cc-pvtz-jkfit.gbs 
    atoms 14-21 entry H          line    69 file /cbio/jclab/home/chayas/anaconda/envs/py35/share/psi4/basis/aug-cc-pvtz-jkfit.gbs 

  ==> Pre-Iterations <==

   -------------------------------------------------------
    Irrep   Nso     Nmo     Nalpha   Nbeta   Ndocc  Nsocc
   -------------------------------------------------------
     A        782     782       0       0       0       0
   -------------------------------------------------------
    Total     782     782      45      45      45       0
   -------------------------------------------------------

  ==> Integral Setup <==

  ==> DFJK: Density-Fitted J/K Matrices <==

    J tasked:                  Yes
    K tasked:                  Yes
    wK tasked:                  No
    OpenMP threads:              8
    Integrals threads:           8
    Memory (MB):              3576
    Algorithm:                Disk
    Integral Cache:           NONE
    Schwarz Cutoff:          1E-12
    Fitting Condition:       1E-12

   => Auxiliary Basis Set <=

  Basis Set: (AUG-CC-PVTZ AUX)
    Blend: AUG-CC-PVTZ-JKFIT
    Number of shells: 502
    Number of basis function: 1720
    Number of Cartesian functions: 2143
    Spherical Harmonics?: true
    Max angular momentum: 4

  Minimum eigenvalue in the overlap matrix is 6.3724434474E-07.
  Using Symmetric Orthogonalization.

  SCF Guess: Superposition of Atomic Densities via on-the-fly atomic UHF.

  ==> Iterations <==

                           Total Energy        Delta E     RMS |[F,P]|

   @DF-RHF iter   0:  -580.40508802301645   -5.80405e+02   2.01587e-02 
   @DF-RHF iter   1:  -574.90304524507360    5.50204e+00   2.13441e-03 
   @DF-RHF iter   2:  -575.21247372374626   -3.09428e-01   1.01488e-03 DIIS
   @DF-RHF iter   3:  -575.26497268468836   -5.24990e-02   4.52333e-04 DIIS
   @DF-RHF iter   4:  -575.27799677037126   -1.30241e-02   1.20429e-04 DIIS
   @DF-RHF iter   5:  -575.27909432597119   -1.09756e-03   4.04744e-05 DIIS
   @DF-RHF iter   6:  -575.27933696921821   -2.42643e-04   1.53666e-05 DIIS
   @DF-RHF iter   7:  -575.27937116008070   -3.41909e-05   5.23224e-06 DIIS
   @DF-RHF iter   8:  -575.27937461220858   -3.45213e-06   1.27657e-06 DIIS
   @DF-RHF iter   9:  -575.27937499417396   -3.81965e-07   6.99947e-07 DIIS
   @DF-RHF iter  10:  -575.27937509040078   -9.62268e-08   2.82632e-07 DIIS
   @DF-RHF iter  11:  -575.27937512407686   -3.36761e-08   1.73511e-07 DIIS
   @DF-RHF iter  12:  -575.27937512995402   -5.87715e-09   6.86064e-08 DIIS
   @DF-RHF iter  13:  -575.27937513079996   -8.45944e-10   1.53822e-08 DIIS
   @DF-RHF iter  14:  -575.27937513087431   -7.43512e-11   4.62712e-09 DIIS
   @DF-RHF iter  15:  -575.27937513088023   -5.91172e-12   3.57923e-09 DIIS
   @DF-RHF iter  16:  -575.27937513089182   -1.15961e-11   1.68766e-09 DIIS
   @DF-RHF iter  17:  -575.27937513088023    1.15961e-11   8.38642e-10 DIIS
   @DF-RHF iter  18:  -575.27937513087977    4.54747e-13   4.05397e-10 DIIS
   @DF-RHF iter  19:  -575.27937513087636    3.41061e-12   1.62931e-10 DIIS
   @DF-RHF iter  20:  -575.27937513089091   -1.45519e-11   4.07571e-11 DIIS

  ==> Post-Iterations <==

    Orbital Energies (a.u.)
    -----------------------

    Doubly Occupied:                                                      

       1A    -26.326497     2A    -15.564242     3A    -11.343478  
       4A    -11.274309     5A    -11.272388     6A    -11.266119  
       7A    -11.262410     8A    -11.259665     9A    -11.259458  
      10A    -11.257011    11A    -11.251758    12A    -11.240066  
      13A    -11.234938    14A     -1.647752    15A     -1.249510  
      16A     -1.184879    17A     -1.114100    18A     -1.039232  
      19A     -1.031961    20A     -1.026118    21A     -0.893041  
      22A     -0.876071    23A     -0.843442    24A     -0.824241  
      25A     -0.759092    26A     -0.725832    27A     -0.720987  
      28A     -0.712805    29A     -0.670380    30A     -0.660415  
      31A     -0.651581    32A     -0.625771    33A     -0.610619  
      34A     -0.596183    35A     -0.586904    36A     -0.550248  
      37A     -0.540841    38A     -0.522399    39A     -0.516953  
      40A     -0.505626    41A     -0.418352    42A     -0.410584  
      43A     -0.354061    44A     -0.348459    45A     -0.326689  

    Virtual:                                                              

      46A      0.023359    47A      0.029203    48A      0.033857  
      49A      0.039386    50A      0.043658    51A      0.046331  
      52A      0.056046    53A      0.057334    54A      0.064702  
      55A      0.078937    56A      0.082753    57A      0.086144  
      58A      0.090997    59A      0.094140    60A      0.099850  
      61A      0.104171    62A      0.107223    63A      0.108488  
      64A      0.114356    65A      0.115445    66A      0.117148  
      67A      0.118742    68A      0.121497    69A      0.130919  
      70A      0.131650    71A      0.134041    72A      0.137730  
      73A      0.139627    74A      0.142258    75A      0.146630  
      76A      0.149582    77A      0.151571    78A      0.154807  
      79A      0.162808    80A      0.168140    81A      0.174784  
      82A      0.175576    83A      0.180030    84A      0.184162  
      85A      0.188298    86A      0.199590    87A      0.204562  
      88A      0.215838    89A      0.223814    90A      0.223985  
      91A      0.227420    92A      0.228625    93A      0.231156  
      94A      0.240060    95A      0.242373    96A      0.246534  
      97A      0.250158    98A      0.253241    99A      0.259761  
     100A      0.264837   101A      0.266790   102A      0.268540  
     103A      0.275570   104A      0.284000   105A      0.284802  
     106A      0.289593   107A      0.292336   108A      0.297117  
     109A      0.298607   110A      0.303090   111A      0.310548  
     112A      0.313537   113A      0.315150   114A      0.318306  
     115A      0.322622   116A      0.327893   117A      0.336104  
     118A      0.337802   119A      0.340621   120A      0.346171  
     121A      0.351572   122A      0.355922   123A      0.363701  
     124A      0.367164   125A      0.377783   126A      0.380308  
     127A      0.382266   128A      0.388411   129A      0.395612  
     130A      0.403333   131A      0.411811   132A      0.412495  
     133A      0.417649   134A      0.421538   135A      0.429828  
     136A      0.432111   137A      0.434349   138A      0.436903  
     139A      0.439704   140A      0.446745   141A      0.447003  
     142A      0.453043   143A      0.456798   144A      0.460372  
     145A      0.466561   146A      0.468704   147A      0.473422  
     148A      0.475839   149A      0.477334   150A      0.484846  
     151A      0.488452   152A      0.493840   153A      0.495365  
     154A      0.499606   155A      0.503256   156A      0.505645  
     157A      0.507637   158A      0.508467   159A      0.511821  
     160A      0.520108   161A      0.522441   162A      0.524486  
     163A      0.528304   164A      0.532340   165A      0.534446  
     166A      0.537888   167A      0.540766   168A      0.543761  
     169A      0.547064   170A      0.552077   171A      0.559156  
     172A      0.560341   173A      0.573103   174A      0.574934  
     175A      0.579949   176A      0.586393   177A      0.590829  
     178A      0.601822   179A      0.608458   180A      0.609338  
     181A      0.617800   182A      0.626477   183A      0.630360  
     184A      0.637193   185A      0.646630   186A      0.648686  
     187A      0.651985   188A      0.665766   189A      0.676435  
     190A      0.681776   191A      0.687440   192A      0.692235  
     193A      0.699973   194A      0.704624   195A      0.706755  
     196A      0.707323   197A      0.717871   198A      0.724026  
     199A      0.726373   200A      0.739770   201A      0.741086  
     202A      0.743722   203A      0.744227   204A      0.750029  
     205A      0.754136   206A      0.769467   207A      0.772974  
     208A      0.777746   209A      0.779579   210A      0.791036  
     211A      0.803577   212A      0.803915   213A      0.809388  
     214A      0.819392   215A      0.823705   216A      0.833678  
     217A      0.842543   218A      0.851539   219A      0.856192  
     220A      0.857506   221A      0.862847   222A      0.871674  
     223A      0.872631   224A      0.878013   225A      0.882878  
     226A      0.884250   227A      0.887501   228A      0.888488  
     229A      0.894077   230A      0.907029   231A      0.907479  
     232A      0.913718   233A      0.915156   234A      0.919492  
     235A      0.922951   236A      0.930061   237A      0.937635  
     238A      0.943290   239A      0.947971   240A      0.954434  
     241A      0.958954   242A      0.966272   243A      0.970126  
     244A      0.973990   245A      0.978401   246A      0.985313  
     247A      0.988847   248A      0.990860   249A      0.993941  
     250A      1.001119   251A      1.007160   252A      1.011272  
     253A      1.013737   254A      1.017626   255A      1.024368  
     256A      1.026834   257A      1.028065   258A      1.037906  
     259A      1.044805   260A      1.045989   261A      1.050115  
     262A      1.061931   263A      1.067249   264A      1.068867  
     265A      1.070090   266A      1.075520   267A      1.078150  
     268A      1.085396   269A      1.088372   270A      1.088471  
     271A      1.095929   272A      1.099301   273A      1.107381  
     274A      1.110222   275A      1.118592   276A      1.124067  
     277A      1.126939   278A      1.136226   279A      1.136687  
     280A      1.146079   281A      1.146783   282A      1.159061  
     283A      1.168296   284A      1.174009   285A      1.174953  
     286A      1.179125   287A      1.186315   288A      1.188164  
     289A      1.189015   290A      1.197977   291A      1.202836  
     292A      1.203351   293A      1.207329   294A      1.211315  
     295A      1.216297   296A      1.220630   297A      1.229251  
     298A      1.235695   299A      1.237728   300A      1.249030  
     301A      1.262803   302A      1.263424   303A      1.268396  
     304A      1.274154   305A      1.282477   306A      1.286946  
     307A      1.293001   308A      1.296670   309A      1.300368  
     310A      1.313318   311A      1.318162   312A      1.323495  
     313A      1.330947   314A      1.337332   315A      1.352763  
     316A      1.361603   317A      1.364721   318A      1.368263  
     319A      1.376621   320A      1.390527   321A      1.393865  
     322A      1.403856   323A      1.410568   324A      1.418266  
     325A      1.422618   326A      1.426898   327A      1.435037  
     328A      1.438160   329A      1.450996   330A      1.474445  
     331A      1.477687   332A      1.493356   333A      1.495657  
     334A      1.498769   335A      1.512620   336A      1.514313  
     337A      1.525705   338A      1.527078   339A      1.543566  
     340A      1.546163   341A      1.555089   342A      1.560768  
     343A      1.578435   344A      1.582239   345A      1.592899  
     346A      1.598214   347A      1.603511   348A      1.617739  
     349A      1.626078   350A      1.637082   351A      1.645922  
     352A      1.653868   353A      1.658269   354A      1.665330  
     355A      1.672868   356A      1.679120   357A      1.689375  
     358A      1.698590   359A      1.709684   360A      1.710253  
     361A      1.716687   362A      1.725097   363A      1.733563  
     364A      1.735569   365A      1.738363   366A      1.747539  
     367A      1.755364   368A      1.776717   369A      1.778015  
     370A      1.784581   371A      1.793975   372A      1.798532  
     373A      1.807791   374A      1.817292   375A      1.825388  
     376A      1.830662   377A      1.833390   378A      1.844126  
     379A      1.859879   380A      1.865017   381A      1.871054  
     382A      1.880158   383A      1.895989   384A      1.899864  
     385A      1.919112   386A      1.922852   387A      1.933892  
     388A      1.941095   389A      1.945305   390A      1.954200  
     391A      1.966342   392A      1.968966   393A      1.977393  
     394A      1.986625   395A      1.989490   396A      1.995924  
     397A      2.001645   398A      2.015224   399A      2.018406  
     400A      2.025059   401A      2.027954   402A      2.035622  
     403A      2.045198   404A      2.046679   405A      2.055001  
     406A      2.065821   407A      2.073014   408A      2.081766  
     409A      2.087758   410A      2.090079   411A      2.098913  
     412A      2.112610   413A      2.116461   414A      2.126679  
     415A      2.130685   416A      2.133593   417A      2.144777  
     418A      2.161186   419A      2.163325   420A      2.171247  
     421A      2.181342   422A      2.190033   423A      2.200025  
     424A      2.210076   425A      2.214810   426A      2.231567  
     427A      2.237646   428A      2.243223   429A      2.250055  
     430A      2.258263   431A      2.274815   432A      2.288196  
     433A      2.294863   434A      2.306053   435A      2.312646  
     436A      2.327722   437A      2.331706   438A      2.339900  
     439A      2.354982   440A      2.365766   441A      2.368562  
     442A      2.380555   443A      2.388006   444A      2.401885  
     445A      2.408098   446A      2.418759   447A      2.427777  
     448A      2.442911   449A      2.465424   450A      2.478434  
     451A      2.482411   452A      2.507423   453A      2.516414  
     454A      2.529006   455A      2.531895   456A      2.544788  
     457A      2.561772   458A      2.566586   459A      2.586546  
     460A      2.594293   461A      2.614411   462A      2.624852  
     463A      2.629450   464A      2.653137   465A      2.665505  
     466A      2.696710   467A      2.706018   468A      2.731876  
     469A      2.753893   470A      2.760681   471A      2.785946  
     472A      2.796648   473A      2.818288   474A      2.831000  
     475A      2.849132   476A      2.867916   477A      2.892449  
     478A      2.904366   479A      2.945480   480A      2.982290  
     481A      2.999880   482A      3.022345   483A      3.035438  
     484A      3.054710   485A      3.065773   486A      3.088554  
     487A      3.110504   488A      3.133756   489A      3.138715  
     490A      3.161808   491A      3.172739   492A      3.176962  
     493A      3.179153   494A      3.205544   495A      3.215750  
     496A      3.236397   497A      3.248562   498A      3.256404  
     499A      3.282301   500A      3.300105   501A      3.305511  
     502A      3.322525   503A      3.330853   504A      3.336597  
     505A      3.345258   506A      3.357595   507A      3.362560  
     508A      3.376117   509A      3.394348   510A      3.401246  
     511A      3.414237   512A      3.422850   513A      3.435290  
     514A      3.443672   515A      3.452966   516A      3.455139  
     517A      3.465013   518A      3.469162   519A      3.488570  
     520A      3.492987   521A      3.503185   522A      3.506025  
     523A      3.507248   524A      3.515260   525A      3.529164  
     526A      3.537430   527A      3.552482   528A      3.562347  
     529A      3.565270   530A      3.575594   531A      3.576367  
     532A      3.578013   533A      3.585543   534A      3.599755  
     535A      3.612113   536A      3.633154   537A      3.640063  
     538A      3.649473   539A      3.656477   540A      3.668092  
     541A      3.675473   542A      3.681012   543A      3.692670  
     544A      3.706288   545A      3.709498   546A      3.718655  
     547A      3.728929   548A      3.740396   549A      3.747077  
     550A      3.765453   551A      3.769715   552A      3.778660  
     553A      3.792042   554A      3.799347   555A      3.802053  
     556A      3.815820   557A      3.818194   558A      3.827702  
     559A      3.842069   560A      3.851278   561A      3.858349  
     562A      3.863096   563A      3.866581   564A      3.879007  
     565A      3.885212   566A      3.888531   567A      3.899415  
     568A      3.906304   569A      3.919526   570A      3.927680  
     571A      3.934019   572A      3.942871   573A      3.949813  
     574A      3.968374   575A      3.970536   576A      3.978948  
     577A      3.984986   578A      3.999798   579A      4.003972  
     580A      4.012494   581A      4.017156   582A      4.026992  
     583A      4.033703   584A      4.043866   585A      4.046180  
     586A      4.052650   587A      4.069891   588A      4.079208  
     589A      4.091865   590A      4.101942   591A      4.107853  
     592A      4.123736   593A      4.135328   594A      4.140553  
     595A      4.142857   596A      4.155422   597A      4.160733  
     598A      4.178398   599A      4.193479   600A      4.203297  
     601A      4.207635   602A      4.220516   603A      4.225646  
     604A      4.239961   605A      4.250418   606A      4.258634  
     607A      4.267098   608A      4.280606   609A      4.290119  
     610A      4.295117   611A      4.310669   612A      4.316355  
     613A      4.333368   614A      4.339884   615A      4.344626  
     616A      4.355975   617A      4.363679   618A      4.365627  
     619A      4.379445   620A      4.384123   621A      4.393035  
     622A      4.405716   623A      4.416318   624A      4.421002  
     625A      4.431023   626A      4.433445   627A      4.459765  
     628A      4.463763   629A      4.475175   630A      4.489607  
     631A      4.496065   632A      4.502306   633A      4.505630  
     634A      4.511356   635A      4.522164   636A      4.547443  
     637A      4.563367   638A      4.590229   639A      4.596788  
     640A      4.610283   641A      4.618327   642A      4.642028  
     643A      4.648458   644A      4.675258   645A      4.679485  
     646A      4.691269   647A      4.708786   648A      4.720277  
     649A      4.727537   650A      4.737017   651A      4.747449  
     652A      4.762587   653A      4.786843   654A      4.796094  
     655A      4.804936   656A      4.812560   657A      4.859643  
     658A      4.872136   659A      4.874154   660A      4.896912  
     661A      4.903429   662A      4.924994   663A      4.937761  
     664A      4.954039   665A      4.966150   666A      4.974683  
     667A      4.996575   668A      4.999574   669A      5.010218  
     670A      5.025177   671A      5.032254   672A      5.045941  
     673A      5.051844   674A      5.073589   675A      5.077135  
     676A      5.100648   677A      5.116833   678A      5.124712  
     679A      5.127136   680A      5.133454   681A      5.143473  
     682A      5.163442   683A      5.170658   684A      5.186319  
     685A      5.193363   686A      5.205305   687A      5.211215  
     688A      5.220068   689A      5.235742   690A      5.249987  
     691A      5.255969   692A      5.295833   693A      5.305940  
     694A      5.318161   695A      5.337751   696A      5.355825  
     697A      5.370462   698A      5.379636   699A      5.396221  
     700A      5.404778   701A      5.420291   702A      5.449478  
     703A      5.459628   704A      5.474599   705A      5.529901  
     706A      5.542866   707A      5.562369   708A      5.569541  
     709A      5.576008   710A      5.603434   711A      5.666505  
     712A      5.679370   713A      5.690231   714A      5.695394  
     715A      5.705875   716A      5.757370   717A      5.783256  
     718A      5.802063   719A      5.832423   720A      5.838025  
     721A      5.853269   722A      5.863300   723A      5.885604  
     724A      5.910363   725A      5.965194   726A      6.002473  
     727A      6.053699   728A      6.085102   729A      6.139972  
     730A      6.187063   731A      6.194296   732A      6.203965  
     733A      6.230471   734A      6.260299   735A      6.287387  
     736A      6.341735   737A      6.372836   738A      6.415345  
     739A      6.474860   740A      6.486508   741A      6.495303  
     742A      6.556717   743A      6.603761   744A      6.673500  
     745A      6.713522   746A      6.714443   747A      6.735597  
     748A      6.819969   749A      6.886442   750A      6.947521  
     751A      6.985172   752A      7.012295   753A      7.070980  
     754A      7.091706   755A      7.301870   756A      7.441706  
     757A      7.485060   758A      9.104180   759A      9.128932  
     760A      9.275538   761A      9.292701   762A      9.425808  
     763A      9.526002   764A      9.560631   765A      9.630287  
     766A      9.669241   767A      9.733803   768A     10.043161  
     769A     10.108464   770A     15.589152   771A     16.246693  
     772A     16.545683   773A     16.702743   774A     16.776679  
     775A     18.456027   776A     18.795694   777A     19.122181  
     778A     19.365623   779A     20.024392   780A     20.195075  
     781A     20.569866   782A     21.726126  

    Final Occupation by Irrep:
              A 
    DOCC [    45 ]

  Energy converged.

  @DF-RHF Final Energy:  -575.27937513089091

   => Energetics <=

    Nuclear Repulsion Energy =            717.8658646927059408
    One-Electron Energy =               -2207.5755418857820587
    Two-Electron Energy =                 914.4303020621850919
    DFT Exchange-Correlation Energy =       0.0000000000000000
    Empirical Dispersion Energy =           0.0000000000000000
    PCM Polarization Energy =               0.0000000000000000
    EFP Energy =                            0.0000000000000000
    Total Energy =                       -575.2793751308909123



Properties will be evaluated at   0.000000,   0.000000,   0.000000 Bohr

Properties computed using the SCF density matrix

  Nuclear Dipole Moment: (a.u.)
     X:     1.0840      Y:    -0.3993      Z:    -6.2026

  Electronic Dipole Moment: (a.u.)
     X:    -1.9372      Y:     0.8917      Z:     5.0581

  Dipole Moment: (a.u.)
     X:    -0.8531      Y:     0.4924      Z:    -1.1446     Total:     1.5101

  Dipole Moment: (Debye)
     X:    -2.1685      Y:     1.2516      Z:    -2.9092     Total:     3.8383


*** tstop() called on gpu-2-8.local at Sat Nov 11 18:19:59 2017
Module time:
	user time   =    1009.59 seconds =      16.83 minutes
	system time =      49.05 seconds =       0.82 minutes
	total time  =        421 seconds =       7.02 minutes
Total time:
	user time   =    1009.59 seconds =      16.83 minutes
	system time =      49.05 seconds =       0.82 minutes
	total time  =        421 seconds =       7.02 minutes

  //>>>>>>>>>>>>>>>>>>>>>>>>>>>>>>>>>>>//
  //               DFMP2               //
  //<<<<<<<<<<<<<<<<<<<<<<<<<<<<<<<<<<<//

   => Loading Basis Set <=

    Name: (AUG-CC-PVTZ AUX)
    Role: RIFIT
    Keyword: DF_BASIS_MP2
    atoms 1-11  entry C          line   147 file /cbio/jclab/home/chayas/anaconda/envs/py35/share/psi4/basis/aug-cc-pvtz-ri.gbs 
    atoms 12    entry N          line   205 file /cbio/jclab/home/chayas/anaconda/envs/py35/share/psi4/basis/aug-cc-pvtz-ri.gbs 
    atoms 13    entry F          line   321 file /cbio/jclab/home/chayas/anaconda/envs/py35/share/psi4/basis/aug-cc-pvtz-ri.gbs 
    atoms 14-21 entry H          line    29 file /cbio/jclab/home/chayas/anaconda/envs/py35/share/psi4/basis/aug-cc-pvtz-ri.gbs 

	 --------------------------------------------------------
	                          DF-MP2                         
	      2nd-Order Density-Fitted Moller-Plesset Theory     
	              RMP2 Wavefunction,   8 Threads             
	                                                         
	        Rob Parrish, Justin Turney, Andy Simmonett,      
	           Ed Hohenstein, and C. David Sherrill          
	 --------------------------------------------------------

   => Auxiliary Basis Set <=

  Basis Set: (AUG-CC-PVTZ AUX)
    Blend: AUG-CC-PVTZ-RI
    Number of shells: 476
    Number of basis function: 1746
    Number of Cartesian functions: 2208
    Spherical Harmonics?: true
    Max angular momentum: 4

	 --------------------------------------------------------
	                 NBF =   782, NAUX =  1746
	 --------------------------------------------------------
	   CLASS    FOCC     OCC    AOCC    AVIR     VIR    FVIR
	   PAIRS       0      45      45     737     737       0
	 --------------------------------------------------------


         ------------------------------------------------------------
                                     CPHF                           
                                  Rob Parrish                       
         ------------------------------------------------------------

  ==> Geometry <==

    Molecular point group: c1
    Full point group: C1

    Geometry (in Angstrom), charge = 0, multiplicity = 1:

       Center              X                  Y                   Z               Mass       
    ------------   -----------------  -----------------  -----------------  -----------------
           C         -1.369214953775     0.840019091910    -2.663303314738    12.000000000000
           C         -2.447214953775     1.413019091910    -1.990303314738    12.000000000000
           C         -0.333214953775     0.245019091910    -1.943303314738    12.000000000000
           C         -2.490214953775     1.392019091910    -0.596303314738    12.000000000000
           C          1.991785046225    -0.401980908090    -0.324303314738    12.000000000000
           C          0.449785046225    -0.979980908090     1.429696685262    12.000000000000
           C          2.987785046225    -1.004980908090     0.426696685262    12.000000000000
           C          1.514785046225    -1.556980908090     2.101696685262    12.000000000000
           C         -0.376214953775     0.224019091910    -0.549303314738    12.000000000000
           C          0.700785046225    -0.393980908090     0.193696685262    12.000000000000
           C         -1.454214953775     0.797019091910     0.124696685262    12.000000000000
           N          2.781785046225    -1.584980908090     1.630696685262    14.003074004780
           F         -1.510214953775     0.787019091910     1.464696685262    18.998403224000
           H         -1.336214953775     0.856019091910    -3.749303314738     1.007825032070
           H         -3.254214953775     1.876019091910    -2.551303314738     1.007825032070
           H          0.500785046225    -0.196980908090    -2.483303314738     1.007825032070
           H         -3.330214953775     1.838019091910    -0.071303314738     1.007825032070
           H          2.226785046225     0.046019091910    -1.283303314738     1.007825032070
           H         -0.544214953775    -0.992980908090     1.864696685262     1.007825032070
           H          4.011785046225    -1.035980908090     0.068696685262     1.007825032070
           H          1.370785046225    -2.028980908090     3.067696685262     1.007825032070

  Nuclear repulsion =  717.865864692706168
  Reference energy  = -575.279375130890912

  ==> Basis Set <==

  Basis Set: AUG-CC-PVTZ
    Blend: AUG-CC-PVTZ
    Number of shells: 254
    Number of basis function: 782
    Number of Cartesian functions: 915
    Spherical Harmonics?: true
    Max angular momentum: 3

  ==> CGRSolver (by Rob Parrish) <==

   Number of roots    =         1
   Preconditioning    =    JACOBI
   Convergence cutoff =     1E-06
   Maximum iterations =       100

  ==> CPHFRHamiltonian (by Rob Parrish) <== 

  ==> DFJK: Density-Fitted J/K Matrices <==

    J tasked:                  Yes
    K tasked:                  Yes
    wK tasked:                  No
    OpenMP threads:              8
    Integrals threads:           8
    Memory (MB):              3576
    Algorithm:                Disk
    Integral Cache:           NONE
    Schwarz Cutoff:          1E-12
    Fitting Condition:       1E-12

   => Auxiliary Basis Set <=

  Basis Set: (AUG-CC-PVTZ AUX)
    Blend: AUG-CC-PVTZ-JKFIT
    Number of shells: 502
    Number of basis function: 1720
    Number of Cartesian functions: 2143
    Spherical Harmonics?: true
    Max angular momentum: 4

  ==> CPHF Iterations <==

  => Iterations <=

             Iter  Converged  Remaining    Residual
  CGR           1          0          1   9.780E-02
  CGR           2          0          1   2.983E-02
  CGR           3          0          1   1.968E-02
  CGR           4          0          1   9.691E-03
  CGR           5          0          1   3.854E-03
  CGR           6          0          1   1.470E-03
  CGR           7          0          1   4.555E-04
  CGR           8          0          1   1.829E-04
  CGR           9          0          1   9.164E-05
  CGR          10          0          1   3.931E-05
  CGR          11          0          1   1.514E-05
  CGR          12          0          1   4.964E-06
  CGR          13          0          1   1.622E-06
  CGR          14          1          0   5.614E-07

    CGRSolver converged.

  ==> DFCorrGrad: Density-Fitted Correlated Gradients <==

    OpenMP threads:              8
    Integrals threads:           8
    Memory (MB):              3576
    Schwarz Cutoff:          0E+00
    Fitting Condition:       1E-12

   => Auxiliary Basis Set <=

  Basis Set: (AUG-CC-PVTZ AUX)
    Blend: AUG-CC-PVTZ-JKFIT
    Number of shells: 502
    Number of basis function: 1720
    Number of Cartesian functions: 2143
    Spherical Harmonics?: true
    Max angular momentum: 4

	-----------------------------------------------------------
	 ==================> DF-MP2 Energies <==================== 
	-----------------------------------------------------------
	 Reference Energy          =    -575.2793751308909123 [Eh]
	 Singles Energy            =      -0.0000000000000002 [Eh]
	 Same-Spin Energy          =      -0.6090850288768257 [Eh]
	 Opposite-Spin Energy      =      -1.8334665221150754 [Eh]
	 Correlation Energy        =      -2.4425515509919014 [Eh]
	 Total Energy              =    -577.7219266818827919 [Eh]
	-----------------------------------------------------------
	 ================> DF-SCS-MP2 Energies <================== 
	-----------------------------------------------------------
	 SCS Same-Spin Scale       =       0.3333333333333333 [-]
	 SCS Opposite-Spin Scale   =       1.2000000000000000 [-]
	 SCS Same-Spin Energy      =      -0.2030283429589419 [Eh]
	 SCS Opposite-Spin Energy  =      -2.2001598265380906 [Eh]
	 SCS Correlation Energy    =      -2.4031881694970330 [Eh]
	 SCS Total Energy          =    -577.6825633003879830 [Eh]
	-----------------------------------------------------------


  -Total Gradient:
     Atom            X                  Y                   Z
    ------   -----------------  -----------------  -----------------
       1       -0.002579804975     0.000900148241     0.000620402362
       2       -0.003513241570     0.001849533451    -0.002273282346
       3        0.013492721730    -0.009535338735     0.007288848142
       4        0.000565560641    -0.000244999182    -0.004972021599
       5       -0.004013139601     0.005983759095    -0.007376502543
       6       -0.008583110392     0.005942965795    -0.004970463668
       7       -0.002696540450     0.006695638196    -0.010654768081
       8       -0.013568865071     0.003102333200     0.001695612762
       9       -0.002620211207     0.002095232842    -0.004114530386
      10        0.002569718673    -0.002483451335     0.000686373113
      11        0.012402994542    -0.005385845998     0.026620946469
      12        0.012021037543    -0.007582304114     0.008162809827
      13        0.003578907855    -0.006831642228     0.002163460521
      14        0.000318921914     0.000262615307    -0.005342921855
      15       -0.003448418318     0.002200210392    -0.003829616459
      16        0.004978038852    -0.000546607246    -0.005806152999
      17       -0.005000847511     0.002479972232     0.000895159696
      18        0.001229709845     0.000242326263    -0.004833850586
      19       -0.008510105868     0.002637103196     0.003794496043
      20        0.003003757273    -0.000504153051    -0.000262151155
      21        0.000372916098    -0.001277496317     0.002508152748


*** tstop() called on gpu-2-8.local at Sat Nov 11 18:47:40 2017
Module time:
	user time   =    4586.39 seconds =      76.44 minutes
	system time =     103.88 seconds =       1.73 minutes
	total time  =       2082 seconds =      34.70 minutes
Total time:
	user time   =    4586.39 seconds =      76.44 minutes
	system time =     103.88 seconds =       1.73 minutes
	total time  =       2082 seconds =      34.70 minutes

			-----------------------------------------
			 OPTKING 2.0: for geometry optimizations 
			  - R.A. King,  Bethel University        
			-----------------------------------------

	Internal coordinates to be generated automatically.
	Detected frag 1 with atoms:  1 2 3 4 5 6 7 8 9 10 11 12 13 14 15 16 17 18 19 20
	 21
	---Fragment 1 Bond Connectivity---
	 1 : 2 3 14
	 2 : 1 4 15
	 3 : 1 9 16
	 4 : 2 11 17
	 5 : 7 10 18
	 6 : 8 10 19
	 7 : 5 12 20
	 8 : 6 12 21
	 9 : 3 10 11
	 10 : 5 6 9
	 11 : 4 9 13
	 12 : 7 8
	 13 : 11
	 14 : 1
	 15 : 2
	 16 : 3
	 17 : 4
	 18 : 5
	 19 : 6
	 20 : 7
	 21 : 8

	Assuming in current code that numbering for constraints corresponds to unified fragment.
	Fixed dihedral atom list: 
	     3     9    10     5
	---Fragment 1 Geometry and Gradient---
	 C          -2.5874412797        1.5874060301       -5.0329138737
	 C          -4.6245660509        2.6702191042       -3.7611281862
	 C          -0.6296850060        0.4630189810       -3.6723110580
	 C          -4.7058242747        2.6305348555       -1.1268499570
	 C           3.7639282529       -0.7596338269       -0.6128444488
	 C           0.8499705560       -1.8518955317        2.7017351882
	 C           5.6460954813       -1.8991386851        0.8063398770
	 C           2.8625288876       -2.9422675104        3.9716311495
	 C          -0.7109432297        0.4233347322       -1.0380328287
	 C           1.3242918154       -0.7445160179        0.3660336880
	 C          -2.7480680010        1.5061478064        0.2356425848
	 N           5.2568118979       -2.9951798421        3.0815701410
	 F          -2.8538926644        1.4872505451        2.7678756029
	 H          -2.5250803173        1.6176416482       -7.0851564540
	 H          -6.1495750402        3.5451623038       -4.8212645468
	 H           0.9463465888       -0.3722399697       -4.6927631697
	 H          -6.2931942263        3.4733527107       -0.1347437372
	 H           4.2080138942        0.0869634806       -2.4250918103
	 H          -1.0284172201       -1.8764619715        3.5237660560
	 H           7.5811750414       -1.9577201952        0.1298179214
	 H           2.5904083244       -3.8342182451        5.7971065939
	            -0.0025798050        0.0009001482        0.0006204024
	            -0.0035132416        0.0018495335       -0.0022732823
	             0.0134927217       -0.0095353387        0.0072888481
	             0.0005655606       -0.0002449992       -0.0049720216
	            -0.0040131396        0.0059837591       -0.0073765025
	            -0.0085831104        0.0059429658       -0.0049704637
	            -0.0026965405        0.0066956382       -0.0106547681
	            -0.0135688651        0.0031023332        0.0016956128
	            -0.0026202112        0.0020952328       -0.0041145304
	             0.0025697187       -0.0024834513        0.0006863731
	             0.0124029945       -0.0053858460        0.0266209465
	             0.0120210375       -0.0075823041        0.0081628098
	             0.0035789079       -0.0068316422        0.0021634605
	             0.0003189219        0.0002626153       -0.0053429219
	            -0.0034484183        0.0022002104       -0.0038296165
	             0.0049780389       -0.0005466072       -0.0058061530
	            -0.0050008475        0.0024799722        0.0008951597
	             0.0012297098        0.0002423263       -0.0048338506
	            -0.0085101059        0.0026371032        0.0037944960
	             0.0030037573       -0.0005041531       -0.0002621512
	             0.0003729161       -0.0012774963        0.0025081527

	Previous optimization step data not found.  Starting new optimization.

	---Fragment 1 Intrafragment Coordinates---
	 - Coordinate -           - BOHR/RAD -       - ANG/DEG -
	 R(1,2)           =         2.634350	       1.394038
	 R(1,3)           =         2.635962	       1.394891
	 R(1,14)          =         2.053412	       1.086619
	 R(2,4)           =         2.635830	       1.394821
	 R(2,15)          =         2.053063	       1.086434
	 R(3,9)           =         2.635830	       1.394821
	 R(3,16)          =         2.054959	       1.087437
	 R(4,11)          =         2.636938	       1.395407
	 R(4,17)          =         2.052891	       1.086343
	 R(5,7)           =         2.618226	       1.385506
	 R(5,10)          =         2.628737	       1.391068
	 R(5,18)          =         2.048946	       1.084256
	 R(6,8)           =         2.617621	       1.385185
	 R(6,10)          =         2.628074	       1.390717
	 R(6,19)          =         2.050531	       1.085094
	 R(7,12)          =         2.555293	       1.352203
	 R(7,20)          =         2.050767	       1.085219
	 R(8,12)          =         2.554917	       1.352004
	 R(8,21)          =         2.049875	       1.084747
	 R(9,10)          =         2.734494	       1.447032
	 R(9,11)          =         2.635263	       1.394521
	 R(11,13)         =         2.534514	       1.341207
	 B(1,2,4)         =         2.094553	     120.009056
	 B(1,2,15)        =         2.094721	     120.018646
	 B(1,3,9)         =         2.093692	     119.959722
	 B(1,3,16)        =         2.079074	     119.122177
	 B(2,1,3)         =         2.094940	     120.031219
	 B(2,1,14)        =         2.094311	     119.995189
	 B(2,4,11)        =         2.094306	     119.994870
	 B(2,4,17)        =         2.095140	     120.042665
	 B(3,1,14)        =         2.093934	     119.973570
	 B(3,9,10)        =         2.090528	     119.778448
	 B(3,9,11)        =         2.095181	     120.045019
	 B(4,2,15)        =         2.093912	     119.972298
	 B(4,11,9)        =         2.093699	     119.960108
	 B(4,11,13)       =         2.081063	     119.236128
	 B(5,7,12)        =         2.164935	     124.041650
	 B(5,7,20)        =         2.108236	     120.793028
	 B(5,10,6)        =         2.089812	     119.737379
	 B(5,10,9)        =         2.096701	     120.132125
	 B(6,8,12)        =         2.165340	     124.064835
	 B(6,8,21)        =         2.107392	     120.744657
	 B(6,10,9)        =         2.096671	     120.130376
	 B(7,5,10)        =         2.057617	     117.892798
	 B(7,5,18)        =         2.098375	     120.228036
	 B(7,12,8)        =         2.030935	     116.364020
	 B(8,6,10)        =         2.057731	     117.899290
	 B(8,6,19)        =         2.099982	     120.320105
	 B(9,3,16)        =         2.110419	     120.918077
	 B(9,11,13)       =         2.108422	     120.803676
	 B(10,5,18)       =         2.127192	     121.879146
	 B(10,6,19)       =         2.125472	     121.780551
	 B(10,9,11)       =         2.097476	     120.176533
	 B(11,4,17)       =         2.093740	     119.962450
	 B(12,7,20)       =         2.010011	     115.165136
	 B(12,8,21)       =         2.010452	     115.190406
	 D(1,2,4,11)      =        -0.000325	      -0.018609
	 D(1,2,4,17)      =        -3.141151	    -179.974682
	 D(1,3,9,10)      =        -3.141334	    -179.985190
	 D(1,3,9,11)      =         0.000325	       0.018608
	 D(2,1,3,9)       =        -0.000348	      -0.019945
	 D(2,1,3,16)      =        -3.140969	    -179.964243
	 D(2,4,11,9)      =         0.000301	       0.017261
	 D(2,4,11,13)     =         3.140029	     179.910408
	 D(3,1,2,4)       =         0.000348	       0.019955
	 D(3,1,2,15)      =        -3.141142	    -179.974167
	 D(3,9,10,5)      =         0.523866	      30.015288
	 D(3,9,10,6)      =        -2.619931	    -150.110996
	 D(3,9,11,4)      =        -0.000301	      -0.017270
	 D(3,9,11,13)     =        -3.139999	    -179.908714
	 D(4,2,1,14)      =         3.141002	     179.966134
	 D(4,11,9,10)     =         3.141358	     179.986543
	 D(5,7,12,8)      =        -0.000279	      -0.016011
	 D(5,10,6,8)      =        -0.001041	      -0.059638
	 D(5,10,6,19)     =        -3.141175	    -179.976089
	 D(5,10,9,11)     =        -2.617793	    -149.988514
	 D(6,8,12,7)      =         0.000176	       0.010089
	 D(6,10,5,7)      =         0.000948	       0.054329
	 D(6,10,5,18)     =        -3.139758	    -179.894859
	 D(6,10,9,11)     =         0.521595	      29.885202
	 D(7,5,10,9)      =         3.140345	     179.928542
	 D(7,12,8,21)     =         3.139745	     179.894150
	 D(8,6,10,9)      =        -3.140438	    -179.933854
	 D(8,12,7,20)     =         3.138590	     179.827964
	 D(9,3,1,14)      =        -3.141002	    -179.966136
	 D(9,10,5,18)     =        -0.000360	      -0.020645
	 D(9,10,6,19)     =         0.002613	       0.149696
	 D(9,11,4,17)     =         3.141128	     179.973370
	 D(10,5,7,12)     =        -0.000279	      -0.016013
	 D(10,5,7,20)     =        -3.139003	    -179.851622
	 D(10,6,8,12)     =         0.000479	       0.027470
	 D(10,6,8,21)     =        -3.138983	    -179.850461
	 D(10,9,3,16)     =        -0.000731	      -0.041910
	 D(10,9,11,13)    =         0.001660	       0.095099
	 D(11,4,2,15)     =         3.141165	     179.975516
	 D(11,9,3,16)     =         3.140927	     179.961888
	 D(12,7,5,18)     =         3.140442	     179.934049
	 D(12,8,6,19)     =         3.140636	     179.945193
	 D(13,11,4,17)    =        -0.002330	      -0.133484
	 D(14,1,2,15)     =        -0.000488	      -0.027988
	 D(14,1,3,16)     =         0.001563	       0.089566
	 D(15,2,4,17)     =         0.000339	       0.019443
	 D(18,5,7,20)     =         0.001718	       0.098440
	 D(19,6,8,21)     =         0.001174	       0.067262
	 R(6,13)          =         4.987271	       2.639150

	Current energy   :      -577.7219266819

	Generating empirical Hessian (Schlegel '84) for each fragment.
	Adding user-defined constraint: Fragment 1; Coordinate 67:
		Value =     0.523866; Fixed value    =     0.523599
		Force =    -0.000133; Force constant =     0.500000
	Removing off-diagonal coupling between coordinate 67 and others.
	Taking RFO optimization step.
	Going to follow RFO solution 1.
	Using RFO vector 1.

	Determining step-restricting scale parameter for RS-RFO.
	Maximum step size allowed    0.10000

	 Iter      |step|        alpha        rfo_root  
	------------------------------------------------
	    0     0.33515       1.00000           1
	    1     0.22473       4.02604           1
	    2     0.16183      10.92580           1
	    3     0.12545      23.59280           1
	    4     0.10679      37.89454           1
	    5     0.10069      44.86657           1
	    6     0.10001      45.74534           1
	------------------------------------------------
	Norm of target step-size    0.10001
	Projected energy change by RFO approximation:        -0.0052609818

	Back-transformation to cartesian coordinates...
	Could not converge backtransformation.
	Using first guess instead.

	--- Internal Coordinate Step in ANG or DEG, aJ/ANG or AJ/DEG ---
	 ---------------------------------------------------------------------------
	   Coordinate                Previous        Force       Change         New 
	   ----------                --------       ------       ------       ------
	    1 R(1,2)          =      1.394038    -0.046982    -0.004474     1.389564
	    2 R(1,3)          =      1.394891    -0.060889    -0.005635     1.389256
	    3 R(1,14)         =      1.086619    -0.044105    -0.004919     1.081700
	    4 R(2,4)          =      1.394821    -0.073111    -0.006975     1.387846
	    5 R(2,15)         =      1.086434    -0.045120    -0.005014     1.081420
	    6 R(3,9)          =      1.394821    -0.005559    -0.000188     1.394633
	    7 R(3,16)         =      1.087437    -0.057039    -0.006373     1.081065
	    8 R(4,11)         =      1.395407    -0.112264    -0.010442     1.384965
	    9 R(4,17)         =      1.086343    -0.043810    -0.004781     1.081562
	   10 R(5,7)          =      1.385506    -0.006703    -0.000670     1.384835
	   11 R(5,10)         =      1.391068     0.003303     0.000883     1.391950
	   12 R(5,18)         =      1.084256    -0.038245    -0.004215     1.080041
	   13 R(6,8)          =      1.385185     0.005906     0.000572     1.385758
	   14 R(6,10)         =      1.390717     0.016180     0.002039     1.392755
	   15 R(6,19)         =      1.085094    -0.076498    -0.008446     1.076648
	   16 R(7,12)         =      1.352203    -0.127030    -0.010988     1.341215
	   17 R(7,20)         =      1.085219    -0.024183    -0.002682     1.082537
	   18 R(8,12)         =      1.352004    -0.121976    -0.010495     1.341509
	   19 R(8,21)         =      1.084747    -0.022573    -0.002502     1.082245
	   20 R(9,10)         =      1.447032     0.134812     0.014634     1.461666
	   21 R(9,11)         =      1.394521    -0.048900    -0.003979     1.390542
	   22 R(11,13)        =      1.341207    -0.020259    -0.001563     1.339644
	   23 B(1,2,4)        =    120.009056     0.000003    -0.020769   119.988287
	   24 B(1,2,15)       =    120.018646     0.000091     0.192244   120.210890
	   25 B(1,3,9)        =    119.959722     0.000395     0.728816   120.688538
	   26 B(1,3,16)       =    119.122177     0.000021     0.064359   119.186536
	   27 B(2,1,3)        =    120.031219    -0.000049    -0.072875   119.958344
	   28 B(2,1,14)       =    119.995189     0.000021     0.029044   120.024233
	   29 B(2,4,11)       =    119.994870    -0.000275    -0.487939   119.506931
	   30 B(2,4,17)       =    120.042665     0.000287     0.537653   120.580318
	   31 B(3,1,14)       =    119.973570     0.000028     0.043784   120.017354
	   32 B(3,9,10)       =    119.778448     0.000865     1.265845   121.044292
	   33 B(3,9,11)       =    120.045019    -0.001041    -1.676743   118.368276
	   34 B(4,2,15)       =    119.972298    -0.000093    -0.171476   119.800822
	   35 B(4,11,9)       =    119.960108     0.000969     1.529444   121.489552
	   36 B(4,11,13)      =    119.236128    -0.000166    -0.336902   118.899225
	   37 B(5,7,12)       =    124.041650     0.000017    -0.049134   123.992516
	   38 B(5,7,20)       =    120.793028    -0.000075    -0.107236   120.685792
	   39 B(5,10,6)       =    119.737379    -0.001041    -1.580691   118.156689
	   40 B(5,10,9)       =    120.132125     0.000504     0.694006   120.826131
	   41 B(6,8,12)       =    124.064835     0.000123     0.158498   124.223333
	   42 B(6,8,21)       =    120.744657    -0.000119    -0.193157   120.551500
	   43 B(6,10,9)       =    120.130376     0.000538     0.886797   121.017173
	   44 B(7,5,10)       =    117.892798     0.000498     0.903534   118.796331
	   45 B(7,5,18)       =    120.228036    -0.000204    -0.366664   119.861372
	   46 B(7,12,8)       =    116.364020     0.000093    -0.037578   116.326443
	   47 B(8,6,10)       =    117.899290     0.000309     0.605289   118.504580
	   48 B(8,6,19)       =    120.320105    -0.000255    -0.505390   119.814715
	   49 B(9,3,16)       =    120.918077    -0.000415    -0.793391   120.124686
	   50 B(9,11,13)      =    120.803676    -0.000803    -1.193831   119.609846
	   51 B(10,5,18)      =    121.879146    -0.000294    -0.537391   121.341755
	   52 B(10,6,19)      =    121.780551    -0.000054    -0.101290   121.679262
	   53 B(10,9,11)      =    120.176533     0.000177     0.410660   120.587193
	   54 B(11,4,17)      =    119.962450    -0.000011    -0.049701   119.912750
	   55 B(12,7,20)      =    115.165136     0.000058     0.156251   115.321387
	   56 B(12,8,21)      =    115.190406    -0.000004     0.034612   115.225017
	   57 D(1,2,4,11)     =     -0.018609    -0.000004    -0.059686    -0.078295
	   58 D(1,2,4,17)     =   -179.974682    -0.000008    -0.117755  -180.092437
	   59 D(1,3,9,10)     =   -179.985190     0.000004     0.087753  -179.897437
	   60 D(1,3,9,11)     =      0.018608    -0.000005    -0.092642    -0.074034
	   61 D(2,1,3,9)      =     -0.019945     0.000005     0.074996     0.055051
	   62 D(2,1,3,16)     =   -179.964243    -0.000012    -0.158708  -180.122952
	   63 D(2,4,11,9)     =      0.017261     0.000004     0.041567     0.058829
	   64 D(2,4,11,13)    =    179.910408    -0.000019    -0.280255   179.630153
	   65 D(3,1,2,4)      =      0.019955    -0.000000     0.002287     0.022242
	   66 D(3,1,2,15)     =   -179.974167    -0.000001    -0.016239  -179.990406
	   67 D(3,9,10,5)     =     30.015288     0.000020     0.160938    30.176227
	   68 D(3,9,10,6)     =   -150.110996     0.000026     0.319257  -149.791739
	   69 D(3,9,11,4)     =     -0.017270     0.000000     0.034301     0.017031
	   70 D(3,9,11,13)    =   -179.908714     0.000024     0.357409  -179.551305
	   71 D(4,2,1,14)     =    179.966134    -0.000004    -0.039849   179.926285
	   72 D(4,11,9,10)    =    179.986543    -0.000009    -0.145271   179.841272
	   73 D(5,7,12,8)     =     -0.016011     0.000002     0.032284     0.016272
	   74 D(5,10,6,8)     =     -0.059638    -0.000003    -0.001247    -0.060886
	   75 D(5,10,6,19)    =   -179.976089     0.000024     0.353342  -179.622746
	   76 D(5,10,9,11)    =   -149.988514     0.000029     0.345247  -149.643267
	   77 D(6,8,12,7)     =      0.010089    -0.000008    -0.113120    -0.103032
	   78 D(6,10,5,7)     =      0.054329    -0.000003    -0.071336    -0.017007
	   79 D(6,10,5,18)    =   -179.894859     0.000013     0.145968  -179.748891
	   80 D(6,10,9,11)    =     29.885202     0.000035     0.503565    30.388767
	   81 D(7,5,10,9)     =    179.928542     0.000004     0.085589   180.014131
	   82 D(7,12,8,21)    =    179.894150    -0.000009    -0.137656   179.756495
	   83 D(8,6,10,9)     =   -179.933854    -0.000009    -0.158232  -180.092086
	   84 D(8,12,7,20)    =    179.827964    -0.000002    -0.011838   179.816126
	   85 D(9,3,1,14)     =   -179.966136     0.000008     0.117137  -179.848999
	   86 D(9,10,5,18)    =     -0.020645     0.000019     0.302893     0.282248
	   87 D(9,10,6,19)    =      0.149696     0.000017     0.196357     0.346053
	   88 D(9,11,4,17)    =    179.973370     0.000008     0.099506   180.072875
	   89 D(10,5,7,12)    =     -0.016013     0.000003     0.057793     0.041780
	   90 D(10,5,7,20)    =   -179.851622     0.000007     0.103775  -179.747847
	   91 D(10,6,8,12)    =      0.027470     0.000008     0.099835     0.127305
	   92 D(10,6,8,21)    =   -179.850461     0.000010     0.125331  -179.725130
	   93 D(10,9,3,16)    =     -0.041910     0.000021     0.324142     0.282232
	   94 D(10,9,11,13)   =      0.095099     0.000014     0.177837     0.272936
	   95 D(11,4,2,15)    =    179.975516    -0.000003    -0.041214   179.934301
	   96 D(11,9,3,16)    =    179.961888     0.000012     0.143747   180.105635
	   97 D(12,7,5,18)    =    179.934049    -0.000012    -0.156320   179.777729
	   98 D(12,8,6,19)    =    179.945193    -0.000018    -0.247626   179.697567
	   99 D(13,11,4,17)   =     -0.133484    -0.000015    -0.222316    -0.355801
	  100 D(14,1,2,15)    =     -0.027988    -0.000004    -0.058375    -0.086363
	  101 D(14,1,3,16)    =      0.089566    -0.000009    -0.116567    -0.027002
	  102 D(15,2,4,17)    =      0.019443    -0.000007    -0.099284    -0.079841
	  103 D(18,5,7,20)    =      0.098440    -0.000009    -0.110337    -0.011897
	  104 D(19,6,8,21)    =      0.067262    -0.000016    -0.222130    -0.154869
	  105 R(6,13)         =      2.639150     0.083078     0.020403     2.659553
	 ---------------------------------------------------------------------------
	Successfully symmetrized geometry.
	 Forces used to impose fixed constraints are not included.
	  Forces zeroed: 67 

  ==> Convergence Check <==

  Measures of convergence in internal coordinates in au.
  Criteria marked as inactive (o), active & met (*), and active & unmet ( ).
  --------------------------------------------------------------------------------------------- ~
   Step     Total Energy     Delta E     MAX Force     RMS Force      MAX Disp      RMS Disp    ~
  --------------------------------------------------------------------------------------------- ~
    Convergence Criteria    1.00e-06 *    3.00e-04 *             o    1.20e-03 *             o  ~
  --------------------------------------------------------------------------------------------- ~
      1    -577.72192668   -5.78e+02      1.64e-02      4.96e-03 o    3.86e-02      9.77e-03 o  ~
  ---------------------------------------------------------------------------------------------

	Writing optimization data to binary file.
	Structure for next step:
	Cartesian Geometry (in Angstrom)
	    C    -1.3909354183   0.8476091915  -2.6714718113
	    C    -2.4611707297   1.4208040418  -1.9955049585
	    C    -0.3574255010   0.2538504593  -1.9577914449
	    C    -2.4966838238   1.4001729457  -0.6082670456
	    C     2.0041503845  -0.4117817407  -0.3015389803
	    C     0.4660714857  -0.9889138884   1.4328654238
	    C     2.9990734045  -1.0115046351   0.4522710131
	    C     1.5318748431  -1.5638346957   2.1065518375
	    C    -0.3803772022   0.2242036977  -0.5636623601
	    C     0.7038829063  -0.3964514608   0.1950440696
	    C    -1.4609087415   0.8042052224   0.0918196308
	    N     2.7914374836  -1.5876788249   1.6454885156
	    F    -1.5039148762   0.7978073556   1.4307579378
	    H    -1.3632460979   0.8623063471  -3.7527171379
	    H    -3.2679339986   1.8839498795  -2.5469568067
	    H     0.4681081600  -0.1900972811  -2.4964060288
	    H    -3.3242877095   1.8447543915  -0.0723605641
	    H     2.2471205683   0.0360567591  -1.2538489855
	    H    -0.5185856229  -1.0146542173   1.8675598743
	    H     4.0214372185  -1.0372696009   0.0973122268
	    H     1.3837992377  -2.0371330162   3.0684859849
			--------------------------
			 OPTKING Finished Execution 
			--------------------------

    Structure for next step:
    Molecular point group: c1
    Full point group: C1

    Geometry (in Angstrom), charge = 0, multiplicity = 1:

    C           -1.391230041240     0.846363253554    -2.667190424091
    C           -2.461465352555     1.419558103851    -1.991223571367
    C           -0.357720123903     0.252604521308    -1.953510057708
    C           -2.496978446647     1.398927007772    -0.603985658391
    C            2.003855761615    -0.413027678687    -0.297257593114
    C            0.465776862766    -0.990159826391     1.437146810963
    C            2.998778781587    -1.012750573034     0.456552400285
    C            1.531580220256    -1.565080633685     2.110833224717
    C           -0.380671825128     0.222957759750    -0.559380972900
    C            0.703588283453    -0.397697398769     0.199325456783
    C           -1.461203364376     0.802959284479     0.096101017968
    N            2.791142860740    -1.588924762805     1.649769902737
    F           -1.504209499055     0.796561417654     1.435039325003
    H           -1.363540720781     0.861060409116    -3.748435750708
    H           -3.268228621471     1.882703941558    -2.542675419554
    H            0.467813537083    -0.191343219020    -2.492124641644
    H           -3.324582332403     1.843508453599    -0.068079176885
    H            2.246825945365     0.034810821182    -1.249567598348
    H           -0.518880245842    -1.015900155268     1.871841261511
    H            4.021142595642    -1.038515538887     0.101593613984
    H            1.383504614847    -2.038378954119     3.072767372070

gradient() will perform analytic gradient computation.

*** tstart() called on gpu-2-8.local
*** at Sat Nov 11 18:47:41 2017

    SCF Algorithm Type (re)set to DF.

*** tstart() called on gpu-2-8.local
*** at Sat Nov 11 18:47:41 2017

   => Loading Basis Set <=

    Name: AUG-CC-PVTZ
    Role: ORBITAL
    Keyword: BASIS
    atoms 1-11  entry C          line   221 file /cbio/jclab/home/chayas/anaconda/envs/py35/share/psi4/basis/aug-cc-pvtz.gbs 
    atoms 12    entry N          line   267 file /cbio/jclab/home/chayas/anaconda/envs/py35/share/psi4/basis/aug-cc-pvtz.gbs 
    atoms 13    entry F          line   359 file /cbio/jclab/home/chayas/anaconda/envs/py35/share/psi4/basis/aug-cc-pvtz.gbs 
    atoms 14-21 entry H          line    34 file /cbio/jclab/home/chayas/anaconda/envs/py35/share/psi4/basis/aug-cc-pvtz.gbs 


         ---------------------------------------------------------
                                   SCF
            by Justin Turney, Rob Parrish, and Andy Simmonett
                              RHF Reference
                        8 Threads,   4768 MiB Core
         ---------------------------------------------------------

  ==> Geometry <==

    Molecular point group: c1
    Full point group: C1

    Geometry (in Angstrom), charge = 0, multiplicity = 1:

       Center              X                  Y                   Z               Mass       
    ------------   -----------------  -----------------  -----------------  -----------------
           C         -1.391230041240     0.846363253554    -2.667190424091    12.000000000000
           C         -2.461465352555     1.419558103851    -1.991223571367    12.000000000000
           C         -0.357720123903     0.252604521308    -1.953510057708    12.000000000000
           C         -2.496978446647     1.398927007772    -0.603985658391    12.000000000000
           C          2.003855761615    -0.413027678687    -0.297257593114    12.000000000000
           C          0.465776862766    -0.990159826391     1.437146810963    12.000000000000
           C          2.998778781587    -1.012750573034     0.456552400285    12.000000000000
           C          1.531580220256    -1.565080633685     2.110833224717    12.000000000000
           C         -0.380671825128     0.222957759750    -0.559380972900    12.000000000000
           C          0.703588283453    -0.397697398769     0.199325456783    12.000000000000
           C         -1.461203364376     0.802959284479     0.096101017968    12.000000000000
           N          2.791142860740    -1.588924762805     1.649769902737    14.003074004780
           F         -1.504209499055     0.796561417654     1.435039325003    18.998403224000
           H         -1.363540720781     0.861060409116    -3.748435750708     1.007825032070
           H         -3.268228621471     1.882703941558    -2.542675419554     1.007825032070
           H          0.467813537083    -0.191343219020    -2.492124641644     1.007825032070
           H         -3.324582332403     1.843508453599    -0.068079176885     1.007825032070
           H          2.246825945365     0.034810821182    -1.249567598348     1.007825032070
           H         -0.518880245842    -1.015900155268     1.871841261511     1.007825032070
           H          4.021142595642    -1.038515538887     0.101593613984     1.007825032070
           H          1.383504614847    -2.038378954119     3.072767372070     1.007825032070

  Running in c1 symmetry.

  Rotational constants: A =      0.06495  B =      0.01832  C =      0.01467 [cm^-1]
  Rotational constants: A =   1947.20602  B =    549.12271  C =    439.82862 [MHz]
  Nuclear repulsion =  717.715258580828049

  Charge       = 0
  Multiplicity = 1
  Electrons    = 90
  Nalpha       = 45
  Nbeta        = 45

  ==> Algorithm <==

  SCF Algorithm Type is DF.
  DIIS enabled.
  MOM disabled.
  Fractional occupation disabled.
  Guess Type is READ.
  Energy threshold   = 1.00e-10
  Density threshold  = 1.00e-10
  Integral threshold = 0.00e+00

  ==> Primary Basis <==

  Basis Set: AUG-CC-PVTZ
    Blend: AUG-CC-PVTZ
    Number of shells: 254
    Number of basis function: 782
    Number of Cartesian functions: 915
    Spherical Harmonics?: true
    Max angular momentum: 3

   => Loading Basis Set <=

    Name: (AUG-CC-PVTZ AUX)
    Role: JKFIT
    Keyword: DF_BASIS_SCF
    atoms 1-11  entry C          line   161 file /cbio/jclab/home/chayas/anaconda/envs/py35/share/psi4/basis/aug-cc-pvtz-jkfit.gbs 
    atoms 12    entry N          line   223 file /cbio/jclab/home/chayas/anaconda/envs/py35/share/psi4/basis/aug-cc-pvtz-jkfit.gbs 
    atoms 13    entry F          line   347 file /cbio/jclab/home/chayas/anaconda/envs/py35/share/psi4/basis/aug-cc-pvtz-jkfit.gbs 
    atoms 14-21 entry H          line    69 file /cbio/jclab/home/chayas/anaconda/envs/py35/share/psi4/basis/aug-cc-pvtz-jkfit.gbs 

  Reading orbitals from file 180, no projection.

  ==> Pre-Iterations <==

   -------------------------------------------------------
    Irrep   Nso     Nmo     Nalpha   Nbeta   Ndocc  Nsocc
   -------------------------------------------------------
     A        782     782       0       0       0       0
   -------------------------------------------------------
    Total     782     782      45      45      45       0
   -------------------------------------------------------

  ==> Integral Setup <==

  ==> DFJK: Density-Fitted J/K Matrices <==

    J tasked:                  Yes
    K tasked:                  Yes
    wK tasked:                  No
    OpenMP threads:              8
    Integrals threads:           8
    Memory (MB):              3576
    Algorithm:                Disk
    Integral Cache:           NONE
    Schwarz Cutoff:          1E-12
    Fitting Condition:       1E-12

   => Auxiliary Basis Set <=

  Basis Set: (AUG-CC-PVTZ AUX)
    Blend: AUG-CC-PVTZ-JKFIT
    Number of shells: 502
    Number of basis function: 1720
    Number of Cartesian functions: 2143
    Spherical Harmonics?: true
    Max angular momentum: 4

  Minimum eigenvalue in the overlap matrix is 6.1931039442E-07.
  Using Symmetric Orthogonalization.

  SCF Guess: Orbitals guess was supplied from a previous computation.

  ==> Iterations <==

                           Total Energy        Delta E     RMS |[F,P]|

   @DF-RHF iter   0:  -575.39262696743106   -5.75393e+02   5.11900e-04 
   @DF-RHF iter   1:  -575.28470150590806    1.07925e-01   1.20310e-04 
   @DF-RHF iter   2:  -575.28529775129300   -5.96245e-04   6.56497e-05 DIIS
   @DF-RHF iter   3:  -575.28578654941668   -4.88798e-04   1.23833e-05 DIIS
   @DF-RHF iter   4:  -575.28579589317246   -9.34376e-06   3.11722e-06 DIIS
   @DF-RHF iter   5:  -575.28579784128988   -1.94812e-06   1.20373e-06 DIIS
   @DF-RHF iter   6:  -575.28579818611638   -3.44827e-07   8.96559e-07 DIIS
   @DF-RHF iter   7:  -575.28579832140395   -1.35288e-07   2.46741e-07 DIIS
   @DF-RHF iter   8:  -575.28579835661674   -3.52128e-08   1.34013e-07 DIIS
   @DF-RHF iter   9:  -575.28579836003223   -3.41549e-09   4.66025e-08 DIIS
   @DF-RHF iter  10:  -575.28579836036022   -3.27987e-10   1.19026e-08 DIIS
   @DF-RHF iter  11:  -575.28579836037557   -1.53477e-11   4.43049e-09 DIIS
   @DF-RHF iter  12:  -575.28579836039466   -1.90994e-11   1.61409e-09 DIIS
   @DF-RHF iter  13:  -575.28579836038364    1.10276e-11   6.52096e-10 DIIS
   @DF-RHF iter  14:  -575.28579836038728   -3.63798e-12   2.54767e-10 DIIS
   @DF-RHF iter  15:  -575.28579836037716    1.01181e-11   1.57441e-10 DIIS
   @DF-RHF iter  16:  -575.28579836038898   -1.18234e-11   5.36430e-11 DIIS

  ==> Post-Iterations <==

    Orbital Energies (a.u.)
    -----------------------

    Doubly Occupied:                                                      

       1A    -26.323619     2A    -15.562709     3A    -11.340741  
       4A    -11.272435     5A    -11.270602     6A    -11.268627  
       7A    -11.263014     8A    -11.258262     9A    -11.257839  
      10A    -11.253580    11A    -11.249352    12A    -11.239609  
      13A    -11.234751    14A     -1.646271    15A     -1.255200  
      16A     -1.186349    17A     -1.114546    18A     -1.039823  
      19A     -1.033130    20A     -1.028676    21A     -0.893426  
      22A     -0.875558    23A     -0.845653    24A     -0.826448  
      25A     -0.759341    26A     -0.724478    27A     -0.721639  
      28A     -0.711652    29A     -0.672185    30A     -0.661453  
      31A     -0.651774    32A     -0.626120    33A     -0.611871  
      34A     -0.596207    35A     -0.589547    36A     -0.551237  
      37A     -0.541408    38A     -0.524516    39A     -0.519288  
      40A     -0.506596    41A     -0.418415    42A     -0.411571  
      43A     -0.354987    44A     -0.347836    45A     -0.328816  

    Virtual:                                                              

      46A      0.023386    47A      0.029275    48A      0.033866  
      49A      0.039403    50A      0.043616    51A      0.046674  
      52A      0.056011    53A      0.057271    54A      0.065322  
      55A      0.079094    56A      0.082855    57A      0.086193  
      58A      0.091466    59A      0.094589    60A      0.099921  
      61A      0.104163    62A      0.107310    63A      0.108712  
      64A      0.114320    65A      0.115394    66A      0.117067  
      67A      0.118630    68A      0.121458    69A      0.130855  
      70A      0.131756    71A      0.134118    72A      0.137708  
      73A      0.139528    74A      0.142326    75A      0.146488  
      76A      0.149446    77A      0.151433    78A      0.154829  
      79A      0.162563    80A      0.168041    81A      0.174903  
      82A      0.175220    83A      0.179646    84A      0.184123  
      85A      0.187951    86A      0.199648    87A      0.204810  
      88A      0.215874    89A      0.223292    90A      0.223802  
      91A      0.227747    92A      0.228302    93A      0.231653  
      94A      0.239909    95A      0.242448    96A      0.246336  
      97A      0.249778    98A      0.253101    99A      0.259716  
     100A      0.264901   101A      0.266905   102A      0.268486  
     103A      0.275503   104A      0.284023   105A      0.285391  
     106A      0.289806   107A      0.292683   108A      0.297123  
     109A      0.299966   110A      0.303545   111A      0.311104  
     112A      0.314347   113A      0.315740   114A      0.318482  
     115A      0.322026   116A      0.329006   117A      0.336445  
     118A      0.338107   119A      0.340289   120A      0.346839  
     121A      0.351759   122A      0.355611   123A      0.364093  
     124A      0.367201   125A      0.377794   126A      0.380916  
     127A      0.382732   128A      0.389584   129A      0.396446  
     130A      0.402935   131A      0.411983   132A      0.412602  
     133A      0.417193   134A      0.422658   135A      0.429126  
     136A      0.431777   137A      0.433845   138A      0.437367  
     139A      0.440299   140A      0.446458   141A      0.447564  
     142A      0.453832   143A      0.457047   144A      0.461411  
     145A      0.466527   146A      0.469366   147A      0.473700  
     148A      0.475905   149A      0.477646   150A      0.484009  
     151A      0.488898   152A      0.494080   153A      0.496045  
     154A      0.499817   155A      0.502942   156A      0.505208  
     157A      0.507776   158A      0.509443   159A      0.511587  
     160A      0.521117   161A      0.523951   162A      0.525043  
     163A      0.528702   164A      0.532024   165A      0.533754  
     166A      0.537065   167A      0.541044   168A      0.543767  
     169A      0.547754   170A      0.551357   171A      0.558560  
     172A      0.559523   173A      0.573293   174A      0.574725  
     175A      0.580118   176A      0.584656   177A      0.590391  
     178A      0.602029   179A      0.607687   180A      0.609163  
     181A      0.618009   182A      0.624074   183A      0.630897  
     184A      0.637122   185A      0.646224   186A      0.647572  
     187A      0.653372   188A      0.665631   189A      0.676769  
     190A      0.682299   191A      0.688668   192A      0.692069  
     193A      0.700126   194A      0.704218   195A      0.706509  
     196A      0.707920   197A      0.719163   198A      0.724492  
     199A      0.727429   200A      0.738925   201A      0.739983  
     202A      0.743365   203A      0.745092   204A      0.750208  
     205A      0.753626   206A      0.768797   207A      0.772550  
     208A      0.778462   209A      0.780589   210A      0.789980  
     211A      0.803249   212A      0.804553   213A      0.808866  
     214A      0.819794   215A      0.824705   216A      0.835273  
     217A      0.843101   218A      0.851526   219A      0.855641  
     220A      0.858420   221A      0.864931   222A      0.871951  
     223A      0.872617   224A      0.878321   225A      0.883406  
     226A      0.884825   227A      0.886856   228A      0.887867  
     229A      0.893631   230A      0.906009   231A      0.907119  
     232A      0.911536   233A      0.914341   234A      0.920353  
     235A      0.923707   236A      0.930010   237A      0.938129  
     238A      0.944479   239A      0.948702   240A      0.955111  
     241A      0.958894   242A      0.965886   243A      0.968865  
     244A      0.973664   245A      0.978412   246A      0.984600  
     247A      0.989258   248A      0.990671   249A      0.991430  
     250A      1.000266   251A      1.008029   252A      1.010379  
     253A      1.013863   254A      1.018124   255A      1.025151  
     256A      1.027127   257A      1.029162   258A      1.036633  
     259A      1.043618   260A      1.045171   261A      1.049205  
     262A      1.062464   263A      1.066419   264A      1.068000  
     265A      1.071268   266A      1.075466   267A      1.076222  
     268A      1.084828   269A      1.087914   270A      1.089017  
     271A      1.094778   272A      1.099373   273A      1.107149  
     274A      1.109337   275A      1.118835   276A      1.123395  
     277A      1.126808   278A      1.136245   279A      1.137274  
     280A      1.145418   281A      1.147016   282A      1.159941  
     283A      1.168360   284A      1.173188   285A      1.176483  
     286A      1.179428   287A      1.184631   288A      1.187399  
     289A      1.188662   290A      1.198530   291A      1.201101  
     292A      1.202823   293A      1.207110   294A      1.211507  
     295A      1.216346   296A      1.218359   297A      1.228712  
     298A      1.236265   299A      1.238363   300A      1.249254  
     301A      1.260916   302A      1.263416   303A      1.269046  
     304A      1.274989   305A      1.285756   306A      1.288505  
     307A      1.293490   308A      1.297895   309A      1.300824  
     310A      1.314651   311A      1.318793   312A      1.324714  
     313A      1.330362   314A      1.336909   315A      1.353001  
     316A      1.359660   317A      1.363700   318A      1.368078  
     319A      1.377312   320A      1.388776   321A      1.392880  
     322A      1.406033   323A      1.410089   324A      1.420534  
     325A      1.423259   326A      1.426243   327A      1.433268  
     328A      1.439210   329A      1.451379   330A      1.473745  
     331A      1.476430   332A      1.489675   333A      1.494263  
     334A      1.498688   335A      1.508592   336A      1.513180  
     337A      1.523996   338A      1.527086   339A      1.542949  
     340A      1.546216   341A      1.554399   342A      1.562377  
     343A      1.577066   344A      1.581842   345A      1.592797  
     346A      1.596092   347A      1.603060   348A      1.616245  
     349A      1.623835   350A      1.635485   351A      1.646106  
     352A      1.655745   353A      1.657456   354A      1.665099  
     355A      1.674165   356A      1.678060   357A      1.693224  
     358A      1.700048   359A      1.710226   360A      1.711625  
     361A      1.720652   362A      1.725269   363A      1.737115  
     364A      1.738521   365A      1.741339   366A      1.749641  
     367A      1.756995   368A      1.773940   369A      1.780532  
     370A      1.787287   371A      1.795351   372A      1.802887  
     373A      1.808666   374A      1.818614   375A      1.823158  
     376A      1.831209   377A      1.836333   378A      1.846833  
     379A      1.861778   380A      1.865711   381A      1.874558  
     382A      1.881443   383A      1.896391   384A      1.899827  
     385A      1.918654   386A      1.925678   387A      1.931695  
     388A      1.941752   389A      1.949307   390A      1.951581  
     391A      1.965797   392A      1.967464   393A      1.979338  
     394A      1.986015   395A      1.990290   396A      1.996130  
     397A      1.999534   398A      2.013173   399A      2.020160  
     400A      2.025621   401A      2.029147   402A      2.038199  
     403A      2.045554   404A      2.050830   405A      2.054171  
     406A      2.066425   407A      2.073166   408A      2.082186  
     409A      2.088433   410A      2.094662   411A      2.097495  
     412A      2.111890   413A      2.114021   414A      2.126382  
[...]
	 R(6,10)          =         2.632432	       1.393023
	 R(6,19)          =         2.035123	       1.076941
	 R(7,12)          =         2.522498	       1.334848
	 R(7,20)          =         2.042841	       1.081025
	 R(8,12)          =         2.522368	       1.334780
	 R(8,21)          =         2.042597	       1.080896
	 R(9,10)          =         2.765486	       1.463432
	 R(9,11)          =         2.629387	       1.391412
	 R(11,13)         =         2.546209	       1.347396
	 B(1,2,4)         =         2.088609	     119.668457
	 B(1,2,15)        =         2.104275	     120.566086
	 B(1,3,9)         =         2.127342	     121.887690
	 B(1,3,16)        =         2.087151	     119.584937
	 B(2,1,3)         =         2.092772	     119.907001
	 B(2,1,14)        =         2.099143	     120.272063
	 B(2,4,11)        =         2.080280	     119.191262
	 B(2,4,17)        =         2.127478	     121.895514
	 B(3,1,14)        =         2.091243	     119.819401
	 B(3,9,10)        =         2.106744	     120.707523
	 B(3,9,11)        =         2.029646	     116.290147
	 B(4,2,15)        =         2.090301	     119.765447
	 B(4,11,9)        =         2.147627	     123.049990
	 B(4,11,13)       =         2.050583	     117.489769
	 B(5,7,12)        =         2.158632	     123.680525
	 B(5,7,20)        =         2.094387	     119.999550
	 B(5,10,6)        =         2.035229	     116.610028
	 B(5,10,9)        =         2.104014	     120.551120
	 B(6,8,12)        =         2.163716	     123.971823
	 B(6,8,21)        =         2.091106	     119.811528
	 B(6,10,9)        =         2.142582	     122.760912
	 B(7,5,10)        =         2.090504	     119.777049
	 B(7,5,18)        =         2.087043	     119.578771
	 B(7,12,8)        =         2.033342	     116.501919
	 B(8,6,10)        =         2.084921	     119.457152
	 B(8,6,19)        =         2.088899	     119.685095
	 B(9,3,16)        =         2.068092	     118.492918
	 B(9,11,13)       =         2.084631	     119.440541
	 B(10,5,18)       =         2.105159	     120.616743
	 B(10,6,19)       =         2.109201	     120.848295
	 B(10,9,11)       =         2.146113	     122.963204
	 B(11,4,17)       =         2.075387	     118.910927
	 B(12,7,20)       =         2.030163	     116.319786
	 B(12,8,21)       =         2.028356	     116.216262
	 D(1,2,4,11)      =        -0.004114	      -0.235731
	 D(1,2,4,17)      =         3.127746	     179.206672
	 D(1,3,9,10)      =        -3.117590	    -178.624752
	 D(1,3,9,11)      =        -0.014551	      -0.833716
	 D(2,1,3,9)       =         0.006596	       0.377938
	 D(2,1,3,16)      =         3.110354	     178.210156
	 D(2,4,11,9)      =        -0.004658	      -0.266908
	 D(2,4,11,13)     =         3.108555	     178.107110
	 D(3,1,2,4)       =         0.003138	       0.179777
	 D(3,1,2,15)      =        -3.139090	    -179.856611
	 D(3,9,10,5)      =         0.528182	      30.262617
	 D(3,9,10,6)      =        -2.555457	    -146.416881
	 D(3,9,11,4)      =         0.013684	       0.784013
	 D(3,9,11,13)     =        -3.099001	    -177.559699
	 D(4,2,1,14)      =         3.136849	     179.728222
	 D(4,11,9,10)     =         3.115768	     178.520350
	 D(5,7,12,8)      =        -0.001983	      -0.113626
	 D(5,10,6,8)      =         0.004205	       0.240936
	 D(5,10,6,19)     =        -3.117800	    -178.636769
	 D(5,10,9,11)     =        -2.572211	    -147.376839
	 D(6,8,12,7)      =        -0.002010	      -0.115178
	 D(6,10,5,7)      =        -0.007880	      -0.451482
	 D(6,10,5,18)     =        -3.116081	    -178.538277
	 D(6,10,9,11)     =         0.627335	      35.943663
	 D(7,5,10,9)      =        -3.094967	    -177.328538
	 D(7,12,8,21)     =         3.135613	     179.657364
	 D(8,6,10,9)      =         3.089979	     177.042750
	 D(8,12,7,20)     =         3.137233	     179.750219
	 D(9,3,1,14)      =        -3.127151	    -179.172565
	 D(9,10,5,18)     =         0.080018	       4.584667
	 D(9,10,6,19)     =        -0.032026	      -1.834955
	 D(9,11,4,17)     =        -3.136812	    -179.726102
	 D(10,5,7,12)     =         0.007127	       0.408319
	 D(10,5,7,20)     =        -3.132007	    -179.450763
	 D(10,6,8,12)     =         0.000787	       0.045099
	 D(10,6,8,21)     =        -3.136701	    -179.719718
	 D(10,9,3,16)     =         0.061439	       3.520201
	 D(10,9,11,13)    =         0.003083	       0.176639
	 D(11,4,2,15)     =         3.138108	     179.800363
	 D(11,9,3,16)     =        -3.118707	    -178.688763
	 D(12,7,5,18)     =         3.115676	     178.515106
	 D(12,8,6,19)     =         3.123023	     178.936024
	 D(13,11,4,17)    =        -0.023598	      -1.352085
	 D(14,1,2,15)     =        -0.005379	      -0.308167
	 D(14,1,3,16)     =        -0.023393	      -1.340348
	 D(15,2,4,17)     =        -0.013216	      -0.757234
	 D(18,5,7,20)     =        -0.023457	      -1.343975
	 D(19,6,8,21)     =        -0.014465	      -0.828793
	 R(6,13)          =         5.344277	       2.828070

	Current energy   :      -577.7276019074

	Energy change for the previous step:
		Projected    :         0.0000007687
		Actual       :         0.0000006743

	Performing BFGS update.
	Previous computed or guess Hessian on step 1.
	Steps to be used in Hessian update: 7 6
	Adding user-defined constraint: Fragment 1; Coordinate 67:
		Value =     0.528182; Fixed value    =     0.523600
		Force =    -0.003093; Force constant =     0.675000
	Removing off-diagonal coupling between coordinate 67 and others.
	Taking RFO optimization step.
	Going to follow RFO solution 1.
	Using RFO vector 1.
	Norm of target step-size    0.00391
	Projected energy change by RFO approximation:         0.0000004132

	Back-transformation to cartesian coordinates...
	Could not converge backtransformation.
	Using first guess instead.

	--- Internal Coordinate Step in ANG or DEG, aJ/ANG or AJ/DEG ---
	 ---------------------------------------------------------------------------
	   Coordinate                Previous        Force       Change         New 
	   ----------                --------       ------       ------       ------
	    1 R(1,2)          =      1.387960    -0.000040     0.000002     1.387962
	    2 R(1,3)          =      1.384665    -0.000002     0.000014     1.384679
	    3 R(1,14)         =      1.078466    -0.000030     0.000013     1.078479
	    4 R(2,4)          =      1.385934    -0.000050     0.000019     1.385953
	    5 R(2,15)         =      1.078749    -0.000015     0.000011     1.078760
	    6 R(3,9)          =      1.397113     0.000004     0.000002     1.397115
	    7 R(3,16)         =      1.079157    -0.000090     0.000008     1.079165
	    8 R(4,11)         =      1.379652     0.000098     0.000027     1.379679
	    9 R(4,17)         =      1.077923    -0.000008     0.000012     1.077935
	   10 R(5,7)          =      1.384850     0.000077    -0.000002     1.384848
	   11 R(5,10)         =      1.393083    -0.000054     0.000020     1.393103
	   12 R(5,18)         =      1.079192    -0.000097    -0.000004     1.079189
	   13 R(6,8)          =      1.385777    -0.000051     0.000007     1.385784
	   14 R(6,10)         =      1.393023     0.000161     0.000004     1.393027
	   15 R(6,19)         =      1.076941    -0.000087    -0.000002     1.076938
	   16 R(7,12)         =      1.334848    -0.000185     0.000032     1.334881
	   17 R(7,20)         =      1.081025    -0.000016     0.000002     1.081028
	   18 R(8,12)         =      1.334780     0.000073     0.000027     1.334807
	   19 R(8,21)         =      1.080896    -0.000028     0.000007     1.080903
	   20 R(9,10)         =      1.463432     0.000353    -0.000087     1.463345
	   21 R(9,11)         =      1.391412     0.000062     0.000001     1.391413
	   22 R(11,13)        =      1.347396    -0.000694     0.000040     1.347436
	   23 B(1,2,4)        =    119.668457     0.000000    -0.001492   119.666965
	   24 B(1,2,15)       =    120.566086     0.000000     0.000780   120.566866
	   25 B(1,3,9)        =    121.887690     0.000001    -0.000581   121.887109
	   26 B(1,3,16)       =    119.584937    -0.000000     0.000999   119.585936
	   27 B(2,1,3)        =    119.907001    -0.000001     0.001146   119.908147
	   28 B(2,1,14)       =    120.272063     0.000000    -0.000534   120.271529
	   29 B(2,4,11)       =    119.191262     0.000001     0.001268   119.192531
	   30 B(2,4,17)       =    121.895514    -0.000002     0.000413   121.895926
	   31 B(3,1,14)       =    119.819401     0.000001    -0.000416   119.818985
	   32 B(3,9,10)       =    120.707523    -0.000001     0.005041   120.712565
	   33 B(3,9,11)       =    116.290147     0.000000     0.001522   116.291669
	   34 B(4,2,15)       =    119.765447    -0.000001     0.000709   119.766156
	   35 B(4,11,9)       =    123.049990    -0.000002    -0.001541   123.048449
	   36 B(4,11,13)      =    117.489769     0.000001     0.000976   117.490745
	   37 B(5,7,12)       =    123.680525     0.000000     0.001294   123.681819
	   38 B(5,7,20)       =    119.999550    -0.000000    -0.002476   119.997073
	   39 B(5,10,6)       =    116.610028    -0.000001     0.002258   116.612287
	   40 B(5,10,9)       =    120.551120     0.000001     0.002999   120.554118
	   41 B(6,8,12)       =    123.971823    -0.000000     0.001505   123.973329
	   42 B(6,8,21)       =    119.811528     0.000000    -0.002442   119.809086
	   43 B(6,10,9)       =    122.760912    -0.000001    -0.005705   122.755207
	   44 B(7,5,10)       =    119.777049     0.000000    -0.001458   119.775591
	   45 B(7,5,18)       =    119.578771    -0.000000    -0.000896   119.577875
	   46 B(7,12,8)       =    116.501919     0.000000    -0.001925   116.499994
	   47 B(8,6,10)       =    119.457152     0.000000    -0.001680   119.455471
	   48 B(8,6,19)       =    119.685095     0.000000     0.001217   119.686312
	   49 B(9,3,16)       =    118.492918    -0.000001    -0.000143   118.492775
	   50 B(9,11,13)      =    119.440541     0.000001    -0.002187   119.438354
	   51 B(10,5,18)      =    120.616743    -0.000000     0.002342   120.619086
	   52 B(10,6,19)      =    120.848295    -0.000000     0.000170   120.848465
	   53 B(10,9,11)      =    122.963204     0.000000    -0.006840   122.956364
	   54 B(11,4,17)      =    118.910927     0.000000    -0.001571   118.909356
	   55 B(12,7,20)      =    116.319786     0.000000     0.001043   116.320830
	   56 B(12,8,21)      =    116.216262    -0.000000     0.001095   116.217357
	   57 D(1,2,4,11)     =     -0.235731    -0.000000    -0.020189    -0.255920
	   58 D(1,2,4,17)     =    179.206672    -0.000000    -0.006701   179.199971
	   59 D(1,3,9,10)     =   -178.624752     0.000001     0.020075  -178.604677
	   60 D(1,3,9,11)     =     -0.833716    -0.000000     0.012130    -0.821586
	   61 D(2,1,3,9)      =      0.377938     0.000000     0.021369     0.399307
	   62 D(2,1,3,16)     =    178.210156     0.000000     0.030033   178.240190
	   63 D(2,4,11,9)     =     -0.266908    -0.000000     0.056667    -0.210241
	   64 D(2,4,11,13)    =    178.107110    -0.000000    -0.053189   178.053920
	   65 D(3,1,2,4)      =      0.179777     0.000000    -0.017381     0.162396
	   66 D(3,1,2,15)     =   -179.856611    -0.000000    -0.022861  -179.879473
	   67 D(3,9,10,5)     =     30.262617    -0.000003    -0.015734    30.246883
	   68 D(3,9,10,6)     =   -146.416881    -0.000002    -0.006288  -146.423170
	   69 D(3,9,11,4)     =      0.784013     0.000000    -0.051779     0.732234
	   70 D(3,9,11,13)    =   -177.559699     0.000001     0.060072  -177.499627
	   71 D(4,2,1,14)     =    179.728222     0.000000     0.012549   179.740771
	   72 D(4,11,9,10)    =    178.520350    -0.000001    -0.059626   178.460724
	   73 D(5,7,12,8)     =     -0.113626     0.000000     0.070228    -0.043398
	   74 D(5,10,6,8)     =      0.240936     0.000000    -0.012732     0.228204
	   75 D(5,10,6,19)    =   -178.636769     0.000000     0.004527  -178.632242
	   76 D(5,10,9,11)    =   -147.376839    -0.000002    -0.007458  -147.384297
	   77 D(6,8,12,7)     =     -0.115178    -0.000000    -0.075182    -0.190360
	   78 D(6,10,5,7)     =     -0.451482    -0.000000     0.008457    -0.443024
	   79 D(6,10,5,18)    =   -178.538277    -0.000000     0.008905  -178.529372
	   80 D(6,10,9,11)    =     35.943663    -0.000001     0.001988    35.945650
	   81 D(7,5,10,9)     =   -177.328538     0.000001     0.017603  -177.310935
	   82 D(7,12,8,21)    =    179.657364    -0.000000    -0.022521   179.634843
	   83 D(8,6,10,9)     =    177.042750    -0.000001    -0.021793   177.020957
	   84 D(8,12,7,20)    =    179.750219     0.000000     0.013892   179.764111
	   85 D(9,3,1,14)     =   -179.172565     0.000000    -0.008424  -179.180990
	   86 D(9,10,5,18)    =      4.584667     0.000001     0.018050     4.602718
	   87 D(9,10,6,19)    =     -1.834955    -0.000001    -0.004535    -1.839489
	   88 D(9,11,4,17)    =   -179.726102     0.000000     0.043575  -179.682527
	   89 D(10,5,7,12)    =      0.408319     0.000000    -0.039139     0.369180
	   90 D(10,5,7,20)    =   -179.450763     0.000000     0.019162  -179.431601
	   91 D(10,6,8,12)    =      0.045099    -0.000000     0.048580     0.093679
	   92 D(10,6,8,21)    =   -179.719718    -0.000000    -0.005876  -179.725594
	   93 D(10,9,3,16)    =      3.520201     0.000001     0.011477     3.531678
	   94 D(10,9,11,13)   =      0.176639    -0.000000     0.052225     0.228864
	   95 D(11,4,2,15)    =    179.800363    -0.000000    -0.014753   179.785610
	   96 D(11,9,3,16)    =   -178.688763    -0.000000     0.003532  -178.685231
	   97 D(12,7,5,18)    =    178.515106     0.000000    -0.039519   178.475587
	   98 D(12,8,6,19)    =    178.936024    -0.000000     0.031513   178.967537
	   99 D(13,11,4,17)   =     -1.352085    -0.000000    -0.066281    -1.418366
	  100 D(14,1,2,15)    =     -0.308167     0.000000     0.007069    -0.301098
	  101 D(14,1,3,16)    =     -1.340348     0.000000     0.000240    -1.340107
	  102 D(15,2,4,17)    =     -0.757234    -0.000000    -0.001265    -0.758499
	  103 D(18,5,7,20)    =     -1.343975     0.000000     0.018782    -1.325193
	  104 D(19,6,8,21)    =     -0.828793    -0.000000    -0.022943    -0.851736
	  105 R(6,13)         =      2.828070     0.000064    -0.000178     2.827892
	 ---------------------------------------------------------------------------
	Successfully symmetrized geometry.
	 Forces used to impose fixed constraints are not included.
	  Forces zeroed: 67 

  ==> Convergence Check <==

  Measures of convergence in internal coordinates in au.
  Criteria marked as inactive (o), active & met (*), and active & unmet ( ).
  ---------------------------------------------------------------------------------------------
   Step     Total Energy     Delta E     MAX Force     RMS Force      MAX Disp      RMS Disp   
  ---------------------------------------------------------------------------------------------
    Convergence Criteria    1.00e-06 *    3.00e-04 *             o    1.20e-03 *             o
  ---------------------------------------------------------------------------------------------
      8    -577.72760191    6.74e-07 *    1.13e-04 *    2.46e-05 o    1.31e-03      3.82e-04 o  ~
  ---------------------------------------------------------------------------------------------


  **** Optimization is complete! (in 8 steps) ****

  ==> Optimization Summary <==

  Measures of convergence in internal coordinates in au.
  --------------------------------------------------------------------------------------------------------------- ~
   Step         Total Energy             Delta E       MAX Force       RMS Force        MAX Disp        RMS Disp  ~
  --------------------------------------------------------------------------------------------------------------- ~
      1    -577.721926681883   -577.721926681883      0.01636319      0.00495786      0.03855611      0.00977275  ~
      2    -577.725373180200     -0.003446498317      0.00817569      0.00206515      0.07154867      0.00977227  ~
      3    -577.726669899414     -0.001296719214      0.00561830      0.00082319      0.08158328      0.00977381  ~
      4    -577.727226460291     -0.000556560877      0.00337364      0.00041110      0.08066562      0.00977375  ~
      5    -577.727506196209     -0.000279735917      0.00160175      0.00021038      0.06761895      0.00861436  ~
      6    -577.727599152075     -0.000092955866      0.00062779      0.00011077      0.01469800      0.00179283  ~
      7    -577.727602581647     -0.000003429572      0.00025546      0.00004698      0.00233562      0.00042208  ~
      8    -577.727601907368      0.000000674279      0.00018242      0.00003038      0.00131217      0.00038185  ~
  --------------------------------------------------------------------------------------------------------------- ~

	Writing optimization data to binary file.
	Final energy is   -577.7276019073684
	Final (previous) structure:
	Cartesian Geometry (in Angstrom)
	    C    -1.3818439698   0.8077082308  -2.6638052263
	    C    -2.4541176119   1.4124897161  -2.0227885077
	    C    -0.3726226152   0.2222756321  -1.9181257052
	    C    -2.5047910634   1.4291410406  -0.6378808386
	    C     1.9949861306  -0.3885213566  -0.2636492121
	    C     0.5004218791  -1.0401246060   1.4572025309
	    C     3.0093062633  -1.0092405393   0.4460495857
	    C     1.5777299033  -1.6372819459   2.0921737377
	    C    -0.3984953540   0.2112537239  -0.5212960204
	    C     0.6968024506  -0.3885484096   0.2417203970
	    C    -1.4860655221   0.8371750325   0.0799033034
	    N     2.8229670878  -1.6327072724   1.6115483503
	    F    -1.5499949163   0.9073517368   1.4239508485
	    H    -1.3347312417   0.7852902280  -3.7410081619
	    H    -3.2473270967   1.8697525911  -2.5932523717
	    H     0.4439119989  -0.2718356140  -2.4218164751
	    H    -3.3138985005   1.8996238952  -0.1031762771
	    H     2.2246114626   0.1173932066  -1.1888401208
	    H    -0.4797239525  -1.1005906693   1.8993107548
	    H     4.0196397988  -1.0037134914   0.0615876729
	    H     1.4310101929  -2.1483068467   3.0332703654
	Saving final (previous) structure.
			--------------------------
			 OPTKING Finished Execution 
			--------------------------

    Final optimized geometry and variables:
    Molecular point group: c1
    Full point group: C1

    Geometry (in Angstrom), charge = 0, multiplicity = 1:

    C           -1.381843969774     0.807708230814    -2.663805226273
    C           -2.454117611923     1.412489716102    -2.022788507655
    C           -0.372622615234     0.222275632122    -1.918125705231
    C           -2.504791063418     1.429141040609    -0.637880838594
    C            1.994986130588    -0.388521356603    -0.263649212108
    C            0.500421879114    -1.040124606005     1.457202530880
    C            3.009306263350    -1.009240539314     0.446049585720
    C            1.577729903299    -1.637281945943     2.092173737682
    C           -0.398495353953     0.211253723902    -0.521296020393
    C            0.696802450638    -0.388548409601     0.241720396973
    C           -1.486065522092     0.837175032481     0.079903303388
    N            2.822967087797    -1.632707272353     1.611548350278
    F           -1.549994916256     0.907351736806     1.423950848539
    H           -1.334731241693     0.785290227976    -3.741008161912
    H           -3.247327096694     1.869752591055    -2.593252371687
    H            0.443911998936    -0.271835613978    -2.421816475058
    H           -3.313898500544     1.899623895228    -0.103176277131
    H            2.224611462555     0.117393206627    -1.188840120753
    H           -0.479723952512    -1.100590669301     1.899310754768
    H            4.019639798823    -1.003713491448     0.061587672918
    H            1.431010192852    -2.148306846680     3.033270365428

	Cleaning optimization helper files.

*** Psi4 exiting successfully. Buy a developer a beer!
