
    -----------------------------------------------------------------------
          Psi4: An Open-Source Ab Initio Electronic Structure Package
                               Psi4 1.1 release

                         Git: Rev {HEAD} add49b9 


    R. M. Parrish, L. A. Burns, D. G. A. Smith, A. C. Simmonett,
    A. E. DePrince III, E. G. Hohenstein, U. Bozkaya, A. Yu. Sokolov,
    R. Di Remigio, R. M. Richard, J. F. Gonthier, A. M. James,
    H. R. McAlexander, A. Kumar, M. Saitow, X. Wang, B. P. Pritchard,
    P. Verma, H. F. Schaefer III, K. Patkowski, R. A. King, E. F. Valeev,
    F. A. Evangelista, J. M. Turney, T. D. Crawford, and C. D. Sherrill,
    J. Chem. Theory Comput. in press (2017).
    (doi: 10.1021/acs.jctc.7b00174)

    -----------------------------------------------------------------------


    Psi4 started on: Monday, 13 November 2017 05:45PM

    Process ID:   7890
    PSIDATADIR: /cbio/jclab/home/chayas/anaconda/envs/py35/share/psi4
    Memory:     500.0 MiB
    Threads:    8
    
  ==> Input File <==

--------------------------------------------------------------------------

memory 5 Gb

molecule phepyrFOH_anion {
  symmetry C1
  -1 1 
  C      1.885   -1.036   -0.112
  C      0.807   -0.463   0.561
  C      3.888   -3.447   -0.739
  C      5.266   -1.572   -0.130
  C      1.800   -1.079   2.676
  C      4.987   -3.972   -1.399
  C      6.303   -2.181   -0.817
  C      2.921   -1.631   0.608
  C      4.038   -2.224   -0.095
  C      0.764   -0.484   1.955
  C      2.878   -1.652   2.002
  N      6.195   -3.368   -1.455
  O      -0.227   0.043   2.574
  F      3.866   -2.220   2.709
  H      1.904   -1.013   -1.200
  H      0.011   -0.007   -0.025
  H      2.945   -3.985   -0.735
  H      5.420   -0.617   0.361
  H      1.791   -1.109   3.764
  H      4.921   -4.922   -1.919
  H      7.281   -1.714   -0.874
  units Angstrom
}

dih_string = "1 8 9 3 285"
set optking { fixed_dihedral = $dih_string
              opt_coordinates = cartesian
              dynamic_level = 1
              geom_maxiter = 250
              print_trajectory_xyz_file = True }

optimize('MP2/aug-cc-PVTZ')
--------------------------------------------------------------------------

  Memory set to   4.657 GiB by Python driver.
gradient() will perform analytic gradient computation.

*** tstart() called on gpu-1-8.local
*** at Mon Nov 13 17:45:39 2017

    SCF Algorithm Type (re)set to DF.

*** tstart() called on gpu-1-8.local
*** at Mon Nov 13 17:45:39 2017

   => Loading Basis Set <=

    Name: AUG-CC-PVTZ
    Role: ORBITAL
    Keyword: BASIS
    atoms 1-11  entry C          line   221 file /cbio/jclab/home/chayas/anaconda/envs/py35/share/psi4/basis/aug-cc-pvtz.gbs 
    atoms 12    entry N          line   267 file /cbio/jclab/home/chayas/anaconda/envs/py35/share/psi4/basis/aug-cc-pvtz.gbs 
    atoms 13    entry O          line   313 file /cbio/jclab/home/chayas/anaconda/envs/py35/share/psi4/basis/aug-cc-pvtz.gbs 
    atoms 14    entry F          line   359 file /cbio/jclab/home/chayas/anaconda/envs/py35/share/psi4/basis/aug-cc-pvtz.gbs 
    atoms 15-21 entry H          line    34 file /cbio/jclab/home/chayas/anaconda/envs/py35/share/psi4/basis/aug-cc-pvtz.gbs 


         ---------------------------------------------------------
                                   SCF
            by Justin Turney, Rob Parrish, and Andy Simmonett
                              RHF Reference
                        8 Threads,   4768 MiB Core
         ---------------------------------------------------------

  ==> Geometry <==

    Molecular point group: c1
    Full point group: C1

    Geometry (in Angstrom), charge = -1, multiplicity = 1:

       Center              X                  Y                   Z               Mass       
    ------------   -----------------  -----------------  -----------------  -----------------
           C         -1.345359966195     0.766778624336    -0.780702033201    12.000000000000
           C         -2.423359966195     1.339778624336    -0.107702033201    12.000000000000
           C          0.657640033805    -1.644221375664    -1.407702033201    12.000000000000
           C          2.035640033805     0.230778624336    -0.798702033201    12.000000000000
           C         -1.430359966195     0.723778624336     2.007297966799    12.000000000000
           C          1.756640033805    -2.169221375664    -2.067702033201    12.000000000000
           C          3.072640033805    -0.378221375664    -1.485702033201    12.000000000000
           C         -0.309359966195     0.171778624336    -0.060702033201    12.000000000000
           C          0.807640033805    -0.421221375664    -0.763702033201    12.000000000000
           C         -2.466359966195     1.318778624336     1.286297966799    12.000000000000
           C         -0.352359966195     0.150778624336     1.333297966799    12.000000000000
           N          2.964640033805    -1.565221375664    -2.123702033201    14.003074004780
           O         -3.457359966195     1.845778624336     1.905297966799    15.994914619560
           F          0.635640033805    -0.417221375664     2.040297966799    18.998403224000
           H         -1.326359966195     0.789778624336    -1.868702033201     1.007825032070
           H         -3.219359966195     1.795778624336    -0.693702033201     1.007825032070
           H         -0.285359966195    -2.182221375664    -1.403702033201     1.007825032070
           H          2.189640033805     1.185778624336    -0.307702033201     1.007825032070
           H         -1.439359966195     0.693778624336     3.095297966799     1.007825032070
           H          1.690640033805    -3.119221375664    -2.587702033201     1.007825032070
           H          4.050640033805     0.088778624336    -1.542702033201     1.007825032070

  Running in c1 symmetry.

  Rotational constants: A =      0.06333  B =      0.01322  C =      0.01211 [cm^-1]
  Rotational constants: A =   1898.45312  B =    396.27651  C =    363.06568 [MHz]
  Nuclear repulsion =  800.910484594098875

  Charge       = -1
  Multiplicity = 1
  Electrons    = 98
  Nalpha       = 49
  Nbeta        = 49

  ==> Algorithm <==

  SCF Algorithm Type is DF.
  DIIS enabled.
  MOM disabled.
  Fractional occupation disabled.
  Guess Type is SAD.
  Energy threshold   = 1.00e-10
  Density threshold  = 1.00e-10
  Integral threshold = 0.00e+00

  ==> Primary Basis <==

  Basis Set: AUG-CC-PVTZ
    Blend: AUG-CC-PVTZ
    Number of shells: 259
    Number of basis function: 805
    Number of Cartesian functions: 945
    Spherical Harmonics?: true
    Max angular momentum: 3

   => Loading Basis Set <=

    Name: (AUG-CC-PVTZ AUX)
    Role: JKFIT
    Keyword: DF_BASIS_SCF
    atoms 1-11  entry C          line   161 file /cbio/jclab/home/chayas/anaconda/envs/py35/share/psi4/basis/aug-cc-pvtz-jkfit.gbs 
    atoms 12    entry N          line   223 file /cbio/jclab/home/chayas/anaconda/envs/py35/share/psi4/basis/aug-cc-pvtz-jkfit.gbs 
    atoms 13    entry O          line   285 file /cbio/jclab/home/chayas/anaconda/envs/py35/share/psi4/basis/aug-cc-pvtz-jkfit.gbs 
    atoms 14    entry F          line   347 file /cbio/jclab/home/chayas/anaconda/envs/py35/share/psi4/basis/aug-cc-pvtz-jkfit.gbs 
    atoms 15-21 entry H          line    69 file /cbio/jclab/home/chayas/anaconda/envs/py35/share/psi4/basis/aug-cc-pvtz-jkfit.gbs 

  ==> Pre-Iterations <==

   -------------------------------------------------------
    Irrep   Nso     Nmo     Nalpha   Nbeta   Ndocc  Nsocc
   -------------------------------------------------------
     A        805     805       0       0       0       0
   -------------------------------------------------------
    Total     805     805      49      49      49       0
   -------------------------------------------------------

  ==> Integral Setup <==

  ==> DFJK: Density-Fitted J/K Matrices <==

    J tasked:                  Yes
    K tasked:                  Yes
    wK tasked:                  No
    OpenMP threads:              8
    Integrals threads:           8
    Memory (MB):              3576
    Algorithm:                Disk
    Integral Cache:           NONE
    Schwarz Cutoff:          1E-12
    Fitting Condition:       1E-12

   => Auxiliary Basis Set <=

  Basis Set: (AUG-CC-PVTZ AUX)
    Blend: AUG-CC-PVTZ-JKFIT
    Number of shells: 518
    Number of basis function: 1778
    Number of Cartesian functions: 2219
    Spherical Harmonics?: true
    Max angular momentum: 4

  Minimum eigenvalue in the overlap matrix is 8.4705637079E-07.
  Using Symmetric Orthogonalization.

  SCF Guess: Superposition of Atomic Densities via on-the-fly atomic UHF.

  ==> Iterations <==

                           Total Energy        Delta E     RMS |[F,P]|

   @DF-RHF iter   0:  -660.75063371709120   -6.60751e+02   1.89488e-02 
   @DF-RHF iter   1:  -649.09366785771499    1.16570e+01   2.14453e-03 
   @DF-RHF iter   2:  -649.43720442295876   -3.43537e-01   1.39828e-03 DIIS
   @DF-RHF iter   3:  -649.57858149885271   -1.41377e-01   4.21523e-04 DIIS
   @DF-RHF iter   4:  -649.60144178405665   -2.28603e-02   1.59660e-04 DIIS
   @DF-RHF iter   5:  -649.60496267979602   -3.52090e-03   5.26603e-05 DIIS
   @DF-RHF iter   6:  -649.60552220370880   -5.59524e-04   2.50070e-05 DIIS
   @DF-RHF iter   7:  -649.60563972215834   -1.17518e-04   9.81100e-06 DIIS
   @DF-RHF iter   8:  -649.60565880882211   -1.90867e-05   3.85370e-06 DIIS
   @DF-RHF iter   9:  -649.60566408896352   -5.28014e-06   1.89817e-06 DIIS
   @DF-RHF iter  10:  -649.60566516390213   -1.07494e-06   7.80090e-07 DIIS
   @DF-RHF iter  11:  -649.60566537518594   -2.11284e-07   2.44886e-07 DIIS
   @DF-RHF iter  12:  -649.60566539207025   -1.68843e-08   1.09608e-07 DIIS
   @DF-RHF iter  13:  -649.60566539524734   -3.17709e-09   3.92123e-08 DIIS
   @DF-RHF iter  14:  -649.60566539579395   -5.46606e-10   1.65115e-08 DIIS
   @DF-RHF iter  15:  -649.60566539586955   -7.56017e-11   6.59657e-09 DIIS
   @DF-RHF iter  16:  -649.60566539587319   -3.63798e-12   2.45265e-09 DIIS
   @DF-RHF iter  17:  -649.60566539587489   -1.70530e-12   1.24186e-09 DIIS
   @DF-RHF iter  18:  -649.60566539585238    2.25100e-11   4.61616e-10 DIIS
   @DF-RHF iter  19:  -649.60566539586034   -7.95808e-12   2.33557e-10 DIIS
   @DF-RHF iter  20:  -649.60566539585750    2.84217e-12   9.35598e-11 DIIS

  ==> Post-Iterations <==

    Orbital Energies (a.u.)
    -----------------------

    Doubly Occupied:                                                      

       1A    -26.183989     2A    -20.293922     3A    -15.464990  
       4A    -11.186565     5A    -11.174862     6A    -11.174362  
       7A    -11.150010     8A    -11.130313     9A    -11.129672  
      10A    -11.116839    11A    -11.105516    12A    -11.080059  
      13A    -11.060066    14A    -11.059479    15A     -1.503149  
      16A     -1.149232    17A     -1.126854    18A     -1.024387  
      19A     -0.964759    20A     -0.931904    21A     -0.869314  
      22A     -0.846812    23A     -0.752231    24A     -0.741304  
      25A     -0.700996    26A     -0.673842    27A     -0.609732  
      28A     -0.577906    29A     -0.572418    30A     -0.559294  
      31A     -0.553926    32A     -0.546730    33A     -0.501540  
      34A     -0.496844    35A     -0.468661    36A     -0.458072  
      37A     -0.435175    38A     -0.419732    39A     -0.411828  
      40A     -0.379246    41A     -0.373683    42A     -0.352956  
      43A     -0.317871    44A     -0.288548    45A     -0.262648  
      46A     -0.248621    47A     -0.214016    48A     -0.196097  
      49A     -0.114571  

    Virtual:                                                              

      50A      0.096879    51A      0.099411    52A      0.113983  
      53A      0.119624    54A      0.124053    55A      0.127453  
      56A      0.130318    57A      0.152013    58A      0.165447  
      59A      0.173705    60A      0.181167    61A      0.184089  
      62A      0.184863    63A      0.186169    64A      0.188386  
      65A      0.192610    66A      0.193745    67A      0.201089  
      68A      0.205986    69A      0.210265    70A      0.214956  
      71A      0.216056    72A      0.220625    73A      0.224505  
      74A      0.226635    75A      0.228696    76A      0.232248  
      77A      0.232950    78A      0.240484    79A      0.246326  
      80A      0.249341    81A      0.255419    82A      0.258904  
      83A      0.265537    84A      0.267723    85A      0.273183  
      86A      0.284528    87A      0.289310    88A      0.292915  
      89A      0.297054    90A      0.302216    91A      0.306520  
      92A      0.316139    93A      0.319660    94A      0.320022  
      95A      0.329908    96A      0.332546    97A      0.334648  
      98A      0.337301    99A      0.341500   100A      0.345258  
     101A      0.350550   102A      0.354546   103A      0.359652  
     104A      0.363986   105A      0.365899   106A      0.371173  
     107A      0.379471   108A      0.384233   109A      0.390084  
     110A      0.394032   111A      0.397527   112A      0.402179  
     113A      0.405764   114A      0.409581   115A      0.410742  
     116A      0.413618   117A      0.416115   118A      0.425012  
     119A      0.425963   120A      0.437859   121A      0.445804  
     122A      0.447373   123A      0.454026   124A      0.457764  
     125A      0.459782   126A      0.466917   127A      0.468191  
     128A      0.480966   129A      0.482472   130A      0.487923  
     131A      0.497063   132A      0.501924   133A      0.504974  
     134A      0.508082   135A      0.511026   136A      0.513855  
     137A      0.522295   138A      0.526011   139A      0.535949  
     140A      0.540293   141A      0.544560   142A      0.547599  
     143A      0.554058   144A      0.558182   145A      0.559908  
     146A      0.568977   147A      0.572236   148A      0.575010  
     149A      0.576515   150A      0.579964   151A      0.586201  
     152A      0.587598   153A      0.589864   154A      0.594370  
     155A      0.597102   156A      0.599077   157A      0.604467  
     158A      0.606912   159A      0.614950   160A      0.618658  
     161A      0.622392   162A      0.626230   163A      0.627634  
     164A      0.630757   165A      0.636538   166A      0.640329  
     167A      0.646361   168A      0.649469   169A      0.656677  
     170A      0.659612   171A      0.667811   172A      0.673696  
     173A      0.677365   174A      0.680197   175A      0.686082  
     176A      0.690702   177A      0.692200   178A      0.700711  
     179A      0.711466   180A      0.713394   181A      0.716001  
     182A      0.720549   183A      0.724987   184A      0.736702  
     185A      0.739273   186A      0.742471   187A      0.750582  
     188A      0.753608   189A      0.764377   190A      0.768644  
     191A      0.771474   192A      0.782122   193A      0.789101  
     194A      0.794259   195A      0.798152   196A      0.803902  
     197A      0.814685   198A      0.820593   199A      0.826283  
     200A      0.828910   201A      0.838006   202A      0.842733  
     203A      0.847191   204A      0.852378   205A      0.856567  
     206A      0.857133   207A      0.862407   208A      0.868103  
     209A      0.873428   210A      0.878915   211A      0.881121  
     212A      0.895212   213A      0.900520   214A      0.905885  
     215A      0.908076   216A      0.913445   217A      0.922758  
     218A      0.933791   219A      0.938822   220A      0.953804  
     221A      0.958241   222A      0.962907   223A      0.969858  
     224A      0.975794   225A      0.986389   226A      0.990513  
     227A      0.998279   228A      1.004760   229A      1.010859  
     230A      1.011808   231A      1.014785   232A      1.019459  
     233A      1.022001   234A      1.030171   235A      1.032765  
     236A      1.035158   237A      1.036585   238A      1.045673  
     239A      1.046216   240A      1.051553   241A      1.056445  
     242A      1.063722   243A      1.066403   244A      1.070857  
     245A      1.075668   246A      1.079630   247A      1.087936  
     248A      1.093176   249A      1.095442   250A      1.098554  
     251A      1.101425   252A      1.104538   253A      1.109160  
     254A      1.114945   255A      1.124754   256A      1.130830  
     257A      1.136532   258A      1.140071   259A      1.144548  
     260A      1.149367   261A      1.153016   262A      1.156258  
     263A      1.158198   264A      1.164505   265A      1.165759  
     266A      1.175196   267A      1.177589   268A      1.187025  
     269A      1.191345   270A      1.198225   271A      1.198641  
     272A      1.203806   273A      1.210391   274A      1.214274  
     275A      1.217339   276A      1.220032   277A      1.234659  
     278A      1.235623   279A      1.243966   280A      1.249064  
     281A      1.254938   282A      1.262783   283A      1.268157  
     284A      1.270424   285A      1.274415   286A      1.279517  
     287A      1.285512   288A      1.286770   289A      1.294496  
     290A      1.300036   291A      1.305561   292A      1.316469  
     293A      1.318811   294A      1.319498   295A      1.326304  
     296A      1.329727   297A      1.336176   298A      1.339077  
     299A      1.340843   300A      1.346839   301A      1.356785  
     302A      1.363198   303A      1.365246   304A      1.379178  
     305A      1.383835   306A      1.390034   307A      1.393082  
     308A      1.402180   309A      1.403154   310A      1.406287  
     311A      1.410497   312A      1.418136   313A      1.424264  
     314A      1.427422   315A      1.439439   316A      1.448754  
     317A      1.450124   318A      1.465210   319A      1.467356  
     320A      1.485137   321A      1.487453   322A      1.493577  
     323A      1.502847   324A      1.511488   325A      1.513446  
     326A      1.526037   327A      1.529083   328A      1.534448  
     329A      1.542447   330A      1.548277   331A      1.553771  
     332A      1.568332   333A      1.577126   334A      1.583443  
     335A      1.593111   336A      1.598571   337A      1.602560  
     338A      1.610313   339A      1.616147   340A      1.635131  
     341A      1.647728   342A      1.649610   343A      1.660071  
     344A      1.672916   345A      1.678341   346A      1.683283  
     347A      1.688684   348A      1.700707   349A      1.706228  
     350A      1.708540   351A      1.722369   352A      1.736214  
     353A      1.743630   354A      1.745380   355A      1.757046  
     356A      1.761567   357A      1.765802   358A      1.768832  
     359A      1.775419   360A      1.799373   361A      1.803733  
     362A      1.805281   363A      1.810578   364A      1.819796  
     365A      1.822246   366A      1.826988   367A      1.831711  
     368A      1.840442   369A      1.857835   370A      1.865498  
     371A      1.875274   372A      1.878099   373A      1.887135  
     374A      1.896771   375A      1.902073   376A      1.909759  
     377A      1.914789   378A      1.927176   379A      1.930096  
     380A      1.938285   381A      1.941954   382A      1.955653  
     383A      1.969868   384A      1.981845   385A      1.983773  
     386A      1.999213   387A      2.002386   388A      2.006668  
     389A      2.016986   390A      2.023772   391A      2.027875  
     392A      2.038043   393A      2.048460   394A      2.061494  
     395A      2.072795   396A      2.078739   397A      2.081386  
     398A      2.084378   399A      2.095084   400A      2.100342  
     401A      2.105155   402A      2.116576   403A      2.123665  
     404A      2.142254   405A      2.144083   406A      2.149056  
     407A      2.155484   408A      2.159786   409A      2.168266  
     410A      2.184741   411A      2.188543   412A      2.197930  
     413A      2.202876   414A      2.206118   415A      2.210240  
     416A      2.225612   417A      2.234698   418A      2.235491  
     419A      2.249219   420A      2.260714   421A      2.266174  
     422A      2.271055   423A      2.282755   424A      2.286002  
     425A      2.298491   426A      2.301176   427A      2.312634  
     428A      2.315528   429A      2.324244   430A      2.330419  
     431A      2.341615   432A      2.349783   433A      2.356325  
     434A      2.367506   435A      2.386965   436A      2.393925  
     437A      2.401346   438A      2.409379   439A      2.417757  
     440A      2.431781   441A      2.445502   442A      2.453664  
     443A      2.468059   444A      2.471157   445A      2.479760  
     446A      2.488446   447A      2.497392   448A      2.518046  
     449A      2.522584   450A      2.531090   451A      2.541465  
     452A      2.562795   453A      2.569648   454A      2.581499  
     455A      2.590229   456A      2.592484   457A      2.599877  
     458A      2.627328   459A      2.634617   460A      2.652100  
     461A      2.662902   462A      2.669409   463A      2.677624  
     464A      2.691327   465A      2.695271   466A      2.699244  
     467A      2.720674   468A      2.737509   469A      2.740687  
     470A      2.758581   471A      2.764490   472A      2.770158  
     473A      2.791138   474A      2.803892   475A      2.837019  
     476A      2.862871   477A      2.876166   478A      2.883673  
     479A      2.900140   480A      2.913312   481A      2.918601  
     482A      2.931165   483A      2.947414   484A      2.958935  
     485A      2.982188   486A      3.008487   487A      3.025107  
     488A      3.030143   489A      3.049415   490A      3.095142  
     491A      3.104966   492A      3.124203   493A      3.144931  
     494A      3.149865   495A      3.159083   496A      3.193972  
     497A      3.204092   498A      3.208664   499A      3.222088  
     500A      3.239800   501A      3.271056   502A      3.287761  
     503A      3.294922   504A      3.313800   505A      3.329935  
     506A      3.330486   507A      3.333047   508A      3.347899  
     509A      3.359257   510A      3.366284   511A      3.392337  
     512A      3.401048   513A      3.424638   514A      3.440181  
     515A      3.452904   516A      3.454803   517A      3.473130  
     518A      3.478978   519A      3.493527   520A      3.509871  
     521A      3.517216   522A      3.526785   523A      3.533777  
     524A      3.538407   525A      3.557275   526A      3.564895  
     527A      3.570064   528A      3.580604   529A      3.588658  
     530A      3.594249   531A      3.605186   532A      3.615806  
     533A      3.623291   534A      3.634600   535A      3.646551  
     536A      3.656055   537A      3.660490   538A      3.671737  
     539A      3.673655   540A      3.684771   541A      3.686901  
     542A      3.696910   543A      3.702073   544A      3.709270  
     545A      3.716510   546A      3.727436   547A      3.741102  
     548A      3.750346   549A      3.760834   550A      3.768840  
     551A      3.775641   552A      3.785635   553A      3.795547  
     554A      3.805390   555A      3.812367   556A      3.817815  
     557A      3.828136   558A      3.829125   559A      3.843957  
     560A      3.849206   561A      3.857908   562A      3.867351  
     563A      3.881486   564A      3.885872   565A      3.898632  
     566A      3.904701   567A      3.919151   568A      3.934915  
     569A      3.944182   570A      3.950887   571A      3.960793  
     572A      3.968975   573A      3.976647   574A      3.984516  
     575A      3.986992   576A      3.999975   577A      4.004258  
     578A      4.008212   579A      4.024495   580A      4.039255  
     581A      4.041504   582A      4.053395   583A      4.055954  
     584A      4.064431   585A      4.069478   586A      4.082575  
     587A      4.094081   588A      4.096943   589A      4.110884  
     590A      4.117991   591A      4.121103   592A      4.135832  
     593A      4.150408   594A      4.164335   595A      4.171028  
     596A      4.176028   597A      4.186455   598A      4.190090  
     599A      4.202166   600A      4.202823   601A      4.211054  
     602A      4.227822   603A      4.236166   604A      4.239672  
     605A      4.241647   606A      4.262882   607A      4.271157  
     608A      4.288381   609A      4.307367   610A      4.312964  
     611A      4.317813   612A      4.323205   613A      4.328458  
     614A      4.348385   615A      4.349012   616A      4.364245  
     617A      4.374097   618A      4.379637   619A      4.392402  
     620A      4.400853   621A      4.409169   622A      4.416455  
     623A      4.419278   624A      4.428353   625A      4.433971  
     626A      4.443332   627A      4.462955   628A      4.471254  
     629A      4.485926   630A      4.490606   631A      4.502106  
     632A      4.516050   633A      4.523366   634A      4.524622  
     635A      4.536854   636A      4.545556   637A      4.561841  
     638A      4.565665   639A      4.573566   640A      4.578883  
     641A      4.586771   642A      4.609987   643A      4.619279  
     644A      4.629688   645A      4.651495   646A      4.657944  
     647A      4.678753   648A      4.684131   649A      4.686222  
     650A      4.697993   651A      4.725850   652A      4.730571  
     653A      4.739292   654A      4.747874   655A      4.767896  
     656A      4.775519   657A      4.785165   658A      4.806336  
     659A      4.820070   660A      4.836839   661A      4.861705  
     662A      4.868460   663A      4.891773   664A      4.907326  
     665A      4.916045   666A      4.927306   667A      4.956384  
     668A      4.966154   669A      4.988756   670A      5.004340  
     671A      5.012877   672A      5.019357   673A      5.033991  
     674A      5.056878   675A      5.065347   676A      5.072856  
     677A      5.079737   678A      5.089391   679A      5.098814  
     680A      5.115607   681A      5.129004   682A      5.157494  
     683A      5.168304   684A      5.171353   685A      5.179669  
     686A      5.187754   687A      5.203807   688A      5.224918  
     689A      5.250340   690A      5.251890   691A      5.256312  
     692A      5.264151   693A      5.273656   694A      5.277558  
     695A      5.292572   696A      5.310831   697A      5.313264  
     698A      5.322047   699A      5.331435   700A      5.353378  
     701A      5.358041   702A      5.378025   703A      5.401422  
     704A      5.443175   705A      5.469423   706A      5.471404  
     707A      5.480876   708A      5.484201   709A      5.499316  
     710A      5.502629   711A      5.525685   712A      5.544858  
     713A      5.562088   714A      5.584266   715A      5.592509  
     716A      5.623890   717A      5.649605   718A      5.658258  
     719A      5.661664   720A      5.721305   721A      5.732882  
     722A      5.748557   723A      5.772730   724A      5.836579  
     725A      5.842996   726A      5.859822   727A      5.878800  
     728A      5.890619   729A      5.906112   730A      5.941686  
     731A      5.957902   732A      5.984041   733A      5.992321  
     734A      6.012466   735A      6.037348   736A      6.097917  
     737A      6.134001   738A      6.178943   739A      6.191218  
     740A      6.243098   741A      6.286833   742A      6.340264  
     743A      6.346605   744A      6.360152   745A      6.418658  
     746A      6.437272   747A      6.460203   748A      6.492428  
     749A      6.557423   750A      6.583055   751A      6.642836  
     752A      6.671362   753A      6.680542   754A      6.795419  
     755A      6.804255   756A      6.820095   757A      6.851408  
     758A      6.896219   759A      6.903847   760A      6.974060  
     761A      6.987576   762A      6.998721   763A      7.027051  
     764A      7.119888   765A      7.164118   766A      7.169318  
     767A      7.196353   768A      7.305049   769A      7.329532  
     770A      7.360785   771A      7.514503   772A      7.597409  
     773A      7.617310   774A      7.646405   775A      7.917610  
     776A      7.947547   777A      8.025132   778A      8.152977  
     779A      8.220048   780A      9.124992   781A      9.177599  
     782A      9.408420   783A      9.426184   784A      9.538407  
     785A      9.646388   786A      9.669422   787A      9.718718  
     788A      9.780464   789A      9.850296   790A     10.159142  
     791A     10.212091   792A     15.683073   793A     16.047420  
     794A     16.276050   795A     16.648195   796A     16.764764  
     797A     16.996353   798A     18.609198   799A     18.884140  
     800A     19.306650   801A     20.042602   802A     20.216991  
     803A     20.375186   804A     20.554331   805A     21.911238  

    Final Occupation by Irrep:
              A 
    DOCC [    49 ]

  Energy converged.

  @DF-RHF Final Energy:  -649.60566539585750

   => Energetics <=

    Nuclear Repulsion Energy =            800.9104845940988753
    One-Electron Energy =               -2491.1212124310100080
    Two-Electron Energy =                1040.6050624410536329
    DFT Exchange-Correlation Energy =       0.0000000000000000
    Empirical Dispersion Energy =           0.0000000000000000
    PCM Polarization Energy =               0.0000000000000000
    EFP Energy =                            0.0000000000000000
    Total Energy =                       -649.6056653958576135



Properties will be evaluated at   0.000000,   0.000000,   0.000000 Bohr

Properties computed using the SCF density matrix

  Nuclear Dipole Moment: (a.u.)
     X:     0.9318      Y:    -0.2938      Z:    -6.8863

  Electronic Dipole Moment: (a.u.)
     X:     1.9942      Y:    -1.2505      Z:     4.9218

  Dipole Moment: (a.u.)
     X:     2.9260      Y:    -1.5443      Z:    -1.9646     Total:     3.8478

  Dipole Moment: (Debye)
     X:     7.4370      Y:    -3.9252      Z:    -4.9935     Total:     9.7802


*** tstop() called on gpu-1-8.local at Mon Nov 13 17:52:48 2017
Module time:
	user time   =    1037.01 seconds =      17.28 minutes
	system time =      49.28 seconds =       0.82 minutes
	total time  =        429 seconds =       7.15 minutes
Total time:
	user time   =    1037.02 seconds =      17.28 minutes
	system time =      49.28 seconds =       0.82 minutes
	total time  =        429 seconds =       7.15 minutes

  //>>>>>>>>>>>>>>>>>>>>>>>>>>>>>>>>>>>//
  //               DFMP2               //
  //<<<<<<<<<<<<<<<<<<<<<<<<<<<<<<<<<<<//

   => Loading Basis Set <=

    Name: (AUG-CC-PVTZ AUX)
    Role: RIFIT
    Keyword: DF_BASIS_MP2
    atoms 1-11  entry C          line   147 file /cbio/jclab/home/chayas/anaconda/envs/py35/share/psi4/basis/aug-cc-pvtz-ri.gbs 
    atoms 12    entry N          line   205 file /cbio/jclab/home/chayas/anaconda/envs/py35/share/psi4/basis/aug-cc-pvtz-ri.gbs 
    atoms 13    entry O          line   263 file /cbio/jclab/home/chayas/anaconda/envs/py35/share/psi4/basis/aug-cc-pvtz-ri.gbs 
    atoms 14    entry F          line   321 file /cbio/jclab/home/chayas/anaconda/envs/py35/share/psi4/basis/aug-cc-pvtz-ri.gbs 
    atoms 15-21 entry H          line    29 file /cbio/jclab/home/chayas/anaconda/envs/py35/share/psi4/basis/aug-cc-pvtz-ri.gbs 

	 --------------------------------------------------------
	                          DF-MP2                         
	      2nd-Order Density-Fitted Moller-Plesset Theory     
	              RMP2 Wavefunction,   8 Threads             
	                                                         
	        Rob Parrish, Justin Turney, Andy Simmonett,      
	           Ed Hohenstein, and C. David Sherrill          
	 --------------------------------------------------------

   => Auxiliary Basis Set <=

  Basis Set: (AUG-CC-PVTZ AUX)
    Blend: AUG-CC-PVTZ-RI
    Number of shells: 490
    Number of basis function: 1806
    Number of Cartesian functions: 2289
    Spherical Harmonics?: true
    Max angular momentum: 4

	 --------------------------------------------------------
	                 NBF =   805, NAUX =  1806
	 --------------------------------------------------------
	   CLASS    FOCC     OCC    AOCC    AVIR     VIR    FVIR
	   PAIRS       0      49      49     756     756       0
	 --------------------------------------------------------


         ------------------------------------------------------------
                                     CPHF                           
                                  Rob Parrish                       
         ------------------------------------------------------------

  ==> Geometry <==

    Molecular point group: c1
    Full point group: C1

    Geometry (in Angstrom), charge = -1, multiplicity = 1:

       Center              X                  Y                   Z               Mass       
    ------------   -----------------  -----------------  -----------------  -----------------
           C         -1.345359966195     0.766778624336    -0.780702033201    12.000000000000
           C         -2.423359966195     1.339778624336    -0.107702033201    12.000000000000
           C          0.657640033805    -1.644221375664    -1.407702033201    12.000000000000
           C          2.035640033805     0.230778624336    -0.798702033201    12.000000000000
           C         -1.430359966195     0.723778624336     2.007297966799    12.000000000000
           C          1.756640033805    -2.169221375664    -2.067702033201    12.000000000000
           C          3.072640033805    -0.378221375664    -1.485702033201    12.000000000000
           C         -0.309359966195     0.171778624336    -0.060702033201    12.000000000000
           C          0.807640033805    -0.421221375664    -0.763702033201    12.000000000000
           C         -2.466359966195     1.318778624336     1.286297966799    12.000000000000
           C         -0.352359966195     0.150778624336     1.333297966799    12.000000000000
           N          2.964640033805    -1.565221375664    -2.123702033201    14.003074004780
           O         -3.457359966195     1.845778624336     1.905297966799    15.994914619560
           F          0.635640033805    -0.417221375664     2.040297966799    18.998403224000
           H         -1.326359966195     0.789778624336    -1.868702033201     1.007825032070
           H         -3.219359966195     1.795778624336    -0.693702033201     1.007825032070
           H         -0.285359966195    -2.182221375664    -1.403702033201     1.007825032070
           H          2.189640033805     1.185778624336    -0.307702033201     1.007825032070
           H         -1.439359966195     0.693778624336     3.095297966799     1.007825032070
           H          1.690640033805    -3.119221375664    -2.587702033201     1.007825032070
           H          4.050640033805     0.088778624336    -1.542702033201     1.007825032070

  Nuclear repulsion =  800.910484594098875
  Reference energy  = -649.605665395857500

  ==> Basis Set <==

  Basis Set: AUG-CC-PVTZ
    Blend: AUG-CC-PVTZ
    Number of shells: 259
    Number of basis function: 805
    Number of Cartesian functions: 945
    Spherical Harmonics?: true
    Max angular momentum: 3

  ==> CGRSolver (by Rob Parrish) <==

   Number of roots    =         1
   Preconditioning    =    JACOBI
   Convergence cutoff =     1E-06
   Maximum iterations =       100

  ==> CPHFRHamiltonian (by Rob Parrish) <== 

  ==> DFJK: Density-Fitted J/K Matrices <==

    J tasked:                  Yes
    K tasked:                  Yes
    wK tasked:                  No
    OpenMP threads:              8
    Integrals threads:           8
    Memory (MB):              3576
    Algorithm:                Disk
    Integral Cache:           NONE
    Schwarz Cutoff:          1E-12
    Fitting Condition:       1E-12

   => Auxiliary Basis Set <=

  Basis Set: (AUG-CC-PVTZ AUX)
    Blend: AUG-CC-PVTZ-JKFIT
    Number of shells: 518
    Number of basis function: 1778
    Number of Cartesian functions: 2219
    Spherical Harmonics?: true
    Max angular momentum: 4

  ==> CPHF Iterations <==

  => Iterations <=

             Iter  Converged  Remaining    Residual
  CGR           1          0          1   1.267E-01
  CGR           2          0          1   4.541E-02
  CGR           3          0          1   2.717E-02
  CGR           4          0          1   1.024E-02
  CGR           5          0          1   4.406E-03
  CGR           6          0          1   2.162E-03
  CGR           7          0          1   8.551E-04
  CGR           8          0          1   3.277E-04
  CGR           9          0          1   1.079E-04
  CGR          10          0          1   3.465E-05
  CGR          11          0          1   1.488E-05
  CGR          12          0          1   6.211E-06
  CGR          13          0          1   2.648E-06
  CGR          14          0          1   1.085E-06
  CGR          15          1          0   3.165E-07

    CGRSolver converged.

  ==> DFCorrGrad: Density-Fitted Correlated Gradients <==

    OpenMP threads:              8
    Integrals threads:           8
    Memory (MB):              3576
    Schwarz Cutoff:          0E+00
    Fitting Condition:       1E-12

   => Auxiliary Basis Set <=

  Basis Set: (AUG-CC-PVTZ AUX)
    Blend: AUG-CC-PVTZ-JKFIT
    Number of shells: 518
    Number of basis function: 1778
    Number of Cartesian functions: 2219
    Spherical Harmonics?: true
    Max angular momentum: 4

	-----------------------------------------------------------
	 ==================> DF-MP2 Energies <==================== 
	-----------------------------------------------------------
	 Reference Energy          =    -649.6056653958574998 [Eh]
	 Singles Energy            =      -0.0000000000000005 [Eh]
	 Same-Spin Energy          =      -0.6854544414294489 [Eh]
	 Opposite-Spin Energy      =      -2.0254128869586232 [Eh]
	 Correlation Energy        =      -2.7108673283880727 [Eh]
	 Total Energy              =    -652.3165327242455760 [Eh]
	-----------------------------------------------------------
	 ================> DF-SCS-MP2 Energies <================== 
	-----------------------------------------------------------
	 SCS Same-Spin Scale       =       0.3333333333333333 [-]
	 SCS Opposite-Spin Scale   =       1.2000000000000000 [-]
	 SCS Same-Spin Energy      =      -0.2284848138098163 [Eh]
	 SCS Opposite-Spin Energy  =      -2.4304954643503476 [Eh]
	 SCS Correlation Energy    =      -2.6589802781601644 [Eh]
	 SCS Total Energy          =    -652.2646456740176291 [Eh]
	-----------------------------------------------------------


  -Total Gradient:
     Atom            X                  Y                   Z
    ------   -----------------  -----------------  -----------------
       1        0.017004688075    -0.005493873518    -0.010310575116
       2       -0.020937411733     0.010363842267     0.037470113196
       3       -0.010396496720     0.000226077300     0.006148083722
       4       -0.006403875392     0.009810941682     0.005279363572
       5       -0.041596321897     0.023054823835    -0.001249986442
       6       -0.012063486575    -0.002724916396     0.004061696248
       7       -0.003764785666     0.010090831613     0.006259919857
       8       -0.009277159244     0.005174318613    -0.001358488996
       9        0.005077394705    -0.002851406650    -0.005267067991
      10        0.046108407792    -0.024614935634    -0.027862416561
      11        0.038619235022    -0.024891064368     0.006375196154
      12        0.010010209972    -0.005046777875    -0.006321962932
      13        0.000078220169     0.000025748829    -0.001190194277
      14       -0.013051421160     0.007458653431    -0.003389143700
      15       -0.003845630322     0.002078853828    -0.004353514238
      16       -0.002184817293     0.000980366877    -0.008753823156
      17       -0.002979291607    -0.004763447742    -0.002376387943
      18        0.003775606045     0.003903471666     0.001039589572
      19        0.003888102262    -0.001964878663     0.007073959874
      20        0.000039083803    -0.001382458576    -0.001185376056
      21        0.001899749742     0.000565829488    -0.000088984782


*** tstop() called on gpu-1-8.local at Mon Nov 13 18:24:37 2017
Module time:
	user time   =    4970.49 seconds =      82.84 minutes
	system time =     107.58 seconds =       1.79 minutes
	total time  =       2338 seconds =      38.97 minutes
Total time:
	user time   =    4970.50 seconds =      82.84 minutes
	system time =     107.58 seconds =       1.79 minutes
	total time  =       2338 seconds =      38.97 minutes

			-----------------------------------------
			 OPTKING 2.0: for geometry optimizations 
			  - R.A. King,  Bethel University        
			-----------------------------------------
	At level 1: Red. Int., RFO, no backsteps, dynamic trust

	Internal coordinates to be generated automatically.
	Detected frag 1 with atoms:  1 2 3 4 5 6 7 8 9 10 11 12 13 14 15 16 17 18 19 20
	 21
	---Fragment 1 Bond Connectivity---
	 1 : 2 8 15
	 2 : 1 10 16
	 3 : 6 9 17
	 4 : 7 9 18
	 5 : 10 11 19
	 6 : 3 12 20
	 7 : 4 12 21
	 8 : 1 9 11
	 9 : 3 4 8
	 10 : 2 5 13
	 11 : 5 8 14
	 12 : 6 7
	 13 : 10
	 14 : 11
	 15 : 1
	 16 : 2
	 17 : 3
	 18 : 4
	 19 : 5
	 20 : 6
	 21 : 7

	Assuming in current code that numbering for constraints corresponds to unified fragment.
	Fixed dihedral atom list: 
	     1     8     9     3
	---Fragment 1 Geometry and Gradient---
	 C          -2.5423618863        1.4490016045       -1.4753130341
	 C          -4.5794866575        2.5318146787       -0.2035273467
	 C           1.2427595579       -3.1071281018       -2.6601713195
	 C           3.8468021690        0.4361083973       -1.5093281045
	 C          -2.7029886076        1.3677433808        3.7932434243
	 C           3.3195685780       -4.0992343216       -3.9073905672
	 C           5.8064481688       -0.7147348176       -2.8075699578
	 C          -0.5846056126        0.3246145555       -0.1147102185
	 C           1.5262184778       -0.7959930413       -1.4431876899
	 C          -4.6607448812        2.4921304299        2.4307508825
	 C          -0.6658638363        0.2849303067        2.5195680108
	 N           5.6023577465       -2.9578397373       -4.0132152306
	 O          -6.5334634789        3.4880161019        3.6004913588
	 F           1.2011855830       -0.7884341368        3.8556043867
	 H          -2.5064570897        1.4924653056       -3.5313350667
	 H          -6.0837086593        3.3935297953       -1.3109068606
	 H          -0.5392521854       -4.1238007613       -2.6526124149
	 H           4.1378199935        2.2407968542       -0.5814725733
	 H          -2.7199961427        1.3110515968        5.8492654569
	 H           3.1948466532       -5.8944741478       -4.8900481563
	 H           7.6546003268        0.1677672865       -2.9152843474
	             0.0170046881       -0.0054938735       -0.0103105751
	            -0.0209374117        0.0103638423        0.0374701132
	            -0.0103964967        0.0002260773        0.0061480837
	            -0.0064038754        0.0098109417        0.0052793636
	            -0.0415963219        0.0230548238       -0.0012499864
	            -0.0120634866       -0.0027249164        0.0040616962
	            -0.0037647857        0.0100908316        0.0062599199
	            -0.0092771592        0.0051743186       -0.0013584890
	             0.0050773947       -0.0028514066       -0.0052670680
	             0.0461084078       -0.0246149356       -0.0278624166
	             0.0386192350       -0.0248910644        0.0063751962
	             0.0100102100       -0.0050467779       -0.0063219629
	             0.0000782202        0.0000257488       -0.0011901943
	            -0.0130514212        0.0074586534       -0.0033891437
	            -0.0038456303        0.0020788538       -0.0043535142
	            -0.0021848173        0.0009803669       -0.0087538232
	            -0.0029792916       -0.0047634477       -0.0023763879
	             0.0037756060        0.0039034717        0.0010395896
	             0.0038881023       -0.0019648787        0.0070739599
	             0.0000390838       -0.0013824586       -0.0011853761
	             0.0018997497        0.0005658295       -0.0000889848

	Previous optimization step data not found.  Starting new optimization.

	---Fragment 1 Intrafragment Coordinates---
	 - Coordinate -           - BOHR/RAD -       - ANG/DEG -
	 R(1,2)           =         2.634350	       1.394038
	 R(1,8)           =         2.635962	       1.394891
	 R(1,15)          =         2.056795	       1.088409
	 R(2,10)          =         2.635830	       1.394821
	 R(2,16)          =         2.057067	       1.088553
	 R(3,6)           =         2.617817	       1.385289
	 R(3,9)           =         2.627307	       1.390311
	 R(3,17)          =         2.051645	       1.085684
	 R(4,7)           =         2.617267	       1.384998
	 R(4,9)           =         2.628223	       1.390796
	 R(4,18)          =         2.050002	       1.084814
	 R(5,10)          =         2.636938	       1.395407
	 R(5,11)          =         2.635263	       1.394521
	 R(5,19)          =         2.056874	       1.088451
	 R(6,12)          =         2.554429	       1.351746
	 R(6,20)          =         2.050380	       1.085014
	 R(7,12)          =         2.554751	       1.351916
	 R(7,21)          =         2.050873	       1.085275
	 R(8,9)           =         2.734263	       1.446909
	 R(8,11)          =         2.635830	       1.394821
	 R(10,13)         =         2.422221	       1.281784
	 R(11,14)         =         2.534359	       1.341125
	 B(1,2,10)        =         2.094553	     120.009056
	 B(1,2,16)        =         2.068903	     118.539404
	 B(1,8,9)         =         2.091392	     119.827938
	 B(1,8,11)        =         2.093692	     119.959722
	 B(2,1,8)         =         2.094940	     120.031219
	 B(2,1,15)        =         2.079908	     119.169966
	 B(2,10,5)        =         2.094306	     119.994870
	 B(2,10,13)       =         2.094719	     120.018581
	 B(3,6,12)        =         2.164421	     124.012203
	 B(3,6,20)        =         2.108192	     120.790486
	 B(3,9,4)         =         2.089765	     119.734727
	 B(3,9,8)         =         2.097034	     120.151198
	 B(4,7,12)        =         2.165600	     124.079755
	 B(4,7,21)        =         2.107807	     120.768431
	 B(4,9,8)         =         2.096386	     120.114055
	 B(5,10,13)       =         2.094160	     119.986548
	 B(5,11,8)        =         2.095181	     120.045019
	 B(5,11,14)       =         2.081414	     119.256220
	 B(6,3,9)         =         2.058354	     117.935020
	 B(6,3,17)        =         2.097895	     120.200536
	 B(6,12,7)        =         2.031036	     116.369796
	 B(7,4,9)         =         2.057193	     117.868487
	 B(7,4,18)        =         2.100540	     120.352075
	 B(8,1,15)        =         2.108336	     120.798746
	 B(8,11,14)       =         2.106591	     120.698759
	 B(9,3,17)        =         2.126935	     121.864375
	 B(9,4,18)        =         2.125452	     121.779436
	 B(9,8,11)        =         2.098101	     120.212327
	 B(10,2,16)       =         2.119728	     121.451467
	 B(10,5,11)       =         2.093699	     119.960108
	 B(10,5,19)       =         2.120101	     121.472852
	 B(11,5,19)       =         2.069385	     118.567038
	 B(12,6,20)       =         2.010569	     115.197115
	 B(12,7,21)       =         2.009778	     115.151814
	 D(1,2,10,5)      =        -0.000325	      -0.018609
	 D(1,2,10,13)     =         3.141392	     179.988520
	 D(1,8,9,3)       =        -1.309438	     -75.025292
	 D(1,8,9,4)       =         1.831265	     104.923735
	 D(1,8,11,5)      =         0.000325	       0.018608
	 D(1,8,11,14)     =        -3.141528	    -179.996269
	 D(2,1,8,9)       =        -3.141211	    -179.978157
	 D(2,1,8,11)      =        -0.000348	      -0.019945
	 D(2,10,5,11)     =         0.000301	       0.017261
	 D(2,10,5,19)     =        -3.141543	    -179.997173
	 D(3,6,12,7)      =         0.000548	       0.031424
	 D(3,9,4,7)       =        -0.000024	      -0.001348
	 D(3,9,4,18)      =        -3.141346	    -179.985864
	 D(3,9,8,11)      =         1.832885	     105.016602
	 D(4,7,12,6)      =        -0.000698	      -0.040002
	 D(4,9,3,6)       =        -0.000110	      -0.006312
	 D(4,9,3,17)      =        -3.140035	    -179.910766
	 D(4,9,8,11)      =        -1.309597	     -75.034371
	 D(5,10,2,16)     =         3.139529	     179.881752
	 D(5,11,8,9)      =         3.141185	     179.976658
	 D(6,3,9,8)       =         3.140596	     179.942909
	 D(6,12,7,21)     =         3.140892	     179.959860
	 D(7,4,9,8)       =        -3.140730	    -179.950588
	 D(7,12,6,20)     =         3.139346	     179.871280
	 D(8,1,2,10)      =         0.000348	       0.019955
	 D(8,1,2,16)      =        -3.139556	    -179.883288
	 D(8,9,3,17)      =         0.000671	       0.038456
	 D(8,9,4,18)      =         0.001133	       0.064896
	 D(8,11,5,10)     =        -0.000301	      -0.017270
	 D(8,11,5,19)     =         3.141536	     179.996748
	 D(9,3,6,12)      =        -0.000163	      -0.009325
	 D(9,3,6,20)      =        -3.138811	    -179.840643
	 D(9,4,7,12)      =         0.000451	       0.025864
	 D(9,4,7,21)      =        -3.141139	    -179.973990
	 D(9,8,1,15)      =         0.002066	       0.118384
	 D(9,8,11,14)     =        -0.000667	      -0.038219
	 D(10,2,1,15)     =         3.140283	     179.924984
	 D(10,5,11,14)    =         3.141547	     179.997392
	 D(11,5,10,13)    =        -3.141416	    -179.989865
	 D(11,8,1,15)     =        -3.140256	    -179.923403
	 D(12,6,3,17)     =         3.139791	     179.896784
	 D(12,7,4,18)     =        -3.141407	    -179.989389
	 D(13,10,2,16)    =        -0.001939	      -0.111119
	 D(13,10,5,19)    =        -0.000075	      -0.004300
	 D(14,11,5,19)    =         0.000199	       0.011410
	 D(15,1,2,16)     =         0.000379	       0.021741
	 D(17,3,6,20)     =         0.001143	       0.065466
	 D(18,4,7,21)     =         0.000188	       0.010757
	 R(4,14)          =         6.105841	       3.231072

	Current energy   :      -652.3165327242

	Using model Hessian from Lindh (1995).
	 - Coordinate -           - BOHR/RAD -       - ANG/DEG -
	 R(1,2)           =         2.634350	       1.394038
	 R(1,8)           =         2.635962	       1.394891
	 R(1,15)          =         2.056795	       1.088409
	 R(2,10)          =         2.635830	       1.394821
	 R(2,16)          =         2.057067	       1.088553
	 R(3,6)           =         2.617817	       1.385289
	 R(3,9)           =         2.627307	       1.390311
	 R(3,17)          =         2.051645	       1.085684
	 R(4,7)           =         2.617267	       1.384998
	 R(4,9)           =         2.628223	       1.390796
	 R(4,18)          =         2.050002	       1.084814
	 R(5,10)          =         2.636938	       1.395407
	 R(5,11)          =         2.635263	       1.394521
	 R(5,19)          =         2.056874	       1.088451
	 R(6,12)          =         2.554429	       1.351746
	 R(6,20)          =         2.050380	       1.085014
	 R(7,12)          =         2.554751	       1.351916
	 R(7,21)          =         2.050873	       1.085275
	 R(8,9)           =         2.734263	       1.446909
	 R(8,11)          =         2.635830	       1.394821
	 R(10,13)         =         2.422221	       1.281784
	 R(11,14)         =         2.534359	       1.341125
	 R(12,20)         =         3.897277	       2.062350
	 R(12,21)         =         3.896995	       2.062201
	 B(1,2,10)        =         2.094553	     120.009056
	 B(1,2,16)        =         2.068903	     118.539404
	 B(1,8,9)         =         2.091392	     119.827938
	 B(1,8,11)        =         2.093692	     119.959722
	 B(2,1,8)         =         2.094940	     120.031219
	 B(2,1,15)        =         2.079908	     119.169966
	 B(2,10,5)        =         2.094306	     119.994870
	 B(2,10,13)       =         2.094719	     120.018581
	 B(3,6,12)        =         2.164421	     124.012203
	 B(3,6,20)        =         2.108192	     120.790486
	 B(3,9,4)         =         2.089765	     119.734727
	 B(3,9,8)         =         2.097034	     120.151198
	 B(4,7,12)        =         2.165600	     124.079755
	 B(4,7,21)        =         2.107807	     120.768431
	 B(4,9,8)         =         2.096386	     120.114055
	 B(5,10,13)       =         2.094160	     119.986548
	 B(5,11,8)        =         2.095181	     120.045019
	 B(5,11,14)       =         2.081414	     119.256220
	 B(6,3,9)         =         2.058354	     117.935020
	 B(6,3,17)        =         2.097895	     120.200536
	 B(6,12,7)        =         2.031036	     116.369796
	 B(6,12,20)       =         0.496153	      28.427477
	 B(6,12,21)       =         2.527560	     144.818495
	 B(6,20,12)       =         0.634871	      36.375408
	 B(7,4,9)         =         2.057193	     117.868487
	 B(7,4,18)        =         2.100540	     120.352075
	 B(7,12,20)       =         2.527187	     144.797167
	 B(7,12,21)       =         0.496524	      28.448709
	 B(7,21,12)       =         0.635291	      36.399477
	 B(8,1,15)        =         2.108336	     120.798746
	 B(8,11,14)       =         2.106591	     120.698759
	 B(9,3,17)        =         2.126935	     121.864375
	 B(9,4,18)        =         2.125452	     121.779436
	 B(9,8,11)        =         2.098101	     120.212327
	 B(10,2,16)       =         2.119728	     121.451467
	 B(10,5,11)       =         2.093699	     119.960108
	 B(10,5,19)       =         2.120101	     121.472852
	 B(11,5,19)       =         2.069385	     118.567038
	 B(12,6,20)       =         2.010569	     115.197115
	 B(12,7,21)       =         2.009778	     115.151814
	 B(20,12,21)      =         3.023709	     173.245787
	 D(1,2,10,5)      =        -0.000325	      -0.018609
	 D(1,2,10,13)     =         3.141392	     179.988520
	 D(1,8,9,3)       =        -1.309438	     -75.025292
	 D(1,8,9,4)       =         1.831265	     104.923735
	 D(1,8,11,5)      =         0.000325	       0.018608
	 D(1,8,11,14)     =        -3.141528	    -179.996269
	 D(2,1,8,9)       =        -3.141211	    -179.978157
	 D(2,1,8,11)      =        -0.000348	      -0.019945
	 D(2,10,5,11)     =         0.000301	       0.017261
	 D(2,10,5,19)     =        -3.141543	    -179.997173
	 D(3,6,12,7)      =         0.000548	       0.031424
	 D(3,6,12,20)     =        -3.138798	    -179.839857
	 D(3,6,12,21)     =         0.001128	       0.064612
	 D(3,6,20,12)     =         3.138896	     179.845473
	 D(3,9,4,7)       =        -0.000024	      -0.001348
	 D(3,9,4,18)      =        -3.141346	    -179.985864
	 D(3,9,8,11)      =         1.832885	     105.016602
	 D(4,7,12,6)      =        -0.000698	      -0.040002
	 D(4,7,12,20)     =         0.001157	       0.066294
	 D(4,7,12,21)     =         3.141593	     180.000000
	 D(4,7,21,12)     =         3.141593	     180.000000
	 D(4,9,3,6)       =        -0.000110	      -0.006312
	 D(4,9,3,17)      =        -3.140035	    -179.910766
	 D(4,9,8,11)      =        -1.309597	     -75.034371
	 D(5,10,2,16)     =         3.139529	     179.881752
	 D(5,11,8,9)      =         3.141185	     179.976658
	 D(6,3,9,8)       =         3.140596	     179.942909
	 D(6,12,7,21)     =         3.140892	     179.959860
	 D(6,12,21,7)     =        -0.001089	      -0.062419
	 D(6,20,12,7)     =        -0.003492	      -0.200054
	 D(6,20,12,21)    =        -0.008168	      -0.468011
	 D(7,4,9,8)       =        -3.140730	    -179.950588
	 D(7,12,6,20)     =         3.139346	     179.871280
	 D(7,21,12,20)    =         0.005659	       0.324263
	 D(8,1,2,10)      =         0.000348	       0.019955
	 D(8,1,2,16)      =        -3.139556	    -179.883288
	 D(8,9,3,17)      =         0.000671	       0.038456
	 D(8,9,4,18)      =         0.001133	       0.064896
	 D(8,11,5,10)     =        -0.000301	      -0.017270
	 D(8,11,5,19)     =         3.141536	     179.996748
	 D(9,3,6,12)      =        -0.000163	      -0.009325
	 D(9,3,6,20)      =        -3.138811	    -179.840643
	 D(9,4,7,12)      =         0.000451	       0.025864
	 D(9,4,7,21)      =        -3.141139	    -179.973990
	 D(9,8,1,15)      =         0.002066	       0.118384
	 D(9,8,11,14)     =        -0.000667	      -0.038219
	 D(10,2,1,15)     =         3.140283	     179.924984
	 D(10,5,11,14)    =         3.141547	     179.997392
	 D(11,5,10,13)    =        -3.141416	    -179.989865
	 D(11,8,1,15)     =        -3.140256	    -179.923403
	 D(12,6,3,17)     =         3.139791	     179.896784
	 D(12,7,4,18)     =        -3.141407	    -179.989389
	 D(13,10,2,16)    =        -0.001939	      -0.111119
	 D(13,10,5,19)    =        -0.000075	      -0.004300
	 D(14,11,5,19)    =         0.000199	       0.011410
	 D(15,1,2,16)     =         0.000379	       0.021741
	 D(17,3,6,20)     =         0.001143	       0.065466
	 D(18,4,7,21)     =         0.000188	       0.010757
	 D(20,6,12,21)    =         3.139925	     179.904468
	 D(20,12,7,21)    =        -3.140438	    -179.933845

	Adding user-defined constraint: Fragment 1; Coordinate 59:
		Value =    -1.309438; Fixed value    =    -1.308997
		Force =     0.000221; Force constant =     0.500000
	Removing off-diagonal coupling between coordinate 59 and others.
	Taking RFO optimization step.
	Going to follow RFO solution 1.
	Using RFO vector 1.

	Determining step-restricting scale parameter for RS-RFO.
	Maximum step size allowed    0.10000

	 Iter      |step|        alpha        rfo_root  
	------------------------------------------------
	    0     0.21422       1.00000           1
	    1     0.17224       3.84771           1
	    2     0.13507      14.40664           1
	    3     0.11093      30.74323           1
	    4     0.10158      41.17802           1
	    5     0.10004      43.22214           1
	    6     0.10000      43.27804           1
	------------------------------------------------
	Norm of target step-size    0.10000
	Projected energy change by RFO approximation:        -0.0070670331

	Back-transformation to cartesian coordinates...
	The INTCO_EXCEPTion handler:
	TORS::compute_val: unable to compute torsion value
	Dynamic level is 1.
	exc.g_really_quit() is 0.
	Raising dynamic level to 2. ~

    Structure for next step:
    Molecular point group: c1
    Full point group: C1

    Geometry (in Angstrom), charge = -1, multiplicity = 1:

    C           -1.345359966195     0.766778624336    -0.780702033201
    C           -2.423359966195     1.339778624336    -0.107702033201
    C            0.657640033805    -1.644221375664    -1.407702033201
    C            2.035640033805     0.230778624336    -0.798702033201
    C           -1.430359966195     0.723778624336     2.007297966799
    C            1.756640033805    -2.169221375664    -2.067702033201
    C            3.072640033805    -0.378221375664    -1.485702033201
    C           -0.309359966195     0.171778624336    -0.060702033201
    C            0.807640033805    -0.421221375664    -0.763702033201
    C           -2.466359966195     1.318778624336     1.286297966799
    C           -0.352359966195     0.150778624336     1.333297966799
    N            2.964640033805    -1.565221375664    -2.123702033201
    O           -3.457359966195     1.845778624336     1.905297966799
    F            0.635640033805    -0.417221375664     2.040297966799
    H           -1.326359966195     0.789778624336    -1.868702033201
    H           -3.219359966195     1.795778624336    -0.693702033201
    H           -0.285359966195    -2.182221375664    -1.403702033201
    H            2.189640033805     1.185778624336    -0.307702033201
    H           -1.439359966195     0.693778624336     3.095297966799
    H            1.690640033805    -3.119221375664    -2.587702033201
    H            4.050640033805     0.088778624336    -1.542702033201

gradient() will perform analytic gradient computation.

*** tstart() called on gpu-1-8.local
*** at Mon Nov 13 18:24:39 2017

    SCF Algorithm Type (re)set to DF.

*** tstart() called on gpu-1-8.local
*** at Mon Nov 13 18:24:39 2017

   => Loading Basis Set <=

    Name: AUG-CC-PVTZ
    Role: ORBITAL
    Keyword: BASIS
    atoms 1-11  entry C          line   221 file /cbio/jclab/home/chayas/anaconda/envs/py35/share/psi4/basis/aug-cc-pvtz.gbs 
    atoms 12    entry N          line   267 file /cbio/jclab/home/chayas/anaconda/envs/py35/share/psi4/basis/aug-cc-pvtz.gbs 
    atoms 13    entry O          line   313 file /cbio/jclab/home/chayas/anaconda/envs/py35/share/psi4/basis/aug-cc-pvtz.gbs 
    atoms 14    entry F          line   359 file /cbio/jclab/home/chayas/anaconda/envs/py35/share/psi4/basis/aug-cc-pvtz.gbs 
    atoms 15-21 entry H          line    34 file /cbio/jclab/home/chayas/anaconda/envs/py35/share/psi4/basis/aug-cc-pvtz.gbs 


         ---------------------------------------------------------
                                   SCF
            by Justin Turney, Rob Parrish, and Andy Simmonett
                              RHF Reference
                        8 Threads,   4768 MiB Core
         ---------------------------------------------------------

  ==> Geometry <==

    Molecular point group: c1
    Full point group: C1

    Geometry (in Angstrom), charge = -1, multiplicity = 1:

       Center              X                  Y                   Z               Mass       
    ------------   -----------------  -----------------  -----------------  -----------------
           C         -1.345359966195     0.766778624336    -0.780702033201    12.000000000000
           C         -2.423359966195     1.339778624336    -0.107702033201    12.000000000000
           C          0.657640033805    -1.644221375664    -1.407702033201    12.000000000000
           C          2.035640033805     0.230778624336    -0.798702033201    12.000000000000
           C         -1.430359966195     0.723778624336     2.007297966799    12.000000000000
           C          1.756640033805    -2.169221375664    -2.067702033201    12.000000000000
           C          3.072640033805    -0.378221375664    -1.485702033201    12.000000000000
           C         -0.309359966195     0.171778624336    -0.060702033201    12.000000000000
           C          0.807640033805    -0.421221375664    -0.763702033201    12.000000000000
           C         -2.466359966195     1.318778624336     1.286297966799    12.000000000000
           C         -0.352359966195     0.150778624336     1.333297966799    12.000000000000
           N          2.964640033805    -1.565221375664    -2.123702033201    14.003074004780
           O         -3.457359966195     1.845778624336     1.905297966799    15.994914619560
           F          0.635640033805    -0.417221375664     2.040297966799    18.998403224000
           H         -1.326359966195     0.789778624336    -1.868702033201     1.007825032070
           H         -3.219359966195     1.795778624336    -0.693702033201     1.007825032070
           H         -0.285359966195    -2.182221375664    -1.403702033201     1.007825032070
           H          2.189640033805     1.185778624336    -0.307702033201     1.007825032070
           H         -1.439359966195     0.693778624336     3.095297966799     1.007825032070
           H          1.690640033805    -3.119221375664    -2.587702033201     1.007825032070
           H          4.050640033805     0.088778624336    -1.542702033201     1.007825032070

  Running in c1 symmetry.

  Rotational constants: A =      0.06333  B =      0.01322  C =      0.01211 [cm^-1]
  Rotational constants: A =   1898.45312  B =    396.27651  C =    363.06568 [MHz]
  Nuclear repulsion =  800.910484594098875

  Charge       = -1
  Multiplicity = 1
  Electrons    = 98
  Nalpha       = 49
  Nbeta        = 49

  ==> Algorithm <==

  SCF Algorithm Type is DF.
  DIIS enabled.
  MOM disabled.
  Fractional occupation disabled.
  Guess Type is READ.
  Energy threshold   = 1.00e-10
  Density threshold  = 1.00e-10
  Integral threshold = 0.00e+00

  ==> Primary Basis <==

  Basis Set: AUG-CC-PVTZ
    Blend: AUG-CC-PVTZ
    Number of shells: 259
    Number of basis function: 805
    Number of Cartesian functions: 945
    Spherical Harmonics?: true
    Max angular momentum: 3

   => Loading Basis Set <=

    Name: (AUG-CC-PVTZ AUX)
    Role: JKFIT
    Keyword: DF_BASIS_SCF
    atoms 1-11  entry C          line   161 file /cbio/jclab/home/chayas/anaconda/envs/py35/share/psi4/basis/aug-cc-pvtz-jkfit.gbs 
    atoms 12    entry N          line   223 file /cbio/jclab/home/chayas/anaconda/envs/py35/share/psi4/basis/aug-cc-pvtz-jkfit.gbs 
    atoms 13    entry O          line   285 file /cbio/jclab/home/chayas/anaconda/envs/py35/share/psi4/basis/aug-cc-pvtz-jkfit.gbs 
    atoms 14    entry F          line   347 file /cbio/jclab/home/chayas/anaconda/envs/py35/share/psi4/basis/aug-cc-pvtz-jkfit.gbs 
    atoms 15-21 entry H          line    69 file /cbio/jclab/home/chayas/anaconda/envs/py35/share/psi4/basis/aug-cc-pvtz-jkfit.gbs 

  Reading orbitals from file 180, no projection.

  ==> Pre-Iterations <==

   -------------------------------------------------------
    Irrep   Nso     Nmo     Nalpha   Nbeta   Ndocc  Nsocc
   -------------------------------------------------------
     A        805     805       0       0       0       0
   -------------------------------------------------------
    Total     805     805      49      49      49       0
   -------------------------------------------------------

  ==> Integral Setup <==

  ==> DFJK: Density-Fitted J/K Matrices <==

    J tasked:                  Yes
    K tasked:                  Yes
    wK tasked:                  No
    OpenMP threads:              8
    Integrals threads:           8
    Memory (MB):              3576
    Algorithm:                Disk
    Integral Cache:           NONE
    Schwarz Cutoff:          1E-12
    Fitting Condition:       1E-12

   => Auxiliary Basis Set <=

  Basis Set: (AUG-CC-PVTZ AUX)
    Blend: AUG-CC-PVTZ-JKFIT
    Number of shells: 518
    Number of basis function: 1778
    Number of Cartesian functions: 2219
    Spherical Harmonics?: true
    Max angular momentum: 4

  Minimum eigenvalue in the overlap matrix is 8.4705637071E-07.
  Using Symmetric Orthogonalization.

  SCF Guess: Orbitals guess was supplied from a previous computation.

  ==> Iterations <==

                           Total Energy        Delta E     RMS |[F,P]|

   @DF-RHF iter   0:  -649.60566537841373   -6.49606e+02   1.52251e-09 
   @DF-RHF iter   1:  -649.60566537843806   -2.43290e-11   1.22431e-10 
   @DF-RHF iter   2:  -649.60566537841896    1.90994e-11   2.79036e-11 DIIS

  ==> Post-Iterations <==

    Orbital Energies (a.u.)
    -----------------------

    Doubly Occupied:                                                      

       1A    -26.183989     2A    -20.293922     3A    -15.464990  
       4A    -11.186565     5A    -11.174862     6A    -11.174362  
       7A    -11.150010     8A    -11.130313     9A    -11.129672  
      10A    -11.116839    11A    -11.105516    12A    -11.080059  
      13A    -11.060066    14A    -11.059479    15A     -1.503149  
      16A     -1.149232    17A     -1.126854    18A     -1.024387  
      19A     -0.964759    20A     -0.931904    21A     -0.869314  
      22A     -0.846812    23A     -0.752231    24A     -0.741304  
      25A     -0.700996    26A     -0.673842    27A     -0.609732  
      28A     -0.577906    29A     -0.572418    30A     -0.559294  
      31A     -0.553926    32A     -0.546730    33A     -0.501540  
      34A     -0.496844    35A     -0.468661    36A     -0.458072  
      37A     -0.435175    38A     -0.419732    39A     -0.411828  
      40A     -0.379246    41A     -0.373683    42A     -0.352956  
      43A     -0.317871    44A     -0.288548    45A     -0.262648  
      46A     -0.248621    47A     -0.214016    48A     -0.196097  
      49A     -0.114571  

    Virtual:                                                              

      50A      0.096879    51A      0.099411    52A      0.113984  
      53A      0.119624    54A      0.124053    55A      0.127454  
      56A      0.130318    57A      0.152013    58A      0.165449  
      59A      0.173704    60A      0.181167    61A      0.184089  
      62A      0.184862    63A      0.186169    64A      0.188387  
      65A      0.192610    66A      0.193745    67A      0.201089  
      68A      0.205986    69A      0.210265    70A      0.214957  
      71A      0.216056    72A      0.220626    73A      0.224506  
      74A      0.226636    75A      0.228695    76A      0.232249  
      77A      0.232950    78A      0.240484    79A      0.246325  
      80A      0.249341    81A      0.255419    82A      0.258903  
      83A      0.265537    84A      0.267723    85A      0.273183  
      86A      0.284528    87A      0.289310    88A      0.292915  
      89A      0.297056    90A      0.302217    91A      0.306522  
      92A      0.316139    93A      0.319660    94A      0.320025  
      95A      0.329910    96A      0.332546    97A      0.334648  
      98A      0.337302    99A      0.341507   100A      0.345261  
     101A      0.350555   102A      0.354549   103A      0.359654  
     104A      0.363987   105A      0.365900   106A      0.371171  
     107A      0.379472   108A      0.384239   109A      0.390084  
     110A      0.394033   111A      0.397528   112A      0.402179  
     113A      0.405765   114A      0.409580   115A      0.410742  
     116A      0.413618   117A      0.416115   118A      0.425011  
     119A      0.425963   120A      0.437859   121A      0.445803  
     122A      0.447373   123A      0.454027   124A      0.457764  
     125A      0.459783   126A      0.466920   127A      0.468191  
     128A      0.480967   129A      0.482472   130A      0.487924  
     131A      0.497062   132A      0.501923   133A      0.504975  
     134A      0.508081   135A      0.511025   136A      0.513856  
     137A      0.522295   138A      0.526013   139A      0.535949  
     140A      0.540292   141A      0.544561   142A      0.547599  
     143A      0.554060   144A      0.558182   145A      0.559909  
     146A      0.568977   147A      0.572237   148A      0.575010  
     149A      0.576518   150A      0.579964   151A      0.586200  
     152A      0.587598   153A      0.589866   154A      0.594370  
     155A      0.597104   156A      0.599078   157A      0.604467  
     158A      0.606914   159A      0.614952   160A      0.618661  
     161A      0.622391   162A      0.626231   163A      0.627634  
     164A      0.630760   165A      0.636537   166A      0.640330  
     167A      0.646362   168A      0.649467   169A      0.656676  
     170A      0.659615   171A      0.667814   172A      0.673696  
     173A      0.677365   174A      0.680197   175A      0.686083  
     176A      0.690702   177A      0.692201   178A      0.700712  
     179A      0.711466   180A      0.713395   181A      0.716002  
     182A      0.720549   183A      0.724987   184A      0.736702  
     185A      0.739273   186A      0.742472   187A      0.750581  
     188A      0.753607   189A      0.764377   190A      0.768644  
     191A      0.771474   192A      0.782123   193A      0.789102  
     194A      0.794259   195A      0.798153   196A      0.803902  
     197A      0.814685   198A      0.820593   199A      0.826283  
     200A      0.828912   201A      0.838007   202A      0.842734  
     203A      0.847192   204A      0.852377   205A      0.856566  
     206A      0.857134   207A      0.862407   208A      0.868103  
     209A      0.873427   210A      0.878917   211A      0.881122  
     212A      0.895211   213A      0.900521   214A      0.905886  
     215A      0.908076   216A      0.913445   217A      0.922758  
     218A      0.933792   219A      0.938822   220A      0.953805  
     221A      0.958242   222A      0.962909   223A      0.969859  
     224A      0.975793   225A      0.986389   226A      0.990513  
     227A      0.998279   228A      1.004761   229A      1.010858  
     230A      1.011809   231A      1.014785   232A      1.019462  
     233A      1.022000   234A      1.030173   235A      1.032765  
     236A      1.035159   237A      1.036586   238A      1.045673  
     239A      1.046216   240A      1.051553   241A      1.056445  
     242A      1.063722   243A      1.066402   244A      1.070857  
     245A      1.075667   246A      1.079631   247A      1.087936  
     248A      1.093176   249A      1.095441   250A      1.098554  
     251A      1.101424   252A      1.104538   253A      1.109161  
     254A      1.114948   255A      1.124754   256A      1.130829  
     257A      1.136532   258A      1.140071   259A      1.144548  
     260A      1.149368   261A      1.153016   262A      1.156259  
     263A      1.158199   264A      1.164505   265A      1.165760  
     266A      1.175196   267A      1.177588   268A      1.187026  
     269A      1.191344   270A      1.198225   271A      1.198641  
     272A      1.203806   273A      1.210391   274A      1.214275  
     275A      1.217339   276A      1.220032   277A      1.234659  
     278A      1.235623   279A      1.243965   280A      1.249064  
     281A      1.254938   282A      1.262783   283A      1.268158  
     284A      1.270424   285A      1.274415   286A      1.279517  
     287A      1.285512   288A      1.286771   289A      1.294496  
     290A      1.300036   291A      1.305560   292A      1.316469  
     293A      1.318811   294A      1.319498   295A      1.326303  
     296A      1.329727   297A      1.336176   298A      1.339079  
     299A      1.340843   300A      1.346840   301A      1.356787  
     302A      1.363199   303A      1.365245   304A      1.379178  
     305A      1.383836   306A      1.390034   307A      1.393082  
     308A      1.402180   309A      1.403155   310A      1.406287  
     311A      1.410498   312A      1.418135   313A      1.424264  
     314A      1.427423   315A      1.439439   316A      1.448753  
     317A      1.450123   318A      1.465212   319A      1.467356  
     320A      1.485139   321A      1.487455   322A      1.493578  
     323A      1.502848   324A      1.511490   325A      1.513446  
     326A      1.526037   327A      1.529081   328A      1.534448  
     329A      1.542446   330A      1.548276   331A      1.553771  
     332A      1.568331   333A      1.577125   334A      1.583442  
     335A      1.593113   336A      1.598570   337A      1.602560  
     338A      1.610315   339A      1.616148   340A      1.635132  
     341A      1.647729   342A      1.649610   343A      1.660073  
     344A      1.672918   345A      1.678341   346A      1.683283  
     347A      1.688684   348A      1.700708   349A      1.706228  
     350A      1.708539   351A      1.722370   352A      1.736214  
     353A      1.743630   354A      1.745380   355A      1.757046  
     356A      1.761567   357A      1.765801   358A      1.768833  
     359A      1.775420   360A      1.799374   361A      1.803733  
     362A      1.805280   363A      1.810578   364A      1.819796  
     365A      1.822246   366A      1.826990   367A      1.831711  
     368A      1.840442   369A      1.857836   370A      1.865498  
     371A      1.875273   372A      1.878100   373A      1.887135  
     374A      1.896771   375A      1.902073   376A      1.909759  
     377A      1.914789   378A      1.927176   379A      1.930097  
     380A      1.938285   381A      1.941954   382A      1.955653  
     383A      1.969867   384A      1.981845   385A      1.983773  
     386A      1.999213   387A      2.002386   388A      2.006668  
     389A      2.016986   390A      2.023773   391A      2.027875  
     392A      2.038043   393A      2.048460   394A      2.061494  
     395A      2.072796   396A      2.078739   397A      2.081386  
     398A      2.084378   399A      2.095084   400A      2.100342  
     401A      2.105155   402A      2.116576   403A      2.123665  
     404A      2.142255   405A      2.144084   406A      2.149055  
     407A      2.155485   408A      2.159786   409A      2.168265  
     410A      2.184741   411A      2.188543   412A      2.197930  
     413A      2.202876   414A      2.206119   415A      2.210240  
     416A      2.225612   417A      2.234697   418A      2.235491  
     419A      2.249219   420A      2.260714   421A      2.266174  
     422A      2.271055   423A      2.282754   424A      2.286002  
     425A      2.298491   426A      2.301176   427A      2.312634  
     428A      2.315527   429A      2.324244   430A      2.330420  
     431A      2.341614   432A      2.349783   433A      2.356326  
     434A      2.367507   435A      2.386966   436A      2.393926  
     437A      2.401347   438A      2.409379   439A      2.417757  
     440A      2.431781   441A      2.445503   442A      2.453665  
     443A      2.468059   444A      2.471157   445A      2.479760  
     446A      2.488447   447A      2.497392   448A      2.518046  
     449A      2.522584   450A      2.531090   451A      2.541464  
     452A      2.562795   453A      2.569648   454A      2.581499  
     455A      2.590229   456A      2.592483   457A      2.599877  
     458A      2.627328   459A      2.634618   460A      2.652100  
     461A      2.662903   462A      2.669409   463A      2.677624  
     464A      2.691327   465A      2.695271   466A      2.699244  
     467A      2.720674   468A      2.737509   469A      2.740687  
     470A      2.758581   471A      2.764490   472A      2.770158  
     473A      2.791137   474A      2.803892   475A      2.837019  
     476A      2.862871   477A      2.876166   478A      2.883674  
     479A      2.900140   480A      2.913312   481A      2.918601  
     482A      2.931165   483A      2.947414   484A      2.958935  
     485A      2.982188   486A      3.008487   487A      3.025108  
     488A      3.030143   489A      3.049415   490A      3.095143  
     491A      3.104966   492A      3.124204   493A      3.144931  
     494A      3.149865   495A      3.159083   496A      3.193972  
     497A      3.204091   498A      3.208664   499A      3.222088  
     500A      3.239800   501A      3.271056   502A      3.287761  
     503A      3.294922   504A      3.313800   505A      3.329935  
     506A      3.330486   507A      3.333046   508A      3.347898  
     509A      3.359257   510A      3.366285   511A      3.392337  
     512A      3.401049   513A      3.424639   514A      3.440181  
     515A      3.452904   516A      3.454803   517A      3.473130  
     518A      3.478978   519A      3.493527   520A      3.509871  
     521A      3.517216   522A      3.526785   523A      3.533777  
     524A      3.538407   525A      3.557275   526A      3.564895  
     527A      3.570064   528A      3.580604   529A      3.588659  
     530A      3.594248   531A      3.605186   532A      3.615806  
     533A      3.623291   534A      3.634600   535A      3.646551  
     536A      3.656055   537A      3.660490   538A      3.671738  
     539A      3.673655   540A      3.684771   541A      3.686900  
     542A      3.696910   543A      3.702073   544A      3.709270  
     545A      3.716510   546A      3.727436   547A      3.741102  
     548A      3.750346   549A      3.760834   550A      3.768840  
     551A      3.775642   552A      3.785635   553A      3.795547  
     554A      3.805390   555A      3.812367   556A      3.817815  
     557A      3.828136   558A      3.829125   559A      3.843957  
     560A      3.849206   561A      3.857908   562A      3.867351  
     563A      3.881486   564A      3.885872   565A      3.898632  
     566A      3.904701   567A      3.919151   568A      3.934915  
     569A      3.944182   570A      3.950888   571A      3.960793  
     572A      3.968975   573A      3.976647   574A      3.984516  
[...]
	 B(8,1,15)        =         2.057824	     117.904615
	 B(8,11,14)       =         2.047874	     117.334535
	 B(9,3,17)        =         2.083911	     119.399283
	 B(9,4,18)        =         2.084419	     119.428421
	 B(9,8,11)        =         2.131972	     122.153020
	 B(10,2,16)       =         2.045163	     117.179207
	 B(10,5,11)       =         2.122858	     121.630829
	 B(10,5,19)       =         2.073436	     118.799158
	 B(11,5,19)       =         2.086881	     119.569458
	 B(12,6,20)       =         2.024824	     116.013883
	 B(12,7,21)       =         2.023766	     115.953242
	 B(20,12,21)      =         3.008575	     172.378666
	 D(1,2,10,5)      =         0.011737	       0.672468
	 D(1,2,10,13)     =        -3.127016	    -179.164796
	 D(1,8,9,3)       =        -1.297770	     -74.356753
	 D(1,8,9,4)       =         1.914142	     109.672239
	 D(1,8,11,5)      =         0.063188	       3.620411
	 D(1,8,11,14)     =        -3.109717	    -178.173653
	 D(2,1,8,9)       =        -3.012324	    -172.593476
	 D(2,1,8,11)      =        -0.045396	      -2.601028
	 D(2,10,5,11)     =         0.004361	       0.249839
	 D(2,10,5,19)     =        -3.132477	    -179.477726
	 D(3,6,12,7)      =        -0.003978	      -0.227948
	 D(3,6,12,20)     =         3.113413	     178.385451
	 D(3,6,12,21)     =         0.000928	       0.053193
	 D(3,6,20,12)     =        -3.114556	    -178.450914
	 D(3,9,4,7)       =         0.031625	       1.811977
	 D(3,9,4,18)      =        -3.112325	    -178.323111
	 D(3,9,8,11)      =         2.031146	     116.376099
	 D(4,7,12,6)      =        -0.010710	      -0.613618
	 D(4,7,12,20)     =        -0.030266	      -1.734129
	 D(4,7,12,21)     =         3.136949	     179.733931
	 D(4,7,21,12)     =        -3.137146	    -179.745206
	 D(4,9,3,6)       =        -0.045204	      -2.590020
	 D(4,9,3,17)      =         3.100211	     177.629016
	 D(4,9,8,11)      =        -1.040127	     -59.594909
	 D(5,10,2,16)     =        -3.117658	    -178.628624
	 D(5,11,8,9)      =         3.030182	     173.616632
	 D(6,3,9,8)       =        -3.120543	    -178.793926
	 D(6,12,7,21)     =         3.135527	     179.652450
	 D(6,12,21,7)     =        -0.009324	      -0.534216
	 D(6,20,12,7)     =         0.037182	       2.130360
	 D(6,20,12,21)    =         0.128711	       7.374602
	 D(7,4,9,8)       =         3.107228	     178.031064
	 D(7,12,6,20)     =        -3.117392	    -178.613399
	 D(7,21,12,20)    =        -0.113299	      -6.491561
	 D(8,1,2,10)      =         0.009995	       0.572653
	 D(8,1,2,16)      =         3.139049	     179.854253
	 D(8,9,3,17)      =         0.024873	       1.425109
	 D(8,9,4,18)      =        -0.036722	      -2.104023
	 D(8,11,5,10)     =        -0.044513	      -2.550379
	 D(8,11,5,19)     =         3.092289	     177.175133
	 D(9,3,6,12)      =         0.033322	       1.909214
	 D(9,3,6,20)      =        -3.137538	    -179.767699
	 D(9,4,7,12)      =        -0.003994	      -0.228848
	 D(9,4,7,21)      =         3.132775	     179.494792
	 D(9,8,1,15)      =         0.121072	       6.936891
	 D(9,8,11,14)     =        -0.142723	      -8.177432
	 D(10,2,1,15)     =        -3.123275	    -178.950472
	 D(10,5,11,14)    =         3.128635	     179.257573
	 D(11,5,10,13)    =        -3.140057	    -179.912000
	 D(11,8,1,15)     =         3.088000	     176.929340
	 D(12,6,3,17)     =        -3.112130	    -178.311939
	 D(12,7,4,18)     =         3.139980	     179.907601
	 D(13,10,2,16)    =         0.026775	       1.534113
	 D(13,10,5,19)    =         0.006291	       0.360435
	 D(14,11,5,19)    =        -0.017749	      -1.016915
	 D(15,1,2,16)     =         0.005779	       0.331127
	 D(17,3,6,20)     =         0.000195	       0.011148
	 D(18,4,7,21)     =        -0.006436	      -0.368759
	 D(20,6,12,21)    =        -3.112485	    -178.332258
	 D(20,12,7,21)    =         3.115970	     178.531940

	Adding user-defined constraint: Fragment 1; Coordinate 59:
		Value =    -1.297770; Fixed value    =    -1.308997
		Force =    -0.005613; Force constant =     0.500000
	Removing off-diagonal coupling between coordinate 59 and others.
	Taking RFO optimization step.
	Going to follow RFO solution 1.
	Using RFO vector 1.

	Determining step-restricting scale parameter for RS-RFO.
	Maximum step size allowed    0.10000

	 Iter      |step|        alpha        rfo_root  
	------------------------------------------------
	    0     0.12415       1.00000           1
	    1     0.10783       4.58324           1
	    2     0.10093       6.85109           1
	    3     0.10002       7.19623           1
	    4     0.10000       7.20233           1
	------------------------------------------------
	Norm of target step-size    0.10000
	Projected energy change by RFO approximation:        -0.0000812760

	Back-transformation to cartesian coordinates...
	Successfully converged to displaced geometry.

	--- Internal Coordinate Step in ANG or DEG, aJ/ANG or AJ/DEG ---
	 ---------------------------------------------------------------------------
	   Coordinate                Previous        Force       Change         New 
	   ----------                --------       ------       ------       ------
	    1 R(1,2)          =      1.378091     0.000277     0.000046     1.378136
	    2 R(1,8)          =      1.402640    -0.000662    -0.000037     1.402603
	    3 R(1,15)         =      1.083182     0.000191     0.000157     1.083339
	    4 R(2,10)         =      1.435190     0.000964     0.000219     1.435409
	    5 R(2,16)         =      1.080655     0.001146     0.000238     1.080893
	    6 R(3,6)          =      1.386118     0.000243     0.000079     1.386197
	    7 R(3,9)          =      1.393799    -0.000308     0.000077     1.393876
	    8 R(3,17)         =      1.079756     0.000440     0.000245     1.080001
	    9 R(4,7)          =      1.385042    -0.000540    -0.000029     1.385013
	   10 R(4,9)          =      1.394298     0.000588     0.000243     1.394541
	   11 R(4,18)         =      1.079236     0.001379     0.000365     1.079601
	   12 R(5,10)         =      1.434719    -0.000008     0.000033     1.434752
	   13 R(5,11)         =      1.369469    -0.000873    -0.000100     1.369369
	   14 R(5,19)         =      1.078972     0.000610     0.000168     1.079140
	   15 R(6,12)         =      1.336663     0.001188     0.000343     1.337007
	   16 R(6,20)         =      1.081824     0.001171     0.000444     1.082268
	   17 R(7,12)         =      1.337773     0.000742     0.000266     1.338039
	   18 R(7,21)         =      1.081903     0.000441     0.000269     1.082172
	   19 R(8,9)          =      1.457188     0.001355     0.000182     1.457370
	   20 R(8,11)         =      1.390134     0.000943     0.000244     1.390378
	   21 R(10,13)        =      1.264192    -0.002171    -0.000222     1.263970
	   22 R(11,14)        =      1.372535     0.000184     0.000117     1.372652
	   23 B(1,2,10)       =    122.750815     0.000008     0.020351   122.771167
	   24 B(1,2,16)       =    120.066293    -0.000003    -0.012208   120.054085
	   25 B(1,8,9)        =    122.187007     0.000007     0.001434   122.188441
	   26 B(1,8,11)       =    114.865837     0.000010     0.044902   114.910740
	   27 B(2,1,8)        =    122.588250    -0.000010    -0.040254   122.547996
	   28 B(2,1,15)       =    119.505488     0.000003     0.019953   119.525441
	   29 B(2,10,5)       =    113.610037    -0.000007    -0.006914   113.603123
	   30 B(2,10,13)      =    123.436968     0.000003     0.006598   123.443566
	   31 B(3,6,12)       =    123.880611    -0.000001    -0.007676   123.872935
	   32 B(3,6,20)       =    120.085890     0.000001    -0.006298   120.079592
	   33 B(3,9,4)        =    115.716642     0.000007     0.045234   115.761876
	   34 B(3,9,8)        =    122.268082     0.000007    -0.038446   122.229636
	   35 B(4,7,12)       =    124.005300    -0.000006    -0.033389   123.971911
	   36 B(4,7,21)       =    120.040926     0.000002    -0.004834   120.036092
	   37 B(4,9,8)        =    121.902402    -0.000011    -0.018666   121.883736
	   38 B(5,10,13)      =    122.952784     0.000004    -0.005462   122.947323
	   39 B(5,11,8)       =    124.468278    -0.000006    -0.014407   124.453871
	   40 B(5,11,14)      =    118.173849     0.000005     0.010861   118.184710
	   41 B(6,3,9)        =    120.241759    -0.000005    -0.031069   120.210691
	   42 B(6,3,17)       =    120.358592    -0.000000     0.007512   120.366105
	   43 B(6,12,7)       =    115.963755     0.000004     0.037430   116.001185
	   44 B(7,4,9)        =    120.145287     0.000002    -0.009745   120.135541
	   45 B(7,4,18)       =    120.426153    -0.000000     0.000583   120.426736
	   46 B(8,1,15)       =    117.904615     0.000006     0.019662   117.924277
	   47 B(8,11,14)      =    117.334535     0.000001     0.022779   117.357315
	   48 B(9,3,17)       =    119.399283     0.000005     0.022987   119.422270
	   49 B(9,4,18)       =    119.428421    -0.000002     0.007689   119.436110
	   50 B(9,8,11)       =    122.153020    -0.000009     0.007343   122.160362
	   51 B(10,2,16)      =    117.179207    -0.000005    -0.007450   117.171757
	   52 B(10,5,11)      =    121.630829     0.000007     0.010753   121.641582
	   53 B(10,5,19)      =    118.799158    -0.000003    -0.001368   118.797789
	   54 B(11,5,19)      =    119.569458    -0.000004    -0.009617   119.559841
	   55 B(12,6,20)      =    116.013883     0.000001     0.033276   116.047160
	   56 B(12,7,21)      =    115.953242     0.000004     0.038751   115.991993
	   57 D(1,2,10,5)     =      0.672468     0.000002     0.474531     1.146999
	   58 D(1,2,10,13)    =   -179.164796    -0.000001    -0.556000  -179.720796
	   59 D(1,8,9,3)      =    -74.356753     0.000013     0.491039   -73.865713
	   60 D(1,8,9,4)      =    109.672239     0.000004     0.695594   110.367833
	   61 D(1,8,11,5)     =      3.620411    -0.000006    -0.468413     3.151998
	   62 D(1,8,11,14)    =   -178.173653    -0.000004     0.573319  -177.600334
	   63 D(2,1,8,9)      =   -172.593476    -0.000003    -0.193853  -172.787330
	   64 D(2,1,8,11)     =     -2.601028     0.000007     0.148229    -2.452799
	   65 D(2,10,5,11)    =      0.249839    -0.000001    -0.769348    -0.519509
	   66 D(2,10,5,19)    =   -179.477726     0.000000    -0.717323  -180.195049
	   67 D(3,6,12,7)     =     -0.227948     0.000002     0.441257     0.213309
	   68 D(3,9,4,7)      =      1.811977    -0.000003     0.274041     2.086017
	   69 D(3,9,4,18)     =   -178.323111    -0.000005    -0.050788  -178.373898
	   70 D(3,9,8,11)     =    116.376099     0.000002     0.120659   116.496758
	   71 D(4,7,12,6)     =     -0.613618     0.000001    -0.050046    -0.663665
	   72 D(4,9,3,6)      =     -2.590020     0.000006     0.087286    -2.502734
	   73 D(4,9,3,17)     =    177.629016     0.000001     0.218699   177.847715
	   74 D(4,9,8,11)     =    -59.594909    -0.000007     0.325213   -59.269695
	   75 D(5,10,2,16)    =   -178.628624     0.000001     0.405444  -178.223180
	   76 D(5,11,8,9)     =    173.616632     0.000005    -0.127094   173.489538
	   77 D(6,3,9,8)      =   -178.793926    -0.000002     0.282309  -178.511617
	   78 D(6,12,7,21)    =    179.652450     0.000000    -0.337113   179.315337
	   79 D(7,4,9,8)      =    178.031064     0.000006     0.078921   178.109986
	   80 D(7,12,6,20)    =   -178.613399    -0.000002    -0.969244  -179.582644
	   81 D(8,1,2,10)     =      0.572653    -0.000005    -0.190578     0.382076
	   82 D(8,1,2,16)     =    179.854253    -0.000004    -0.119527   179.734726
	   83 D(8,9,3,17)     =      1.425109    -0.000007     0.413723     1.838832
	   84 D(8,9,4,18)     =     -2.104023     0.000003    -0.245907    -2.349930
	   85 D(8,11,5,10)    =     -2.550379     0.000003     0.826037    -1.724341
	   86 D(8,11,5,19)    =    177.175133     0.000002     0.773648   177.948780
	   87 D(9,3,6,12)     =      1.909214    -0.000007    -0.471919     1.437295
	   88 D(9,3,6,20)     =   -179.767699    -0.000001     0.993141  -178.774558
	   89 D(9,4,7,12)     =     -0.228848    -0.000001    -0.309450    -0.538298
	   90 D(9,4,7,21)     =    179.494792     0.000000    -0.011287   179.483505
	   91 D(9,8,1,15)     =      6.936891    -0.000008    -0.277419     6.659472
	   92 D(9,8,11,14)    =     -8.177432     0.000007     0.914638    -7.262794
	   93 D(10,2,1,15)    =   -178.950472    -0.000000    -0.105715  -179.056188
	   94 D(10,5,11,14)   =    179.257573     0.000001    -0.223839   179.033734
	   95 D(11,5,10,13)   =   -179.912000     0.000002     0.255382  -179.656618
	   96 D(11,8,1,15)    =    176.929340     0.000002     0.064664   176.994004
	   97 D(12,6,3,17)    =   -178.311939    -0.000001    -0.604550  -178.916489
	   98 D(12,7,4,18)    =    179.907601     0.000001     0.018619   179.926219
	   99 D(13,10,2,16)   =      1.534113    -0.000002    -0.625087     0.909025
	  100 D(13,10,5,19)   =      0.360435     0.000003     0.307407     0.667842
	  101 D(14,11,5,19)   =     -1.016915     0.000000    -0.276229    -1.293144
	  102 D(15,1,2,16)    =      0.331127     0.000001    -0.034664     0.296463
	  103 D(17,3,6,20)    =      0.011148     0.000004     0.860510     0.871658
	  104 D(18,4,7,21)    =     -0.368759     0.000003     0.316781    -0.051978
	  105 R(4,14)         =      3.090801    -0.000692    -0.011918     3.078883
	  106 R(1,X)          =     -1.457771    -0.000603    -0.001943    -1.459713
	  107 R(1,Y)          =      0.653692    -0.001689    -0.003691     0.650002
	  108 R(1,Z)          =     -0.748703    -0.001014    -0.000336    -0.749039
	  109 R(2,X)          =     -2.479723    -0.000040    -0.003441    -2.483165
	  110 R(2,Y)          =      1.290269    -0.001229    -0.006560     1.283709
	  111 R(2,Z)          =     -0.078243    -0.000023     0.000191    -0.078052
	  112 R(3,X)          =      0.718788    -0.001466    -0.002119     0.716669
	  113 R(3,Y)          =     -1.670888     0.000495     0.002561    -1.668327
	  114 R(3,Z)          =     -1.520745    -0.001547    -0.003121    -1.523866
	  115 R(4,X)          =      2.025930     0.001367     0.002746     2.028676
	  116 R(4,Y)          =      0.133377    -0.001212    -0.003789     0.129587
	  117 R(4,Z)          =     -0.740175     0.001531     0.005906    -0.734269
	  118 R(5,X)          =     -1.390744     0.000161     0.001984    -1.388760
	  119 R(5,Y)          =      0.803557     0.000652     0.003355     0.806912
	  120 R(5,Z)          =      2.006175    -0.000141    -0.000225     2.005950
	  121 R(6,X)          =      1.848019    -0.000747    -0.001035     1.846984
	  122 R(6,Y)          =     -2.150392    -0.000777    -0.001379    -2.151771
	  123 R(6,Z)          =     -2.165907     0.000134     0.001563    -2.164344
	  124 R(7,X)          =      3.106456     0.001029     0.001862     3.108317
	  125 R(7,Y)          =     -0.425467     0.000567    -0.003362    -0.428829
	  126 R(7,Z)          =     -1.402369     0.000607     0.004166    -1.398202
	  127 R(8,X)          =     -0.378080     0.000713     0.000787    -0.377292
	  128 R(8,Y)          =      0.052626     0.003325     0.001565     0.054192
	  129 R(8,Z)          =     -0.085089    -0.000013    -0.000121    -0.085209
	  130 R(9,X)          =      0.774596     0.001061     0.000528     0.775124
	  131 R(9,Y)          =     -0.478613    -0.001943     0.000873    -0.477740
	  132 R(9,Z)          =     -0.800994     0.001697    -0.000394    -0.801388
	  133 R(10,X)         =     -2.518852    -0.000966    -0.004372    -2.523224
	  134 R(10,Y)         =      1.401834    -0.000403    -0.007909     1.393925
	  135 R(10,Z)         =      1.352069     0.000854     0.000489     1.352558
	  136 R(11,X)         =     -0.388080     0.000214     0.000511    -0.387569
	  137 R(11,Y)         =      0.197029     0.001198     0.000637     0.197667
	  138 R(11,Z)         =      1.297489     0.001154     0.000219     1.297708
	  139 R(12,X)         =      3.042618     0.000197    -0.000378     3.042240
	  140 R(12,Y)         =     -1.552459    -0.000013    -0.001931    -1.554390
	  141 R(12,Z)         =     -2.120316     0.000211     0.001632    -2.118684
	  142 R(13,X)         =     -3.457172     0.001243    -0.000619    -3.457790
	  143 R(13,Y)         =      1.969331    -0.000126    -0.001720     1.967611
	  144 R(13,Z)         =      1.981105    -0.000464     0.000017     1.981121
	  145 R(14,X)         =      0.665729     0.000715     0.009181     0.674910
	  146 R(14,Y)         =     -0.338823     0.001336     0.016109    -0.322714
	  147 R(14,Z)         =      1.994771     0.000864    -0.000990     1.993781
	  148 R(15,X)         =     -1.472534    -0.000770    -0.002235    -1.474769
	  149 R(15,Y)         =      0.615108    -0.001827    -0.004253     0.610854
	  150 R(15,Z)         =     -1.831097    -0.001198    -0.000468    -1.831565
	  151 R(16,X)         =     -3.291098    -0.001078    -0.004971    -3.296069
	  152 R(16,Y)         =      1.741912    -0.000898    -0.008657     1.733255
	  153 R(16,Z)         =     -0.630968    -0.000468     0.000264    -0.630704
	  154 R(17,X)         =     -0.212394    -0.002075    -0.005178    -0.217572
	  155 R(17,Y)         =     -2.214908     0.000747     0.008144    -2.206764
	  156 R(17,Z)         =     -1.573800    -0.002401    -0.010750    -1.584549
	  157 R(18,X)         =      2.143239     0.000668     0.003889     2.147127
	  158 R(18,Y)         =      1.045493     0.000484    -0.004741     1.040753
	  159 R(18,Z)         =     -0.175346     0.001574     0.007896    -0.167450
	  160 R(19,X)         =     -1.339364     0.000436     0.007669    -1.331695
	  161 R(19,Y)         =      0.831863     0.000767     0.013478     0.845341
	  162 R(19,Z)         =      3.083551     0.000454    -0.000656     3.082895
	  163 R(20,X)         =      1.800898    -0.001297    -0.006544     1.794355
	  164 R(20,Y)         =     -3.074149    -0.000594     0.008135    -3.066014
	  165 R(20,Z)         =     -2.726974    -0.002379    -0.014167    -2.741141
	  166 R(21,X)         =      4.074816     0.001239     0.003679     4.078496
	  167 R(21,Y)         =      0.055222     0.001140    -0.006866     0.048357
	  168 R(21,Z)         =     -1.360777     0.000569     0.008886    -1.351891
	 ---------------------------------------------------------------------------
	Successfully symmetrized geometry.
	 Forces used to impose fixed constraints are not included.
	  Forces zeroed: 59 

  ==> Convergence Check <==

  Measures of convergence in internal coordinates in au.
  Criteria marked as inactive (o), active & met (*), and active & unmet ( ).
  --------------------------------------------------------------------------------------------- ~
   Step     Total Energy     Delta E     MAX Force     RMS Force      MAX Disp      RMS Disp    ~
  --------------------------------------------------------------------------------------------- ~
    Convergence Criteria    1.00e-06 *    3.00e-04 *             o    1.20e-03 *             o  ~
  --------------------------------------------------------------------------------------------- ~
      1    -652.32737282   -6.52e+02      4.84e-04      1.51e-04 o    3.04e-02      7.71e-03 o  ~
  ---------------------------------------------------------------------------------------------

	Writing optimization data to binary file.
	
Fatal Error: PSIO Error
Error occurred in file: /scratch/psilocaluser/conda-builds/psi4_1495011512596/work/psi4/src/psi4/libpsio/error.cc on line: 129
The most recent 5 function calls were:

psi::PsiException::PsiException(std::__cxx11::basic_string<char, std::char_traits<char>, std::allocator<char> >, char const*, int)
psi::psio_error(unsigned int, unsigned int)
psi::PSIO::write(unsigned int, char const*, char*, unsigned long, psi::psio_address, psi::psio_address*)
psi::PSIO::write_entry(unsigned int, char const*, char*, unsigned long)
psi::psio_write_entry(unsigned int, char const*, char*, unsigned long)
