
    -----------------------------------------------------------------------
          Psi4: An Open-Source Ab Initio Electronic Structure Package
                               Psi4 1.1 release

                         Git: Rev {HEAD} add49b9 


    R. M. Parrish, L. A. Burns, D. G. A. Smith, A. C. Simmonett,
    A. E. DePrince III, E. G. Hohenstein, U. Bozkaya, A. Yu. Sokolov,
    R. Di Remigio, R. M. Richard, J. F. Gonthier, A. M. James,
    H. R. McAlexander, A. Kumar, M. Saitow, X. Wang, B. P. Pritchard,
    P. Verma, H. F. Schaefer III, K. Patkowski, R. A. King, E. F. Valeev,
    F. A. Evangelista, J. M. Turney, T. D. Crawford, and C. D. Sherrill,
    J. Chem. Theory Comput. in press (2017).
    (doi: 10.1021/acs.jctc.7b00174)

    -----------------------------------------------------------------------


    Psi4 started on: Saturday, 11 November 2017 09:40AM

    Process ID:   1677
    PSIDATADIR: /cbio/jclab/home/chayas/anaconda/envs/py35/share/psi4
    Memory:     500.0 MiB
    Threads:    8
    
  ==> Input File <==

--------------------------------------------------------------------------

molecule phepyr {
  symmetry C1
  0 1 
  C      1.885   -1.036   -0.112
  C      0.807   -0.463   0.561
  C      2.921   -1.631   0.608
  C      0.764   -0.484   1.955
  C      2.878   -1.652   2.002
  C      0.567   -0.822   4.788
  C      2.900   -1.401   4.851
  C      0.576   -0.858   6.173
  C      2.805   -1.411   6.233
  C      1.800   -1.079   2.676
  C      1.755   -1.100   4.122
  N      1.668   -1.146   6.915
  H      1.917   -1.021   -1.198
  H      -0.001   -0.002   0.000
  H      3.760   -2.079   0.084
  H      -0.084   -0.033   2.466
  H      3.693   -2.120   2.550
  H      -0.348   -0.584   4.253
  H      3.845   -1.623   4.365
  H      -0.326   -0.650   6.739
  H      3.669   -1.638   6.847
  units Angstrom
}

dih_string = "4 10 11 6 15"
set optking fixed_dihedral = $dih_string

optimize('MP2/aug-cc-PVTZ')
--------------------------------------------------------------------------
gradient() will perform analytic gradient computation.

*** tstart() called on gpu-1-12.local
*** at Sat Nov 11 09:40:32 2017

    SCF Algorithm Type (re)set to DF.

*** tstart() called on gpu-1-12.local
*** at Sat Nov 11 09:40:32 2017

   => Loading Basis Set <=

    Name: AUG-CC-PVTZ
    Role: ORBITAL
    Keyword: BASIS
    atoms 1-11  entry C          line   221 file /cbio/jclab/home/chayas/anaconda/envs/py35/share/psi4/basis/aug-cc-pvtz.gbs 
    atoms 12    entry N          line   267 file /cbio/jclab/home/chayas/anaconda/envs/py35/share/psi4/basis/aug-cc-pvtz.gbs 
    atoms 13-21 entry H          line    34 file /cbio/jclab/home/chayas/anaconda/envs/py35/share/psi4/basis/aug-cc-pvtz.gbs 


         ---------------------------------------------------------
                                   SCF
            by Justin Turney, Rob Parrish, and Andy Simmonett
                              RHF Reference
                        8 Threads,    500 MiB Core
         ---------------------------------------------------------

  ==> Geometry <==

    Molecular point group: c1
    Full point group: C1

    Geometry (in Angstrom), charge = 0, multiplicity = 1:

       Center              X                  Y                   Z               Mass       
    ------------   -----------------  -----------------  -----------------  -----------------
           C          0.108395310369     0.054565555319    -3.526029730693    12.000000000000
           C         -0.969604689631     0.627565555319    -2.853029730693    12.000000000000
           C          1.144395310369    -0.540434444681    -2.806029730693    12.000000000000
           C         -1.012604689631     0.606565555319    -1.459029730693    12.000000000000
           C          1.101395310369    -0.561434444681    -1.412029730693    12.000000000000
           C         -1.209604689631     0.268565555319     1.373970269307    12.000000000000
           C          1.123395310369    -0.310434444681     1.436970269307    12.000000000000
           C         -1.200604689631     0.232565555319     2.758970269307    12.000000000000
           C          1.028395310369    -0.320434444681     2.818970269307    12.000000000000
           C          0.023395310369     0.011565555319    -0.738029730693    12.000000000000
           C         -0.021604689631    -0.009434444681     0.707970269307    12.000000000000
           N         -0.108604689631    -0.055434444681     3.500970269307    14.003074004780
           H          0.140395310369     0.069565555319    -4.612029730693     1.007825032070
           H         -1.777604689631     1.088565555319    -3.414029730693     1.007825032070
           H          1.983395310369    -0.988434444681    -3.330029730693     1.007825032070
           H         -1.860604689631     1.057565555319    -0.948029730693     1.007825032070
           H          1.916395310369    -1.029434444681    -0.864029730693     1.007825032070
           H         -2.124604689631     0.506565555319     0.838970269307     1.007825032070
           H          2.068395310369    -0.532434444681     0.950970269307     1.007825032070
           H         -2.102604689631     0.440565555319     3.324970269307     1.007825032070
           H          1.892395310369    -0.547434444681     3.432970269307     1.007825032070

  Running in c1 symmetry.

  Rotational constants: A =      0.09743  B =      0.01908  C =      0.01604 [cm^-1]
  Rotational constants: A =   2920.80560  B =    571.88518  C =    480.92460 [MHz]
  Nuclear repulsion =  607.407555650654444

  Charge       = 0
  Multiplicity = 1
  Electrons    = 82
  Nalpha       = 41
  Nbeta        = 41

  ==> Algorithm <==

  SCF Algorithm Type is DF.
  DIIS enabled.
  MOM disabled.
  Fractional occupation disabled.
  Guess Type is SAD.
  Energy threshold   = 1.00e-10
  Density threshold  = 1.00e-10
  Integral threshold = 0.00e+00

  ==> Primary Basis <==

  Basis Set: AUG-CC-PVTZ
    Blend: AUG-CC-PVTZ
    Number of shells: 249
    Number of basis function: 759
    Number of Cartesian functions: 885
    Spherical Harmonics?: true
    Max angular momentum: 3

   => Loading Basis Set <=

    Name: (AUG-CC-PVTZ AUX)
    Role: JKFIT
    Keyword: DF_BASIS_SCF
    atoms 1-11  entry C          line   161 file /cbio/jclab/home/chayas/anaconda/envs/py35/share/psi4/basis/aug-cc-pvtz-jkfit.gbs 
    atoms 12    entry N          line   223 file /cbio/jclab/home/chayas/anaconda/envs/py35/share/psi4/basis/aug-cc-pvtz-jkfit.gbs 
    atoms 13-21 entry H          line    69 file /cbio/jclab/home/chayas/anaconda/envs/py35/share/psi4/basis/aug-cc-pvtz-jkfit.gbs 

  ==> Pre-Iterations <==

   -------------------------------------------------------
    Irrep   Nso     Nmo     Nalpha   Nbeta   Ndocc  Nsocc
   -------------------------------------------------------
     A        759     759       0       0       0       0
   -------------------------------------------------------
    Total     759     759      41      41      41       0
   -------------------------------------------------------

  ==> Integral Setup <==

  ==> DFJK: Density-Fitted J/K Matrices <==

    J tasked:                  Yes
    K tasked:                  Yes
    wK tasked:                  No
    OpenMP threads:              8
    Integrals threads:           8
    Memory (MB):               375
    Algorithm:                Disk
    Integral Cache:           NONE
    Schwarz Cutoff:          1E-12
    Fitting Condition:       1E-12

   => Auxiliary Basis Set <=

  Basis Set: (AUG-CC-PVTZ AUX)
    Blend: AUG-CC-PVTZ-JKFIT
    Number of shells: 486
    Number of basis function: 1662
    Number of Cartesian functions: 2067
    Spherical Harmonics?: true
    Max angular momentum: 4

  Minimum eigenvalue in the overlap matrix is 4.1193723448E-07.
  Using Symmetric Orthogonalization.

  SCF Guess: Superposition of Atomic Densities via on-the-fly atomic UHF.

  ==> Iterations <==

                           Total Energy        Delta E     RMS |[F,P]|

   @DF-RHF iter   0:  -485.71994102071369   -4.85720e+02   2.32646e-02 
   @DF-RHF iter   1:  -476.14523296861410    9.57471e+00   1.68782e-03 
   @DF-RHF iter   2:  -476.34474439199715   -1.99511e-01   9.35447e-04 DIIS
   @DF-RHF iter   3:  -476.37917133045312   -3.44269e-02   4.01471e-04 DIIS
   @DF-RHF iter   4:  -476.38997302306029   -1.08017e-02   9.32009e-05 DIIS
   @DF-RHF iter   5:  -476.39127723172538   -1.30421e-03   3.54009e-05 DIIS
   @DF-RHF iter   6:  -476.39154113046385   -2.63899e-04   1.24439e-05 DIIS
   @DF-RHF iter   7:  -476.39159730642552   -5.61760e-05   4.42857e-06 DIIS
   @DF-RHF iter   8:  -476.39161004151981   -1.27351e-05   2.23416e-06 DIIS
   @DF-RHF iter   9:  -476.39161411877944   -4.07726e-06   1.40661e-06 DIIS
   @DF-RHF iter  10:  -476.39161529144781   -1.17267e-06   3.65965e-07 DIIS
   @DF-RHF iter  11:  -476.39161534541313   -5.39653e-08   1.51240e-07 DIIS
   @DF-RHF iter  12:  -476.39161535425410   -8.84097e-09   6.71833e-08 DIIS
   @DF-RHF iter  13:  -476.39161535595076   -1.69666e-09   3.16614e-08 DIIS
   @DF-RHF iter  14:  -476.39161535629398   -3.43221e-10   1.70946e-08 DIIS
   @DF-RHF iter  15:  -476.39161535642012   -1.26136e-10   6.88500e-09 DIIS
   @DF-RHF iter  16:  -476.39161535641097    9.15179e-12   1.82143e-09 DIIS
   @DF-RHF iter  17:  -476.39161535639948    1.14824e-11   6.52040e-10 DIIS
   @DF-RHF iter  18:  -476.39161535640721   -7.73070e-12   3.04484e-10 DIIS
   @DF-RHF iter  19:  -476.39161535639738    9.83391e-12   1.17408e-10 DIIS
   @DF-RHF iter  20:  -476.39161535638891    8.46967e-12   5.67100e-11 DIIS

  ==> Post-Iterations <==

    Orbital Energies (a.u.)
    -----------------------

    Doubly Occupied:                                                      

       1A    -15.563141     2A    -11.274931     3A    -11.274883  
       4A    -11.264297     5A    -11.251957     6A    -11.247673  
       7A    -11.247488     8A    -11.246542     9A    -11.246244  
      10A    -11.245412    11A    -11.237662    12A    -11.237586  
      13A     -1.249833    14A     -1.175678    15A     -1.107811  
      16A     -1.039622    17A     -1.023858    18A     -1.015918  
      19A     -0.882457    20A     -0.872059    21A     -0.823463  
      22A     -0.806096    23A     -0.737442    24A     -0.682612  
      25A     -0.672939    26A     -0.666473    27A     -0.626944  
      28A     -0.619755    29A     -0.614178    30A     -0.585486  
      31A     -0.577316    32A     -0.551231    33A     -0.531019  
      34A     -0.512617    35A     -0.507870    36A     -0.493656  
      37A     -0.418696    38A     -0.410076    39A     -0.353563  
      40A     -0.345366    41A     -0.316644  

    Virtual:                                                              

      42A      0.024761    43A      0.028437    44A      0.032178  
      45A      0.039970    46A      0.043279    47A      0.046447  
      48A      0.058180    49A      0.058261    50A      0.063989  
      51A      0.065969    52A      0.080679    53A      0.086452  
      54A      0.087470    55A      0.092290    56A      0.096468  
      57A      0.103114    58A      0.105216    59A      0.108823  
      60A      0.116290    61A      0.116530    62A      0.117003  
      63A      0.119810    64A      0.125851    65A      0.130716  
      66A      0.132373    67A      0.135418    68A      0.138917  
      69A      0.141135    70A      0.142699    71A      0.147175  
      72A      0.149160    73A      0.151783    74A      0.152412  
      75A      0.166247    76A      0.167104    77A      0.173251  
      78A      0.173916    79A      0.184267    80A      0.186534  
      81A      0.187493    82A      0.190879    83A      0.197866  
      84A      0.203111    85A      0.215488    86A      0.219291  
      87A      0.223974    88A      0.231176    89A      0.233283  
      90A      0.237516    91A      0.246572    92A      0.252502  
      93A      0.252587    94A      0.256946    95A      0.261633  
      96A      0.264650    97A      0.265800    98A      0.273646  
      99A      0.280898   100A      0.282747   101A      0.289352  
     102A      0.290297   103A      0.293184   104A      0.297228  
     105A      0.302279   106A      0.303319   107A      0.309515  
     108A      0.313292   109A      0.316387   110A      0.323119  
     111A      0.323825   112A      0.326184   113A      0.339755  
     114A      0.344527   115A      0.346305   116A      0.347407  
     117A      0.356045   118A      0.357745   119A      0.368496  
     120A      0.370544   121A      0.376670   122A      0.381492  
     123A      0.384446   124A      0.397917   125A      0.407923  
     126A      0.409511   127A      0.414198   128A      0.415455  
     129A      0.417713   130A      0.422641   131A      0.423588  
     132A      0.438637   133A      0.438953   134A      0.440926  
     135A      0.442659   136A      0.446847   137A      0.449984  
     138A      0.450010   139A      0.456285   140A      0.459775  
     141A      0.464856   142A      0.473221   143A      0.475526  
     144A      0.476908   145A      0.481125   146A      0.487460  
     147A      0.494321   148A      0.494596   149A      0.499148  
     150A      0.499932   151A      0.501265   152A      0.502996  
     153A      0.506987   154A      0.511029   155A      0.515253  
     156A      0.521817   157A      0.522016   158A      0.529229  
     159A      0.530263   160A      0.533432   161A      0.536554  
     162A      0.538063   163A      0.547281   164A      0.549241  
     165A      0.550371   166A      0.555439   167A      0.564918  
     168A      0.567319   169A      0.570350   170A      0.584520  
     171A      0.585013   172A      0.589257   173A      0.598197  
     174A      0.600963   175A      0.605203   176A      0.621678  
     177A      0.622934   178A      0.627318   179A      0.639395  
     180A      0.640768   181A      0.646366   182A      0.657689  
     183A      0.659092   184A      0.666150   185A      0.684700  
     186A      0.685011   187A      0.692116   188A      0.693858  
     189A      0.699309   190A      0.705433   191A      0.708205  
     192A      0.710561   193A      0.713404   194A      0.715860  
     195A      0.720165   196A      0.739557   197A      0.739750  
     198A      0.743367   199A      0.744882   200A      0.752015  
     201A      0.758913   202A      0.767077   203A      0.778959  
     204A      0.780043   205A      0.792775   206A      0.802177  
     207A      0.805740   208A      0.814856   209A      0.819614  
     210A      0.823971   211A      0.831898   212A      0.832526  
     213A      0.842005   214A      0.848577   215A      0.852376  
     216A      0.861784   217A      0.872445   218A      0.875031  
     219A      0.875253   220A      0.882492   221A      0.884534  
     222A      0.889293   223A      0.893072   224A      0.894126  
     225A      0.903057   226A      0.903849   227A      0.907545  
     228A      0.913886   229A      0.914684   230A      0.915453  
     231A      0.923212   232A      0.929271   233A      0.936267  
     234A      0.939479   235A      0.951250   236A      0.954313  
     237A      0.958827   238A      0.963882   239A      0.967670  
     240A      0.968806   241A      0.977781   242A      0.978992  
     243A      0.985845   244A      0.990576   245A      0.993514  
     246A      1.006953   247A      1.007299   248A      1.008824  
     249A      1.015723   250A      1.016417   251A      1.022372  
     252A      1.025871   253A      1.029244   254A      1.035730  
     255A      1.037554   256A      1.042409   257A      1.047129  
     258A      1.051238   259A      1.056952   260A      1.061564  
     261A      1.074177   262A      1.074942   263A      1.082426  
     264A      1.086664   265A      1.088965   266A      1.095750  
     267A      1.100193   268A      1.101085   269A      1.103277  
     270A      1.109175   271A      1.115196   272A      1.116875  
     273A      1.130665   274A      1.139076   275A      1.139264  
     276A      1.141216   277A      1.155110   278A      1.158470  
     279A      1.166040   280A      1.175537   281A      1.177441  
     282A      1.180413   283A      1.187366   284A      1.188164  
     285A      1.193640   286A      1.199914   287A      1.204840  
     288A      1.206553   289A      1.209759   290A      1.217318  
     291A      1.218940   292A      1.224753   293A      1.233683  
     294A      1.234006   295A      1.241782   296A      1.242678  
     297A      1.253338   298A      1.264945   299A      1.265056  
     300A      1.280029   301A      1.282783   302A      1.283422  
     303A      1.297133   304A      1.300823   305A      1.305200  
     306A      1.305482   307A      1.307370   308A      1.318708  
     309A      1.321769   310A      1.334628   311A      1.345404  
     312A      1.350119   313A      1.364416   314A      1.367113  
     315A      1.375960   316A      1.384634   317A      1.390700  
     318A      1.397423   319A      1.401595   320A      1.403790  
     321A      1.427690   322A      1.436685   323A      1.446926  
     324A      1.448379   325A      1.453886   326A      1.468038  
     327A      1.471348   328A      1.482742   329A      1.483655  
     330A      1.499780   331A      1.500614   332A      1.519421  
     333A      1.521317   334A      1.531331   335A      1.536682  
     336A      1.545932   337A      1.549483   338A      1.577389  
     339A      1.579949   340A      1.584074   341A      1.590534  
     342A      1.604291   343A      1.615251   344A      1.621294  
     345A      1.635039   346A      1.648732   347A      1.649928  
     348A      1.664410   349A      1.666780   350A      1.674621  
     351A      1.687249   352A      1.696192   353A      1.703502  
     354A      1.707376   355A      1.710868   356A      1.714506  
     357A      1.718536   358A      1.725496   359A      1.731554  
     360A      1.743408   361A      1.748751   362A      1.756640  
     363A      1.778887   364A      1.779887   365A      1.797853  
     366A      1.804158   367A      1.808914   368A      1.815942  
     369A      1.823764   370A      1.831188   371A      1.837041  
     372A      1.848648   373A      1.850857   374A      1.864471  
     375A      1.868928   376A      1.877257   377A      1.889196  
     378A      1.899890   379A      1.910564   380A      1.911999  
     381A      1.921728   382A      1.933017   383A      1.938119  
     384A      1.951462   385A      1.962151   386A      1.965972  
     387A      1.981438   388A      1.983674   389A      1.990515  
     390A      1.999050   391A      2.013009   392A      2.015807  
     393A      2.021793   394A      2.024669   395A      2.028640  
     396A      2.030059   397A      2.044239   398A      2.046827  
     399A      2.051025   400A      2.063316   401A      2.067441  
     402A      2.070412   403A      2.085456   404A      2.087765  
     405A      2.089705   406A      2.108854   407A      2.111314  
     408A      2.116863   409A      2.126012   410A      2.129035  
     411A      2.129456   412A      2.154183   413A      2.155068  
     414A      2.169760   415A      2.176322   416A      2.186984  
     417A      2.193201   418A      2.193722   419A      2.193769  
     420A      2.212396   421A      2.219529   422A      2.231118  
     423A      2.245019   424A      2.246419   425A      2.256877  
     426A      2.263450   427A      2.281031   428A      2.289779  
     429A      2.301622   430A      2.314891   431A      2.322992  
     432A      2.326572   433A      2.350133   434A      2.364501  
     435A      2.365500   436A      2.372080   437A      2.375510  
     438A      2.394666   439A      2.397777   440A      2.405617  
     441A      2.417309   442A      2.434457   443A      2.439711  
     444A      2.443617   445A      2.465832   446A      2.477013  
     447A      2.493548   448A      2.503905   449A      2.506067  
     450A      2.514910   451A      2.538757   452A      2.550458  
     453A      2.557263   454A      2.579635   455A      2.587606  
     456A      2.589387   457A      2.601873   458A      2.623668  
     459A      2.664350   460A      2.666240   461A      2.683474  
     462A      2.709638   463A      2.735913   464A      2.736904  
     465A      2.776179   466A      2.779599   467A      2.800238  
     468A      2.808190   469A      2.823462   470A      2.852232  
     471A      2.852316   472A      2.865153   473A      2.919147  
     474A      2.923697   475A      2.945524   476A      3.008579  
     477A      3.020342   478A      3.033802   479A      3.059817  
     480A      3.085116   481A      3.114631   482A      3.139972  
     483A      3.173275   484A      3.187308   485A      3.212008  
     486A      3.215804   487A      3.221944   488A      3.229252  
     489A      3.248742   490A      3.265889   491A      3.287553  
     492A      3.301765   493A      3.322405   494A      3.333639  
     495A      3.337131   496A      3.352325   497A      3.358359  
     498A      3.365116   499A      3.367934   500A      3.383376  
     501A      3.399500   502A      3.401290   503A      3.415859  
     504A      3.417105   505A      3.435162   506A      3.448991  
     507A      3.454002   508A      3.461343   509A      3.475620  
     510A      3.491944   511A      3.492809   512A      3.508645  
     513A      3.512402   514A      3.515517   515A      3.528720  
     516A      3.537425   517A      3.540527   518A      3.551087  
     519A      3.553731   520A      3.569258   521A      3.576705  
     522A      3.586302   523A      3.587601   524A      3.603109  
     525A      3.615632   526A      3.617496   527A      3.635019  
     528A      3.643660   529A      3.649441   530A      3.677092  
     531A      3.677293   532A      3.681474   533A      3.684069  
     534A      3.703114   535A      3.718153   536A      3.721723  
     537A      3.755885   538A      3.766742   539A      3.768798  
     540A      3.776101   541A      3.778636   542A      3.784697  
     543A      3.785141   544A      3.809494   545A      3.817515  
     546A      3.824873   547A      3.837098   548A      3.844997  
     549A      3.865032   550A      3.867988   551A      3.869052  
     552A      3.881991   553A      3.882529   554A      3.885286  
     555A      3.909748   556A      3.910371   557A      3.927792  
     558A      3.931542   559A      3.932908   560A      3.944956  
     561A      3.948284   562A      3.949589   563A      3.960511  
     564A      3.978322   565A      3.993452   566A      3.999255  
     567A      4.003680   568A      4.005802   569A      4.019952  
     570A      4.023950   571A      4.030122   572A      4.031561  
     573A      4.050378   574A      4.051650   575A      4.076067  
     576A      4.079160   577A      4.101471   578A      4.112755  
     579A      4.113604   580A      4.122280   581A      4.132692  
     582A      4.155891   583A      4.160300   584A      4.175309  
     585A      4.187965   586A      4.189716   587A      4.194921  
     588A      4.201480   589A      4.207441   590A      4.214244  
     591A      4.218564   592A      4.230595   593A      4.238353  
     594A      4.244981   595A      4.253398   596A      4.271723  
     597A      4.283083   598A      4.294091   599A      4.296169  
     600A      4.310890   601A      4.312418   602A      4.326349  
     603A      4.342508   604A      4.352388   605A      4.358484  
     606A      4.364743   607A      4.377806   608A      4.378774  
     609A      4.409995   610A      4.414697   611A      4.424545  
     612A      4.437735   613A      4.443380   614A      4.451130  
     615A      4.456992   616A      4.461987   617A      4.465613  
     618A      4.468855   619A      4.487381   620A      4.493211  
     621A      4.501966   622A      4.509892   623A      4.535288  
     624A      4.548030   625A      4.551136   626A      4.553642  
     627A      4.567123   628A      4.596472   629A      4.609335  
     630A      4.622276   631A      4.643575   632A      4.652059  
     633A      4.657306   634A      4.695712   635A      4.711392  
     636A      4.719909   637A      4.721395   638A      4.731210  
     639A      4.737321   640A      4.740352   641A      4.775992  
     642A      4.790200   643A      4.803982   644A      4.811167  
     645A      4.816719   646A      4.841617   647A      4.874414  
     648A      4.881307   649A      4.886953   650A      4.923208  
     651A      4.924016   652A      4.935768   653A      4.955389  
     654A      4.959453   655A      4.984565   656A      4.985440  
     657A      4.995732   658A      5.014820   659A      5.023945  
     660A      5.032159   661A      5.044557   662A      5.071080  
     663A      5.091692   664A      5.096804   665A      5.105619  
     666A      5.110339   667A      5.119585   668A      5.139213  
     669A      5.144551   670A      5.145983   671A      5.150086  
     672A      5.160215   673A      5.171163   674A      5.178304  
     675A      5.181690   676A      5.195304   677A      5.201308  
     678A      5.213145   679A      5.238840   680A      5.253680  
     681A      5.292991   682A      5.303416   683A      5.322480  
     684A      5.332982   685A      5.352332   686A      5.352709  
     687A      5.375993   688A      5.410427   689A      5.412170  
     690A      5.429474   691A      5.455394   692A      5.463738  
     693A      5.465013   694A      5.504132   695A      5.525421  
     696A      5.526307   697A      5.557361   698A      5.562795  
     699A      5.582752   700A      5.617737   701A      5.661146  
     702A      5.696830   703A      5.708280   704A      5.744691  
     705A      5.761723   706A      5.771529   707A      5.791898  
     708A      5.798954   709A      5.812370   710A      5.845277  
     711A      5.868745   712A      5.878962   713A      5.907122  
     714A      5.910540   715A      5.915467   716A      5.983421  
     717A      5.990618   718A      6.084527   719A      6.160230  
     720A      6.181507   721A      6.186319   722A      6.224149  
     723A      6.284591   724A      6.286211   725A      6.310270  
     726A      6.339898   727A      6.425135   728A      6.452572  
     729A      6.477216   730A      6.521668   731A      6.547861  
     732A      6.581167   733A      6.651139   734A      6.666987  
     735A      6.720300   736A      6.746392   737A      6.750347  
     738A      6.770363   739A      6.900957   740A      6.907218  
     741A      6.956539   742A      7.019492   743A      7.026968  
     744A      7.101058   745A      7.191805   746A      7.335953  
     747A      7.483309   748A     15.622210   749A     16.303034  
     750A     16.910152   751A     17.233386   752A     18.574859  
     753A     18.863308   754A     19.162826   755A     19.604020  
     756A     20.223947   757A     20.416253   758A     20.729190  
     759A     21.647256  

    Final Occupation by Irrep:
              A 
    DOCC [    41 ]

  Energy converged.

  @DF-RHF Final Energy:  -476.39161535638891

   => Energetics <=

    Nuclear Repulsion Energy =            607.4075556506544444
    One-Electron Energy =               -1848.4813513162687286
    Two-Electron Energy =                 764.6821803092254868
    DFT Exchange-Correlation Energy =       0.0000000000000000
    Empirical Dispersion Energy =           0.0000000000000000
    PCM Polarization Energy =               0.0000000000000000
    EFP Energy =                            0.0000000000000000
    Total Energy =                       -476.3916153563889111



Properties will be evaluated at   0.000000,   0.000000,   0.000000 Bohr

Properties computed using the SCF density matrix

  Nuclear Dipole Moment: (a.u.)
     X:     0.1274      Y:     0.0612      Z:    -4.3415

  Electronic Dipole Moment: (a.u.)
     X:    -0.0923      Y:    -0.0448      Z:     3.1806

  Dipole Moment: (a.u.)
     X:     0.0351      Y:     0.0164      Z:    -1.1609     Total:     1.1616

  Dipole Moment: (Debye)
     X:     0.0891      Y:     0.0416      Z:    -2.9507     Total:     2.9524


*** tstop() called on gpu-1-12.local at Sat Nov 11 09:46:46 2017
Module time:
	user time   =    1347.96 seconds =      22.47 minutes
	system time =      40.02 seconds =       0.67 minutes
	total time  =        374 seconds =       6.23 minutes
Total time:
	user time   =    1347.96 seconds =      22.47 minutes
	system time =      40.02 seconds =       0.67 minutes
	total time  =        374 seconds =       6.23 minutes

  //>>>>>>>>>>>>>>>>>>>>>>>>>>>>>>>>>>>//
  //               DFMP2               //
  //<<<<<<<<<<<<<<<<<<<<<<<<<<<<<<<<<<<//

   => Loading Basis Set <=

    Name: (AUG-CC-PVTZ AUX)
    Role: RIFIT
    Keyword: DF_BASIS_MP2
    atoms 1-11  entry C          line   147 file /cbio/jclab/home/chayas/anaconda/envs/py35/share/psi4/basis/aug-cc-pvtz-ri.gbs 
    atoms 12    entry N          line   205 file /cbio/jclab/home/chayas/anaconda/envs/py35/share/psi4/basis/aug-cc-pvtz-ri.gbs 
    atoms 13-21 entry H          line    29 file /cbio/jclab/home/chayas/anaconda/envs/py35/share/psi4/basis/aug-cc-pvtz-ri.gbs 

	 --------------------------------------------------------
	                          DF-MP2                         
	      2nd-Order Density-Fitted Moller-Plesset Theory     
	              RMP2 Wavefunction,   8 Threads             
	                                                         
	        Rob Parrish, Justin Turney, Andy Simmonett,      
	           Ed Hohenstein, and C. David Sherrill          
	 --------------------------------------------------------

   => Auxiliary Basis Set <=

  Basis Set: (AUG-CC-PVTZ AUX)
    Blend: AUG-CC-PVTZ-RI
    Number of shells: 462
    Number of basis function: 1686
    Number of Cartesian functions: 2127
    Spherical Harmonics?: true
    Max angular momentum: 4

	 --------------------------------------------------------
	                 NBF =   759, NAUX =  1686
	 --------------------------------------------------------
	   CLASS    FOCC     OCC    AOCC    AVIR     VIR    FVIR
	   PAIRS       0      41      41     718     718       0
	 --------------------------------------------------------


         ------------------------------------------------------------
                                     CPHF                           
                                  Rob Parrish                       
         ------------------------------------------------------------

  ==> Geometry <==

    Molecular point group: c1
    Full point group: C1

    Geometry (in Angstrom), charge = 0, multiplicity = 1:

       Center              X                  Y                   Z               Mass       
    ------------   -----------------  -----------------  -----------------  -----------------
           C          0.108395310369     0.054565555319    -3.526029730693    12.000000000000
           C         -0.969604689631     0.627565555319    -2.853029730693    12.000000000000
           C          1.144395310369    -0.540434444681    -2.806029730693    12.000000000000
           C         -1.012604689631     0.606565555319    -1.459029730693    12.000000000000
           C          1.101395310369    -0.561434444681    -1.412029730693    12.000000000000
           C         -1.209604689631     0.268565555319     1.373970269307    12.000000000000
           C          1.123395310369    -0.310434444681     1.436970269307    12.000000000000
           C         -1.200604689631     0.232565555319     2.758970269307    12.000000000000
           C          1.028395310369    -0.320434444681     2.818970269307    12.000000000000
           C          0.023395310369     0.011565555319    -0.738029730693    12.000000000000
           C         -0.021604689631    -0.009434444681     0.707970269307    12.000000000000
           N         -0.108604689631    -0.055434444681     3.500970269307    14.003074004780
           H          0.140395310369     0.069565555319    -4.612029730693     1.007825032070
           H         -1.777604689631     1.088565555319    -3.414029730693     1.007825032070
           H          1.983395310369    -0.988434444681    -3.330029730693     1.007825032070
           H         -1.860604689631     1.057565555319    -0.948029730693     1.007825032070
           H          1.916395310369    -1.029434444681    -0.864029730693     1.007825032070
           H         -2.124604689631     0.506565555319     0.838970269307     1.007825032070
           H          2.068395310369    -0.532434444681     0.950970269307     1.007825032070
           H         -2.102604689631     0.440565555319     3.324970269307     1.007825032070
           H          1.892395310369    -0.547434444681     3.432970269307     1.007825032070

  Nuclear repulsion =  607.407555650654444
  Reference energy  = -476.391615356388911

  ==> Basis Set <==

  Basis Set: AUG-CC-PVTZ
    Blend: AUG-CC-PVTZ
    Number of shells: 249
    Number of basis function: 759
    Number of Cartesian functions: 885
    Spherical Harmonics?: true
    Max angular momentum: 3

  ==> CGRSolver (by Rob Parrish) <==

   Number of roots    =         1
   Preconditioning    =    JACOBI
   Convergence cutoff =     1E-06
   Maximum iterations =       100

  ==> CPHFRHamiltonian (by Rob Parrish) <== 

  ==> DFJK: Density-Fitted J/K Matrices <==

    J tasked:                  Yes
    K tasked:                  Yes
    wK tasked:                  No
    OpenMP threads:              8
    Integrals threads:           8
    Memory (MB):               375
    Algorithm:                Disk
    Integral Cache:           NONE
    Schwarz Cutoff:          1E-12
    Fitting Condition:       1E-12

   => Auxiliary Basis Set <=

  Basis Set: (AUG-CC-PVTZ AUX)
    Blend: AUG-CC-PVTZ-JKFIT
    Number of shells: 486
    Number of basis function: 1662
    Number of Cartesian functions: 2067
    Spherical Harmonics?: true
    Max angular momentum: 4

  ==> CPHF Iterations <==

  => Iterations <=

             Iter  Converged  Remaining    Residual
  CGR           1          0          1   8.342E-02
  CGR           2          0          1   3.260E-02
  CGR           3          0          1   2.299E-02
  CGR           4          0          1   9.554E-03
  CGR           5          0          1   2.880E-03
  CGR           6          0          1   1.175E-03
  CGR           7          0          1   5.456E-04
  CGR           8          0          1   2.360E-04
  CGR           9          0          1   1.077E-04
  CGR          10          0          1   3.965E-05
  CGR          11          0          1   8.732E-06
  CGR          12          0          1   3.312E-06
  CGR          13          1          0   8.640E-07

    CGRSolver converged.

  ==> DFCorrGrad: Density-Fitted Correlated Gradients <==

    OpenMP threads:              8
    Integrals threads:           8
    Memory (MB):               375
    Schwarz Cutoff:          0E+00
    Fitting Condition:       1E-12

   => Auxiliary Basis Set <=

  Basis Set: (AUG-CC-PVTZ AUX)
    Blend: AUG-CC-PVTZ-JKFIT
    Number of shells: 486
    Number of basis function: 1662
    Number of Cartesian functions: 2067
    Spherical Harmonics?: true
    Max angular momentum: 4

	-----------------------------------------------------------
	 ==================> DF-MP2 Energies <==================== 
	-----------------------------------------------------------
	 Reference Energy          =    -476.3916153563889111 [Eh]
	 Singles Energy            =      -0.0000000000000001 [Eh]
	 Same-Spin Energy          =      -0.5358407360625133 [Eh]
	 Opposite-Spin Energy      =      -1.6446827301736755 [Eh]
	 Correlation Energy        =      -2.1805234662361888 [Eh]
	 Total Energy              =    -478.5721388226251065 [Eh]
	-----------------------------------------------------------
	 ================> DF-SCS-MP2 Energies <================== 
	-----------------------------------------------------------
	 SCS Same-Spin Scale       =       0.3333333333333333 [-]
	 SCS Opposite-Spin Scale   =       1.2000000000000000 [-]
	 SCS Same-Spin Energy      =      -0.1786135786875044 [Eh]
	 SCS Opposite-Spin Energy  =      -1.9736192762084106 [Eh]
	 SCS Correlation Energy    =      -2.1522328548959151 [Eh]
	 SCS Total Energy          =    -478.5438482112848533 [Eh]
	-----------------------------------------------------------


  -Total Gradient:
     Atom            X                  Y                   Z
    ------   -----------------  -----------------  -----------------
       1       -0.000443818157     0.000407882947     0.000702382976
       2       -0.000086706159     0.000653546556    -0.002711866407
       3        0.001139694242    -0.000894266233    -0.002542002231
       4        0.000698077777     0.000217029731     0.012625326625
       5       -0.002037238932    -0.000181945949     0.012683873328
       6       -0.002976487859     0.000358898891    -0.010736162261
       7        0.004286232870    -0.000111278134    -0.010572230848
       8       -0.006839871050     0.001760622848    -0.009910600220
       9        0.008280888446    -0.001828685199    -0.009494727244
      10        0.000431255248    -0.000693604898     0.006068413586
      11       -0.000326883235     0.000193799695     0.004449364569
      12       -0.000868217815    -0.000120185324     0.015820523421
      13        0.000083057690     0.000028650688    -0.004907493096
      14       -0.003817045005     0.001768227371    -0.002449361176
      15        0.003682278260    -0.001772076404    -0.002132498253
      16       -0.007031043131     0.001943113097     0.004382454507
      17        0.006690872895    -0.002066654717     0.004730889980
      18       -0.005573203410     0.002996262711    -0.004925762098
      19        0.005375578778    -0.002763128992    -0.004594133213
      20       -0.001861537108     0.000502626066     0.001870147674
      21        0.001194115658    -0.000398834751     0.001643460385


*** tstop() called on gpu-1-12.local at Sat Nov 11 10:12:51 2017
Module time:
	user time   =    6276.05 seconds =     104.60 minutes
	system time =      98.04 seconds =       1.63 minutes
	total time  =       1939 seconds =      32.32 minutes
Total time:
	user time   =    6276.05 seconds =     104.60 minutes
	system time =      98.04 seconds =       1.63 minutes
	total time  =       1939 seconds =      32.32 minutes

			-----------------------------------------
			 OPTKING 2.0: for geometry optimizations 
			  - R.A. King,  Bethel University        
			-----------------------------------------

	Internal coordinates to be generated automatically.
	Detected frag 1 with atoms:  1 2 3 4 5 6 7 8 9 10 11 12 13 14 15 16 17 18 19 20
	 21
	---Fragment 1 Bond Connectivity---
	 1 : 2 3 13
	 2 : 1 4 14
	 3 : 1 5 15
	 4 : 2 10 16
	 5 : 3 10 17
	 6 : 8 11 18
	 7 : 9 11 19
	 8 : 6 12 20
	 9 : 7 12 21
	 10 : 4 5 11
	 11 : 6 7 10
	 12 : 8 9
	 13 : 1
	 14 : 2
	 15 : 3
	 16 : 4
	 17 : 5
	 18 : 6
	 19 : 7
	 20 : 8
	 21 : 9

	Assuming in current code that numbering for constraints corresponds to unified fragment.
	Fixed dihedral atom list: 
	     4    10    11     6
	---Fragment 1 Geometry and Gradient---
	 C           0.2048374507        0.1031139558       -6.6632305274
	 C          -1.8322873206        1.1859270300       -5.3914448400
	 C           2.1625937244       -1.0212730932       -5.3026277117
	 C          -1.9135455443        1.1462427812       -2.7571666107
	 C           2.0813355006       -1.0609573420       -2.6683494825
	 C          -2.2858215925        0.5075153483        2.5964275237
	 C           2.1229094756       -0.5866360827        2.7154802701
	 C          -2.2688140573        0.4394852075        5.2136982178
	 C           1.9433854929       -0.6055333440        5.3270817857
	 C           0.0442107294        0.0218557321       -1.3946740689
	 C          -0.0408269466       -0.0178285167        1.3378699192
	 N          -0.2052331201       -0.1047559188        6.6158750084
	 H           0.2653086869        0.1314598478       -8.7154731077
	 H          -3.3591860359        2.0570907772       -6.4515812005
	 H           3.7480739498       -1.8678704008       -6.2928442054
	 H          -3.5160333050        1.9985092671       -1.7915165568
	 H           3.6214622989       -1.9453491722       -1.6327795617
	 H          -4.0149210040        0.9572701679        1.5854240426
	 H           3.9087006711       -1.0061552842        1.7970733695
	 H          -3.9733470291        0.8325482431        6.2832832090
	 H           3.5761088718       -1.0345011762        6.4873736313
	            -0.0004438182        0.0004078829        0.0007023830
	            -0.0000867062        0.0006535466       -0.0027118664
	             0.0011396942       -0.0008942662       -0.0025420022
	             0.0006980778        0.0002170297        0.0126253266
	            -0.0020372389       -0.0001819459        0.0126838733
	            -0.0029764879        0.0003588989       -0.0107361623
	             0.0042862329       -0.0001112781       -0.0105722308
	            -0.0068398711        0.0017606228       -0.0099106002
	             0.0082808884       -0.0018286852       -0.0094947272
	             0.0004312552       -0.0006936049        0.0060684136
	            -0.0003268832        0.0001937997        0.0044493646
	            -0.0008682178       -0.0001201853        0.0158205234
	             0.0000830577        0.0000286507       -0.0049074931
	            -0.0038170450        0.0017682274       -0.0024493612
	             0.0036822783       -0.0017720764       -0.0021324983
	            -0.0070310431        0.0019431131        0.0043824545
	             0.0066908729       -0.0020666547        0.0047308900
	            -0.0055732034        0.0029962627       -0.0049257621
	             0.0053755788       -0.0027631290       -0.0045941332
	            -0.0018615371        0.0005026261        0.0018701477
	             0.0011941157       -0.0003988348        0.0016434604

	Previous optimization step data not found.  Starting new optimization.

	---Fragment 1 Intrafragment Coordinates---
	 - Coordinate -           - BOHR/RAD -       - ANG/DEG -
	 R(1,2)           =         2.634350	       1.394038
	 R(1,3)           =         2.635962	       1.394891
	 R(1,13)          =         2.053329	       1.086575
	 R(2,4)           =         2.635830	       1.394821
	 R(2,14)          =         2.052860	       1.086327
	 R(3,5)           =         2.635830	       1.394821
	 R(3,15)          =         2.052073	       1.085910
	 R(4,10)          =         2.636938	       1.395407
	 R(4,16)          =         2.055920	       1.087946
	 R(5,10)          =         2.635263	       1.394521
	 R(5,17)          =         2.055856	       1.087912
	 R(6,8)           =         2.618210	       1.385497
	 R(6,11)          =         2.626776	       1.390030
	 R(6,18)          =         2.052850	       1.086321
	 R(7,9)           =         2.617833	       1.385297
	 R(7,11)          =         2.627377	       1.390348
	 R(7,19)          =         2.051467	       1.085590
	 R(8,12)          =         2.553559	       1.351285
	 R(8,20)          =         2.050352	       1.085000
	 R(9,12)          =         2.555059	       1.352079
	 R(9,21)          =         2.048433	       1.083984
	 R(10,11)         =         2.734155	       1.446852
	 B(1,2,4)         =         2.094553	     120.009056
	 B(1,2,14)        =         2.094726	     120.018942
	 B(1,3,5)         =         2.093692	     119.959722
	 B(1,3,15)        =         2.095250	     120.048965
	 B(2,1,3)         =         2.094940	     120.031219
	 B(2,1,13)        =         2.093950	     119.974480
	 B(2,4,10)        =         2.094306	     119.994870
	 B(2,4,16)        =         2.079681	     119.156970
	 B(3,1,13)        =         2.094293	     119.994160
	 B(3,5,10)        =         2.095181	     120.045019
	 B(3,5,17)        =         2.079222	     119.130634
	 B(4,2,14)        =         2.093904	     119.971849
	 B(4,10,5)        =         2.093699	     119.960108
	 B(4,10,11)       =         2.093804	     119.966144
	 B(5,3,15)        =         2.094242	     119.991253
	 B(5,10,11)       =         2.095682	     120.073736
	 B(6,8,12)        =         2.164817	     124.034856
	 B(6,8,20)        =         2.107250	     120.736505
	 B(6,11,7)        =         2.089688	     119.730311
	 B(6,11,10)       =         2.097311	     120.167045
	 B(7,9,12)        =         2.164532	     124.018559
	 B(7,9,21)        =         2.108229	     120.792623
	 B(7,11,10)       =         2.096185	     120.102532
	 B(8,6,11)        =         2.058056	     117.917912
	 B(8,6,18)        =         2.098413	     120.230186
	 B(8,12,9)        =         2.031265	     116.382904
	 B(9,7,11)        =         2.058013	     117.915451
	 B(9,7,19)        =         2.099990	     120.320554
	 B(10,4,16)       =         2.109198	     120.848149
	 B(10,5,17)       =         2.108782	     120.824331
	 B(11,6,18)       =         2.126716	     121.851825
	 B(11,7,19)       =         2.125183	     121.763994
	 B(12,8,20)       =         2.011119	     115.228607
	 B(12,9,21)       =         2.010423	     115.188735
	 D(1,2,4,10)      =        -0.000325	      -0.018609
	 D(1,2,4,16)      =        -3.141283	    -179.982244
	 D(1,3,5,10)      =         0.000325	       0.018608
	 D(1,3,5,17)      =         3.141117	     179.972749
	 D(2,1,3,5)       =        -0.000348	      -0.019945
	 D(2,1,3,15)      =         3.139689	     179.890913
	 D(2,4,10,5)      =         0.000301	       0.017261
	 D(2,4,10,11)     =         3.141198	     179.977407
	 D(3,1,2,4)       =         0.000348	       0.019955
	 D(3,1,2,14)      =        -3.138767	    -179.838124
	 D(3,5,10,4)      =        -0.000301	      -0.017270
	 D(3,5,10,11)     =        -3.141198	    -179.977373
	 D(4,2,1,13)      =         3.139559	     179.883471
	 D(4,10,5,17)     =        -3.141080	    -179.970623
	 D(4,10,11,6)     =         0.262934	      15.064992
	 D(4,10,11,7)     =        -2.880789	    -165.057031
	 D(5,3,1,13)      =        -3.139558	    -179.883434
	 D(5,10,4,16)     =         3.141248	     179.980271
	 D(5,10,11,6)     =        -2.879355	    -164.974908
	 D(5,10,11,7)     =         0.260108	      14.903069
	 D(6,8,12,9)      =        -0.000484	      -0.027734
	 D(6,11,7,9)      =         0.000147	       0.008400
	 D(6,11,7,19)     =        -3.141391	    -179.988431
	 D(7,9,12,8)      =         0.000320	       0.018363
	 D(7,11,6,8)      =        -0.000293	      -0.016794
	 D(7,11,6,18)     =        -3.140131	    -179.916241
	 D(8,6,11,10)     =         3.139178	     179.861639
	 D(8,12,9,21)     =         3.140095	     179.914206
	 D(9,7,11,10)     =        -3.139326	    -179.870112
	 D(9,12,8,20)     =         3.139981	     179.907637
	 D(10,4,2,14)     =         3.138792	     179.839537
	 D(10,5,3,15)     =        -3.139713	    -179.892302
	 D(10,11,6,18)    =        -0.000660	      -0.037808
	 D(10,11,7,19)    =         0.002322	       0.133057
	 D(11,6,8,12)     =         0.000481	       0.027547
	 D(11,6,8,20)     =        -3.139925	    -179.904434
	 D(11,7,9,12)     =        -0.000165	      -0.009427
	 D(11,7,9,21)     =        -3.139842	    -179.899706
	 D(11,10,4,16)    =        -0.001040	      -0.059583
	 D(11,10,5,17)    =         0.001209	       0.069274
	 D(12,8,6,18)     =         3.140348	     179.928693
	 D(12,9,7,19)     =         3.141374	     179.987452
	 D(13,1,2,14)     =         0.000443	       0.025392
	 D(13,1,3,15)     =         0.000479	       0.027424
	 D(14,2,4,16)     =        -0.002166	      -0.124098
	 D(15,3,5,17)     =         0.001079	       0.061840
	 D(18,6,8,20)     =        -0.000057	      -0.003289
	 D(19,7,9,21)     =         0.001696	       0.097173

	Current energy   :      -478.5721388226

	Generating empirical Hessian (Schlegel '84) for each fragment.
	Adding user-defined constraint: Fragment 1; Coordinate 71:
		Value =     0.262934; Fixed value    =     0.261799
		Force =    -0.000567; Force constant =     0.500000
	Removing off-diagonal coupling between coordinate 71 and others.
	Taking RFO optimization step.
	Going to follow RFO solution 1.
	Using RFO vector 1.

	Determining step-restricting scale parameter for RS-RFO.
	Maximum step size allowed    0.10000

	 Iter      |step|        alpha        rfo_root  
	------------------------------------------------
	    0     0.23278       1.00000           1
	    1     0.17510       4.19523           1
	    2     0.13756      13.04063           1
	    3     0.11268      28.31472           1
	    4     0.10209      39.54792           1
	    5     0.10007      42.18128           1
	    6     0.10000      42.27869           1
	------------------------------------------------
	Norm of target step-size    0.10000
	Projected energy change by RFO approximation:        -0.0053649491

	Back-transformation to cartesian coordinates...
	Could not converge backtransformation.
	Using first guess instead.

	--- Internal Coordinate Step in ANG or DEG, aJ/ANG or AJ/DEG ---
	 ---------------------------------------------------------------------------
	   Coordinate                Previous        Force       Change         New 
	   ----------                --------       ------       ------       ------
	    1 R(1,2)          =      1.394038    -0.061139    -0.005819     1.388219
	    2 R(1,3)          =      1.394891    -0.066692    -0.006345     1.388546
	    3 R(1,13)         =      1.086575    -0.040433    -0.004477     1.082098
	    4 R(2,4)          =      1.394821    -0.057912    -0.005368     1.389453
	    5 R(2,14)         =      1.086327    -0.039994    -0.004418     1.081908
	    6 R(3,5)          =      1.394821    -0.057864    -0.005364     1.389457
	    7 R(3,15)         =      1.085910    -0.037940    -0.004187     1.081723
	    8 R(4,10)         =      1.395407     0.016759     0.001850     1.397257
	    9 R(4,16)         =      1.087946    -0.068746    -0.007586     1.080360
	   10 R(5,10)         =      1.394521     0.021905     0.002327     1.396848
	   11 R(5,17)         =      1.087912    -0.068253    -0.007525     1.080387
	   12 R(6,8)          =      1.385497    -0.001338    -0.000133     1.385364
	   13 R(6,11)         =      1.390030     0.028180     0.003243     1.393273
	   14 R(6,18)         =      1.086321    -0.064069    -0.006984     1.079337
	   15 R(7,9)          =      1.385297    -0.001003    -0.000112     1.385185
	   16 R(7,11)         =      1.390348     0.027624     0.003202     1.393550
	   17 R(7,19)         =      1.085590    -0.060152    -0.006527     1.079062
	   18 R(8,12)         =      1.351285    -0.129710    -0.011074     1.340211
	   19 R(8,20)         =      1.085000    -0.021581    -0.002372     1.082627
	   20 R(9,12)         =      1.352079    -0.133626    -0.011427     1.340652
	   21 R(9,21)         =      1.083984    -0.016199    -0.001772     1.082212
	   22 R(10,11)        =      1.446852     0.218034     0.022788     1.469640
	   23 B(1,2,4)        =    120.009056     0.000115     0.148220   120.157276
	   24 B(1,2,14)       =    120.018942    -0.000064    -0.085746   119.933197
	   25 B(1,3,5)        =    119.959722     0.000125     0.163993   120.123715
	   26 B(1,3,15)       =    120.048965    -0.000070    -0.096687   119.952278
	   27 B(2,1,3)        =    120.031219    -0.000150    -0.328391   119.702828
	   28 B(2,1,13)       =    119.974480     0.000078     0.169394   120.143874
	   29 B(2,4,10)       =    119.994870     0.000449     0.766397   120.761267
	   30 B(2,4,16)       =    119.156970    -0.000270    -0.474664   118.682306
	   31 B(3,1,13)       =    119.994160     0.000072     0.158989   120.153149
	   32 B(3,5,10)       =    120.045019     0.000441     0.751774   120.796793
	   33 B(3,5,17)       =    119.130634    -0.000267    -0.470697   118.659936
	   34 B(4,2,14)       =    119.971849    -0.000052    -0.062382   119.909468
	   35 B(4,10,5)       =    119.960108    -0.000980    -1.502033   118.458076
	   36 B(4,10,11)      =    119.966144     0.000503     0.771461   120.737605
	   37 B(5,3,15)       =    119.991253    -0.000055    -0.067391   119.923862
	   38 B(5,10,11)      =    120.073736     0.000477     0.730486   120.804222
	   39 B(6,8,12)       =    124.034856     0.000102     0.092456   124.127312
	   40 B(6,8,20)       =    120.736505    -0.000097    -0.135381   120.601124
	   41 B(6,11,7)       =    119.730311    -0.001526    -2.290427   117.439884
	   42 B(6,11,10)      =    120.167045     0.000756     1.134479   121.301524
	   43 B(7,9,12)       =    124.018559     0.000103     0.092299   124.110858
	   44 B(7,9,21)       =    120.792623    -0.000102    -0.143765   120.648857
	   45 B(7,11,10)      =    120.102532     0.000770     1.156048   121.258580
	   46 B(8,6,11)       =    117.917912     0.000662     1.160793   119.078705
	   47 B(8,6,18)       =    120.230186    -0.000432    -0.783826   119.446360
	   48 B(8,12,9)       =    116.382904    -0.000009    -0.224650   116.158254
	   49 B(9,7,11)       =    117.915451     0.000668     1.169462   119.084914
	   50 B(9,7,19)       =    120.320554    -0.000447    -0.810104   119.510450
	   51 B(10,4,16)      =    120.848149    -0.000180    -0.291960   120.556190
	   52 B(10,5,17)      =    120.824331    -0.000174    -0.281460   120.542871
	   53 B(11,6,18)      =    121.851825    -0.000230    -0.377524   121.474302
	   54 B(11,7,19)      =    121.763994    -0.000222    -0.359620   121.404375
	   55 B(12,8,20)      =    115.228607    -0.000005     0.042885   115.271492
	   56 B(12,9,21)      =    115.188735    -0.000001     0.051368   115.240104
	   57 D(1,2,4,10)     =     -0.018609     0.000004     0.065166     0.046557
	   58 D(1,2,4,16)     =   -179.982244    -0.000012    -0.147359  -180.129603
	   59 D(1,3,5,10)     =      0.018608     0.000001     0.002228     0.020836
	   60 D(1,3,5,17)     =    179.972749    -0.000013    -0.180444   179.792306
	   61 D(2,1,3,5)      =     -0.019945    -0.000002    -0.027728    -0.047673
	   62 D(2,1,3,15)     =    179.890913    -0.000005    -0.077057   179.813856
	   63 D(2,4,10,5)     =      0.017261    -0.000005    -0.089613    -0.072352
	   64 D(2,4,10,11)    =    179.977407     0.000003     0.063081   180.040488
	   65 D(3,1,2,4)      =      0.019955    -0.000001    -0.005676     0.014279
	   66 D(3,1,2,14)     =   -179.838124    -0.000005    -0.059034  -179.897158
	   67 D(3,5,10,4)     =     -0.017270     0.000003     0.056013     0.038743
	   68 D(3,5,10,11)    =   -179.977373    -0.000005    -0.096802  -180.074175
	   69 D(4,2,1,13)     =    179.883471    -0.000001    -0.009191   179.874279
	   70 D(4,10,5,17)    =   -179.970623     0.000017     0.242203  -179.728420
	   71 D(4,10,11,6)    =     15.064992     0.000020     0.151957    15.216949
	   72 D(4,10,11,7)    =   -165.057031     0.000028     0.316554  -164.740477
	   73 D(5,3,1,13)     =   -179.883434    -0.000002    -0.024227  -179.907660
	   74 D(5,10,4,16)    =    179.980271     0.000011     0.126844   180.107115
	   75 D(5,10,11,6)    =   -164.974908     0.000028     0.307356  -164.667553
	   76 D(5,10,11,7)    =     14.903069     0.000036     0.471952    15.375022
	   77 D(6,8,12,9)     =     -0.027734    -0.000000     0.000439    -0.027295
	   78 D(6,11,7,9)     =      0.008400     0.000002     0.052275     0.060675
	   79 D(6,11,7,19)    =   -179.988431     0.000017     0.236184  -179.752247
	   80 D(7,9,12,8)     =      0.018363    -0.000002    -0.036354    -0.017991
	   81 D(7,11,6,8)     =     -0.016794    -0.000005    -0.084861    -0.101654
	   82 D(7,11,6,18)    =   -179.916241     0.000009     0.105731  -179.810510
	   83 D(8,6,11,10)    =    179.861639     0.000004     0.077714   179.939353
	   84 D(8,12,9,21)    =    179.914206    -0.000006    -0.086574   179.827631
	   85 D(9,7,11,10)    =   -179.870112    -0.000006    -0.110202  -179.980314
	   86 D(9,12,8,20)    =    179.907637    -0.000003    -0.031774   179.875863
	   87 D(10,4,2,14)    =    179.839537     0.000008     0.118478   179.958015
	   88 D(10,5,3,15)    =   -179.892302     0.000004     0.051570  -179.840732
	   89 D(10,11,6,18)   =     -0.037808     0.000018     0.268305     0.230498
	   90 D(10,11,7,19)   =      0.133057     0.000008     0.073707     0.206764
	   91 D(11,6,8,12)    =      0.027547     0.000004     0.061544     0.089091
	   92 D(11,6,8,20)    =   -179.904434     0.000007     0.095268  -179.809166
	   93 D(11,7,9,12)    =     -0.009427     0.000001     0.009427     0.000000
	   94 D(11,7,9,21)    =   -179.899706     0.000005     0.061836  -179.837870
	   95 D(11,10,4,16)   =     -0.059583     0.000019     0.279537     0.219954
	   96 D(11,10,5,17)   =      0.069274     0.000009     0.089388     0.158663
	   97 D(12,8,6,18)    =    179.928693    -0.000010    -0.124747   179.803946
	   98 D(12,9,7,19)    =    179.987452    -0.000013    -0.171111   179.816341
	   99 D(13,1,2,14)    =      0.025392    -0.000005    -0.062549    -0.037158
	  100 D(13,1,3,15)    =      0.027424    -0.000005    -0.073556    -0.046131
	  101 D(14,2,4,16)    =     -0.124098    -0.000007    -0.094047    -0.218145
	  102 D(15,3,5,17)    =      0.061840    -0.000010    -0.131102    -0.069263
	  103 D(18,6,8,20)    =     -0.003289    -0.000007    -0.091023    -0.094312
	  104 D(19,7,9,21)    =      0.097173    -0.000009    -0.118519    -0.021346
	 ---------------------------------------------------------------------------
	Successfully symmetrized geometry.
	 Forces used to impose fixed constraints are not included.
	  Forces zeroed: 71 

  ==> Convergence Check <==

  Measures of convergence in internal coordinates in au.
  Criteria marked as inactive (o), active & met (*), and active & unmet ( ).
  --------------------------------------------------------------------------------------------- ~
   Step     Total Energy     Delta E     MAX Force     RMS Force      MAX Disp      RMS Disp    ~
  --------------------------------------------------------------------------------------------- ~
    Convergence Criteria    1.00e-06 *    3.00e-04 *             o    1.20e-03 *             o  ~
  --------------------------------------------------------------------------------------------- ~
      1    -478.57213882   -4.79e+02      2.65e-02      5.40e-03 o    4.31e-02      9.80e-03 o  ~
  ---------------------------------------------------------------------------------------------

	Writing optimization data to binary file.
	Structure for next step:
	Cartesian Geometry (in Angstrom)
	    C     0.1093327693   0.0550530618  -3.5536090289
	    C    -0.9608918924   0.6276026709  -2.8798439001
	    C     1.1370192303  -0.5394904688  -2.8335821879
	    C    -1.0035572668   0.6061909625  -1.4912115081
	    C     1.0943511920  -0.5600995008  -1.4449330909
	    C    -1.2004155256   0.2618671617   1.4066316286
	    C     1.1119907309  -0.3051062792   1.4695182211
	    C    -1.1919724278   0.2260217606   2.7915056683
	    C     1.0174684092  -0.3148104339   2.8514406500
	    C     0.0240852270   0.0125651077  -0.7537244837
	    C    -0.0220054749  -0.0105682300   0.7150106698
	    N    -0.1095593369  -0.0559398866   3.5297778531
	    H     0.1413434881   0.0700565425  -4.6351293912
	    H    -1.7644648635   1.0903793726  -3.4371895545
	    H     1.9714086453  -0.9894990550  -3.3545532132
	    H    -1.8465924619   1.0606526261  -0.9912783917
	    H     1.9048594359  -1.0319277881  -0.9085656998
	    H    -2.1175497825   0.4948684357   0.8874549162
	    H     2.0590448449  -0.5219213366   0.9999913696
	    H    -2.0943247876   0.4306460169   3.3536186311
	    H     1.8827313648  -0.5376640784   3.4620464976
			--------------------------
			 OPTKING Finished Execution 
			--------------------------

    Structure for next step:
    Molecular point group: c1
    Full point group: C1

    Geometry (in Angstrom), charge = 0, multiplicity = 1:

    C            0.109408760312     0.055095084669    -3.554217691698
    C           -0.960815901413     0.627644693766    -2.880452562823
    C            1.137095221313    -0.539448445867    -2.834190850678
    C           -1.003481275782     0.606232985362    -1.491820170843
    C            1.094427183014    -0.560057477963    -1.445541753649
    C           -1.200339534538     0.261909184628     1.406022965879
    C            1.112066721930    -0.305064256267     1.468909558294
    C           -1.191896436806     0.226063783455     2.790897005571
    C            1.017544400216    -0.314768410984     2.850831987211
    C            0.024161218010     0.012607130564    -0.754333146489
    C           -0.021929483860    -0.010526207096     0.714402007029
    N           -0.109483345887    -0.055897863693     3.529169190389
    H            0.141419479125     0.070098565354    -4.635738053970
    H           -1.764388872436     1.090421395501    -3.437798217216
    H            1.971484636292    -0.989457032084    -3.355161875913
    H           -1.846516470846     1.060694649031    -0.991887054466
    H            1.904935426922    -1.031885765190    -0.909174362601
    H           -2.117473791467     0.494910458546     0.886846253391
    H            2.059120835886    -0.521879313733     0.999382706889
    H           -2.094248796601     0.430688039819     3.353009968384
    H            1.882807355774    -0.537622055538     3.461437834810

gradient() will perform analytic gradient computation.

*** tstart() called on gpu-1-12.local
*** at Sat Nov 11 10:12:52 2017

    SCF Algorithm Type (re)set to DF.

*** tstart() called on gpu-1-12.local
*** at Sat Nov 11 10:12:52 2017

   => Loading Basis Set <=

    Name: AUG-CC-PVTZ
    Role: ORBITAL
    Keyword: BASIS
    atoms 1-11  entry C          line   221 file /cbio/jclab/home/chayas/anaconda/envs/py35/share/psi4/basis/aug-cc-pvtz.gbs 
    atoms 12    entry N          line   267 file /cbio/jclab/home/chayas/anaconda/envs/py35/share/psi4/basis/aug-cc-pvtz.gbs 
    atoms 13-21 entry H          line    34 file /cbio/jclab/home/chayas/anaconda/envs/py35/share/psi4/basis/aug-cc-pvtz.gbs 


         ---------------------------------------------------------
                                   SCF
            by Justin Turney, Rob Parrish, and Andy Simmonett
                              RHF Reference
                        8 Threads,    500 MiB Core
         ---------------------------------------------------------

  ==> Geometry <==

    Molecular point group: c1
    Full point group: C1

    Geometry (in Angstrom), charge = 0, multiplicity = 1:

       Center              X                  Y                   Z               Mass       
    ------------   -----------------  -----------------  -----------------  -----------------
           C          0.109408760312     0.055095084669    -3.554217691698    12.000000000000
           C         -0.960815901413     0.627644693766    -2.880452562823    12.000000000000
           C          1.137095221313    -0.539448445867    -2.834190850678    12.000000000000
           C         -1.003481275782     0.606232985362    -1.491820170843    12.000000000000
           C          1.094427183014    -0.560057477963    -1.445541753649    12.000000000000
           C         -1.200339534538     0.261909184628     1.406022965879    12.000000000000
           C          1.112066721930    -0.305064256267     1.468909558294    12.000000000000
           C         -1.191896436806     0.226063783455     2.790897005571    12.000000000000
           C          1.017544400216    -0.314768410984     2.850831987211    12.000000000000
           C          0.024161218010     0.012607130564    -0.754333146489    12.000000000000
           C         -0.021929483860    -0.010526207096     0.714402007029    12.000000000000
           N         -0.109483345887    -0.055897863693     3.529169190389    14.003074004780
           H          0.141419479125     0.070098565354    -4.635738053970     1.007825032070
           H         -1.764388872436     1.090421395501    -3.437798217216     1.007825032070
           H          1.971484636292    -0.989457032084    -3.355161875913     1.007825032070
           H         -1.846516470846     1.060694649031    -0.991887054466     1.007825032070
           H          1.904935426922    -1.031885765190    -0.909174362601     1.007825032070
           H         -2.117473791467     0.494910458546     0.886846253391     1.007825032070
           H          2.059120835886    -0.521879313733     0.999382706889     1.007825032070
           H         -2.094248796601     0.430688039819     3.353009968384     1.007825032070
           H          1.882807355774    -0.537622055538     3.461437834810     1.007825032070

  Running in c1 symmetry.

  Rotational constants: A =      0.09884  B =      0.01866  C =      0.01579 [cm^-1]
  Rotational constants: A =   2963.03786  B =    559.50205  C =    473.31102 [MHz]
  Nuclear repulsion =  605.831729184329561

  Charge       = 0
  Multiplicity = 1
  Electrons    = 82
  Nalpha       = 41
  Nbeta        = 41

  ==> Algorithm <==

  SCF Algorithm Type is DF.
  DIIS enabled.
  MOM disabled.
  Fractional occupation disabled.
  Guess Type is READ.
  Energy threshold   = 1.00e-10
  Density threshold  = 1.00e-10
  Integral threshold = 0.00e+00

  ==> Primary Basis <==

  Basis Set: AUG-CC-PVTZ
    Blend: AUG-CC-PVTZ
    Number of shells: 249
    Number of basis function: 759
    Number of Cartesian functions: 885
    Spherical Harmonics?: true
    Max angular momentum: 3

   => Loading Basis Set <=

    Name: (AUG-CC-PVTZ AUX)
    Role: JKFIT
    Keyword: DF_BASIS_SCF
    atoms 1-11  entry C          line   161 file /cbio/jclab/home/chayas/anaconda/envs/py35/share/psi4/basis/aug-cc-pvtz-jkfit.gbs 
    atoms 12    entry N          line   223 file /cbio/jclab/home/chayas/anaconda/envs/py35/share/psi4/basis/aug-cc-pvtz-jkfit.gbs 
    atoms 13-21 entry H          line    69 file /cbio/jclab/home/chayas/anaconda/envs/py35/share/psi4/basis/aug-cc-pvtz-jkfit.gbs 

  Reading orbitals from file 180, no projection.

  ==> Pre-Iterations <==

   -------------------------------------------------------
    Irrep   Nso     Nmo     Nalpha   Nbeta   Ndocc  Nsocc
   -------------------------------------------------------
     A        759     759       0       0       0       0
   -------------------------------------------------------
    Total     759     759      41      41      41       0
   -------------------------------------------------------

  ==> Integral Setup <==

  ==> DFJK: Density-Fitted J/K Matrices <==

    J tasked:                  Yes
    K tasked:                  Yes
    wK tasked:                  No
    OpenMP threads:              8
    Integrals threads:           8
    Memory (MB):               375
    Algorithm:                Disk
    Integral Cache:           NONE
    Schwarz Cutoff:          1E-12
    Fitting Condition:       1E-12

   => Auxiliary Basis Set <=

  Basis Set: (AUG-CC-PVTZ AUX)
    Blend: AUG-CC-PVTZ-JKFIT
    Number of shells: 486
    Number of basis function: 1662
    Number of Cartesian functions: 2067
    Spherical Harmonics?: true
    Max angular momentum: 4

  Minimum eigenvalue in the overlap matrix is 4.1413379879E-07.
  Using Symmetric Orthogonalization.

  SCF Guess: Orbitals guess was supplied from a previous computation.

  ==> Iterations <==

                           Total Energy        Delta E     RMS |[F,P]|

   @DF-RHF iter   0:  -476.59839631972289   -4.76598e+02   4.23781e-04 
   @DF-RHF iter   1:  -476.39449989594937    2.03896e-01   2.37132e-04 
   @DF-RHF iter   2:  -476.39638782227792   -1.88793e-03   1.98818e-04 DIIS
   @DF-RHF iter   3:  -476.39819033604596   -1.80251e-03   1.91179e-05 DIIS
   @DF-RHF iter   4:  -476.39821444557424   -2.41095e-05   3.49949e-06 DIIS
   @DF-RHF iter   5:  -476.39821687182291   -2.42625e-06   1.62004e-06 DIIS
   @DF-RHF iter   6:  -476.39821719842945   -3.26607e-07   7.61156e-07 DIIS
   @DF-RHF iter   7:  -476.39821731734929   -1.18920e-07   3.43289e-07 DIIS
   @DF-RHF iter   8:  -476.39821735625787   -3.89086e-08   1.24221e-07 DIIS
   @DF-RHF iter   9:  -476.39821736233728   -6.07940e-09   5.80139e-08 DIIS
   @DF-RHF iter  10:  -476.39821736291265   -5.75369e-10   2.12865e-08 DIIS
   @DF-RHF iter  11:  -476.39821736296796   -5.53086e-11   3.93519e-09 DIIS
   @DF-RHF iter  12:  -476.39821736297426   -6.30962e-12   2.43443e-09 DIIS
   @DF-RHF iter  13:  -476.39821736301315   -3.88809e-11   1.37257e-09 DIIS
   @DF-RHF iter  14:  -476.39821736300513    8.01492e-12   6.11425e-10 DIIS
   @DF-RHF iter  15:  -476.39821736300826   -3.12639e-12   2.41722e-10 DIIS
   @DF-RHF iter  16:  -476.39821736300507    3.18323e-12   9.35167e-11 DIIS

  ==> Post-Iterations <==

    Orbital Energies (a.u.)
    -----------------------

    Doubly Occupied:                                                      

       1A    -15.561900     2A    -11.272971     3A    -11.272948  
       4A    -11.268296     5A    -11.255801     6A    -11.246210  
       7A    -11.246175     8A    -11.245020     9A    -11.244232  
      10A    -11.243370    11A    -11.237596    12A    -11.237557  
      13A     -1.255875    14A     -1.175237    15A     -1.107753  
      16A     -1.038576    17A     -1.025421    18A     -1.018619  
      19A     -0.881975    20A     -0.870725    21A     -0.826387  
      22A     -0.808933    23A     -0.737322    24A     -0.684148  
      25A     -0.673688    26A     -0.666681    27A     -0.629688  
      28A     -0.621727    29A     -0.610217    30A     -0.587368  
      31A     -0.581375    32A     -0.551634    33A     -0.528995  
      34A     -0.515018    35A     -0.510344    36A     -0.493808  
      37A     -0.419194    38A     -0.410713    39A     -0.352749  
      40A     -0.345803    41A     -0.319449  

    Virtual:                                                              

      42A      0.024753    43A      0.028620    44A      0.032170  
      45A      0.039962    46A      0.043206    47A      0.047233  
      48A      0.058170    49A      0.058196    50A      0.064357  
      51A      0.066488    52A      0.081043    53A      0.086301  
      54A      0.088586    55A      0.092642    56A      0.096036  
      57A      0.102942    58A      0.105473    59A      0.108930  
      60A      0.116154    61A      0.116222    62A      0.116972  
      63A      0.119674    64A      0.125730    65A      0.130736  
      66A      0.132369    67A      0.135354    68A      0.138527  
      69A      0.141195    70A      0.142261    71A      0.147215  
      72A      0.148918    73A      0.151663    74A      0.151997  
      75A      0.166215    76A      0.166977    77A      0.173363  
      78A      0.173859    79A      0.183718    80A      0.186023  
      81A      0.186912    82A      0.190869    83A      0.197370  
      84A      0.203773    85A      0.216336    86A      0.219356  
      87A      0.223408    88A      0.230362    89A      0.233330  
      90A      0.237067    91A      0.245891    92A      0.252689  
      93A      0.252729    94A      0.257568    95A      0.261602  
      96A      0.264834    97A      0.267094    98A      0.273916  
      99A      0.280533   100A      0.284014   101A      0.290330  
     102A      0.291573   103A      0.294597   104A      0.296746  
     105A      0.301532   106A      0.303185   107A      0.309398  
     108A      0.313482   109A      0.315852   110A      0.323349  
     111A      0.323603   112A      0.324674   113A      0.338930  
     114A      0.344083   115A      0.345536   116A      0.347101  
     117A      0.355475   118A      0.357102   119A      0.366502  
     120A      0.371061   121A      0.376859   122A      0.381557  
     123A      0.384913   124A      0.397900   125A      0.408485  
     126A      0.408777   127A      0.414551   128A      0.414713  
     129A      0.418321   130A      0.421789   131A      0.424130  
     132A      0.437216   133A      0.438257   134A      0.440919  
     135A      0.441947   136A      0.446441   137A      0.448074  
     138A      0.452575   139A      0.454439   140A      0.458859  
     141A      0.464518   142A      0.472813   143A      0.474863  
     144A      0.476812   145A      0.480572   146A      0.486359  
     147A      0.493255   148A      0.494958   149A      0.499711  
     150A      0.500863   151A      0.501345   152A      0.502981  
     153A      0.506387   154A      0.511877   155A      0.516976  
     156A      0.521563   157A      0.521670   158A      0.529587  
     159A      0.530395   160A      0.532973   161A      0.535706  
     162A      0.536948   163A      0.546147   164A      0.547916  
     165A      0.549238   166A      0.554709   167A      0.564482  
     168A      0.565078   169A      0.568947   170A      0.582539  
     171A      0.584371   172A      0.587038   173A      0.598358  
     174A      0.601686   175A      0.604994   176A      0.618979  
     177A      0.619763   178A      0.628256   179A      0.638352  
     180A      0.638834   181A      0.646470   182A      0.659563  
     183A      0.661200   184A      0.665776   185A      0.684393  
     186A      0.684564   187A      0.691566   188A      0.696792  
     189A      0.698246   190A      0.702416   191A      0.709121  
     192A      0.709832   193A      0.712866   194A      0.713031  
     195A      0.722350   196A      0.738907   197A      0.739288  
     198A      0.741314   199A      0.745117   200A      0.750455  
     201A      0.759137   202A      0.765255   203A      0.777797  
     204A      0.777879   205A      0.792077   206A      0.800303  
     207A      0.804959   208A      0.813655   209A      0.820027  
     210A      0.827166   211A      0.831301   212A      0.832224  
     213A      0.842844   214A      0.847560   215A      0.852671  
     216A      0.863069   217A      0.870555   218A      0.875871  
     219A      0.876182   220A      0.881531   221A      0.882100  
     222A      0.889812   223A      0.892581   224A      0.897009  
     225A      0.901172   226A      0.903652   227A      0.904965  
     228A      0.912497   229A      0.913123   230A      0.916938  
     231A      0.920577   232A      0.926190   233A      0.937307  
     234A      0.937740   235A      0.951768   236A      0.953304  
     237A      0.957643   238A      0.960783   239A      0.966766  
     240A      0.968102   241A      0.975448   242A      0.977963  
     243A      0.983206   244A      0.989473   245A      0.990612  
     246A      1.005317   247A      1.006682   248A      1.007420  
     249A      1.012233   250A      1.014122   251A      1.022145  
     252A      1.025834   253A      1.028544   254A      1.036280  
     255A      1.037910   256A      1.041866   257A      1.044931  
     258A      1.050223   259A      1.054689   260A      1.062554  
     261A      1.073602   262A      1.074036   263A      1.082341  
     264A      1.083475   265A      1.087114   266A      1.094554  
     267A      1.096922   268A      1.098744   269A      1.103109  
     270A      1.107536   271A      1.114445   272A      1.116781  
     273A      1.128494   274A      1.133677   275A      1.139020  
     276A      1.139946   277A      1.154414   278A      1.160051  
     279A      1.168138   280A      1.175871   281A      1.177984  
     282A      1.178809   283A      1.186361   284A      1.190611  
     285A      1.193383   286A      1.198584   287A      1.203538  
     288A      1.204197   289A      1.210881   290A      1.213465  
     291A      1.215367   292A      1.222213   293A      1.231110  
     294A      1.232346   295A      1.239869   296A      1.244068  
     297A      1.256391   298A      1.260890   299A      1.265649  
     300A      1.278068   301A      1.281498   302A      1.284222  
     303A      1.292554   304A      1.296561   305A      1.302099  
     306A      1.303857   307A      1.304684   308A      1.318291  
     309A      1.322469   310A      1.334644   311A      1.342496  
     312A      1.348560   313A      1.362113   314A      1.364893  
     315A      1.372193   316A      1.382387   317A      1.390791  
     318A      1.398789   319A      1.399615   320A      1.408606  
     321A      1.426265   322A      1.437200   323A      1.443594  
     324A      1.446805   325A      1.455115   326A      1.465218  
     327A      1.470328   328A      1.479073   329A      1.479527  
     330A      1.495811   331A      1.499994   332A      1.515594  
     333A      1.517842   334A      1.527589   335A      1.530057  
     336A      1.544604   337A      1.548069   338A      1.568757  
     339A      1.573213   340A      1.579546   341A      1.586921  
     342A      1.605910   343A      1.613277   344A      1.615428  
     345A      1.625309   346A      1.646581   347A      1.649696  
     348A      1.659915   349A      1.660316   350A      1.671165  
     351A      1.684219   352A      1.696829   353A      1.705333  
     354A      1.706248   355A      1.709740   356A      1.714606  
     357A      1.716839   358A      1.725567   359A      1.733971  
     360A      1.747349   361A      1.752950   362A      1.756273  
     363A      1.774351   364A      1.780416   365A      1.797539  
     366A      1.799706   367A      1.809922   368A      1.812142  
     369A      1.823073   370A      1.825907   371A      1.844810  
     372A      1.851027   373A      1.853623   374A      1.862885  
     375A      1.866007   376A      1.874418   377A      1.892097  
     378A      1.899421   379A      1.906488   380A      1.909256  
     381A      1.913863   382A      1.929484   383A      1.939557  
     384A      1.951122   385A      1.965898   386A      1.969263  
     387A      1.981939   388A      1.982053   389A      1.988623  
     390A      1.999500   391A      2.011545   392A      2.013189  
     393A      2.018110   394A      2.024706   395A      2.032021  
     396A      2.034336   397A      2.042156   398A      2.046114  
     399A      2.054156   400A      2.063856   401A      2.066528  
     402A      2.070526   403A      2.088313   404A      2.088692  
     405A      2.095318   406A      2.098413   407A      2.112485  
     408A      2.118991   409A      2.121278   410A      2.127878  
     411A      2.129605   412A      2.150427   413A      2.151892  
     414A      2.168915   415A      2.177849   416A      2.185950  
     417A      2.187873   418A      2.193511   419A      2.196573  
     420A      2.214156   421A      2.216502   422A      2.225067  
     423A      2.244116   424A      2.248080   425A      2.253105  
     426A      2.253940   427A      2.276031   428A      2.288847  
     429A      2.299207   430A      2.313403   431A      2.319098  
     432A      2.329733   433A      2.354813   434A      2.365916  
     435A      2.367081   436A      2.370474   437A      2.372719  
     438A      2.392799   439A      2.395963   440A      2.404945  
     441A      2.421187   442A      2.429593   443A      2.443333  
     444A      2.444641   445A      2.470668   446A      2.474753  
     447A      2.492968   448A      2.499785   449A      2.502683  
     450A      2.509643   451A      2.531593   452A      2.554626  
     453A      2.563894   454A      2.573990   455A      2.585972  
     456A      2.599685   457A      2.601795   458A      2.619720  
     459A      2.662722   460A      2.663608   461A      2.680084  
     462A      2.698875   463A      2.731639   464A      2.733908  
     465A      2.784025   466A      2.786812   467A      2.801821  
     468A      2.809331   469A      2.823282   470A      2.852401  
     471A      2.856449   472A      2.863517   473A      2.905543  
     474A      2.908187   475A      2.942076   476A      3.006107  
[...]
Total time:
	user time   =   13087.07 seconds =     218.12 minutes
	system time =     225.25 seconds =       3.75 minutes
	total time  =       4120 seconds =      68.67 minutes

  //>>>>>>>>>>>>>>>>>>>>>>>>>>>>>>>>>>>//
  //               DFMP2               //
  //<<<<<<<<<<<<<<<<<<<<<<<<<<<<<<<<<<<//

   => Loading Basis Set <=

    Name: (AUG-CC-PVTZ AUX)
    Role: RIFIT
    Keyword: DF_BASIS_MP2
    atoms 1-11  entry C          line   147 file /cbio/jclab/home/chayas/anaconda/envs/py35/share/psi4/basis/aug-cc-pvtz-ri.gbs 
    atoms 12    entry N          line   205 file /cbio/jclab/home/chayas/anaconda/envs/py35/share/psi4/basis/aug-cc-pvtz-ri.gbs 
    atoms 13-21 entry H          line    29 file /cbio/jclab/home/chayas/anaconda/envs/py35/share/psi4/basis/aug-cc-pvtz-ri.gbs 

	 --------------------------------------------------------
	                          DF-MP2                         
	      2nd-Order Density-Fitted Moller-Plesset Theory     
	              RMP2 Wavefunction,   8 Threads             
	                                                         
	        Rob Parrish, Justin Turney, Andy Simmonett,      
	           Ed Hohenstein, and C. David Sherrill          
	 --------------------------------------------------------

   => Auxiliary Basis Set <=

  Basis Set: (AUG-CC-PVTZ AUX)
    Blend: AUG-CC-PVTZ-RI
    Number of shells: 462
    Number of basis function: 1686
    Number of Cartesian functions: 2127
    Spherical Harmonics?: true
    Max angular momentum: 4

	 --------------------------------------------------------
	                 NBF =   759, NAUX =  1686
	 --------------------------------------------------------
	   CLASS    FOCC     OCC    AOCC    AVIR     VIR    FVIR
	   PAIRS       0      41      41     718     718       0
	 --------------------------------------------------------


         ------------------------------------------------------------
                                     CPHF                           
                                  Rob Parrish                       
         ------------------------------------------------------------

  ==> Geometry <==

    Molecular point group: c1
    Full point group: C1

    Geometry (in Angstrom), charge = 0, multiplicity = 1:

       Center              X                  Y                   Z               Mass       
    ------------   -----------------  -----------------  -----------------  -----------------
           C          0.109278604361     0.056323193661    -3.562211262154    12.000000000000
           C         -0.953403482216     0.636445383076    -2.884371200367    12.000000000000
           C          1.128992026391    -0.547321810773    -2.840315963796    12.000000000000
           C         -0.993896848809     0.612931079296    -1.499104658921    12.000000000000
           C          1.086337225187    -0.566590616516    -1.455037682473    12.000000000000
           C         -1.195067681046     0.247862844627     1.414405303101    12.000000000000
           C          1.106312518026    -0.293393890648     1.479001207607    12.000000000000
           C         -1.192066184530     0.214184316464     2.798765591175    12.000000000000
           C          1.016157888179    -0.301709325210     2.860688152941    12.000000000000
           C          0.027252224403     0.016552322200    -0.758172147943    12.000000000000
           C         -0.022442244705    -0.016760700823     0.710620235045    12.000000000000
           N         -0.110529903016    -0.055522296308     3.533933387455    14.003074004780
           H          0.141323828916     0.072639883413    -4.640819756138     1.007825032070
           H         -1.750270607858     1.112934476281    -3.434588438028     1.007825032070
           H          1.955795523215    -1.010841971220    -3.356339354337     1.007825032070
           H         -1.822793731433     1.084956830222    -0.996437215184     1.007825032070
           H          1.881214128361    -1.059771013326    -0.918578399024     1.007825032070
           H         -2.118092568042     0.460766207758     0.900461179097     1.007825032070
           H          2.061334069705    -0.485490710421     1.017675487167     1.007825032070
           H         -2.103404964901     0.408792177117     3.347578065652     1.007825032070
           H          1.892130314770    -0.509360545598     3.460066122480     1.007825032070

  Nuclear repulsion =  605.958124591311503
  Reference energy  = -476.399796251998794

  ==> Basis Set <==

  Basis Set: AUG-CC-PVTZ
    Blend: AUG-CC-PVTZ
    Number of shells: 249
    Number of basis function: 759
    Number of Cartesian functions: 885
    Spherical Harmonics?: true
    Max angular momentum: 3

  ==> CGRSolver (by Rob Parrish) <==

   Number of roots    =         1
   Preconditioning    =    JACOBI
   Convergence cutoff =     1E-06
   Maximum iterations =       100

  ==> CPHFRHamiltonian (by Rob Parrish) <== 

  ==> DFJK: Density-Fitted J/K Matrices <==

    J tasked:                  Yes
    K tasked:                  Yes
    wK tasked:                  No
    OpenMP threads:              8
    Integrals threads:           8
    Memory (MB):               375
    Algorithm:                Disk
    Integral Cache:           NONE
    Schwarz Cutoff:          1E-12
    Fitting Condition:       1E-12

   => Auxiliary Basis Set <=

  Basis Set: (AUG-CC-PVTZ AUX)
    Blend: AUG-CC-PVTZ-JKFIT
    Number of shells: 486
    Number of basis function: 1662
    Number of Cartesian functions: 2067
    Spherical Harmonics?: true
    Max angular momentum: 4

  ==> CPHF Iterations <==

  => Iterations <=

             Iter  Converged  Remaining    Residual
  CGR           1          0          1   8.039E-02
  CGR           2          0          1   2.900E-02
  CGR           3          0          1   2.061E-02
  CGR           4          0          1   9.071E-03
  CGR           5          0          1   2.687E-03
  CGR           6          0          1   1.002E-03
  CGR           7          0          1   4.593E-04
  CGR           8          0          1   1.938E-04
  CGR           9          0          1   8.987E-05
  CGR          10          0          1   3.505E-05
  CGR          11          0          1   7.367E-06
  CGR          12          0          1   2.428E-06
  CGR          13          1          0   6.779E-07

    CGRSolver converged.

  ==> DFCorrGrad: Density-Fitted Correlated Gradients <==

    OpenMP threads:              8
    Integrals threads:           8
    Memory (MB):               375
    Schwarz Cutoff:          0E+00
    Fitting Condition:       1E-12

   => Auxiliary Basis Set <=

  Basis Set: (AUG-CC-PVTZ AUX)
    Blend: AUG-CC-PVTZ-JKFIT
    Number of shells: 486
    Number of basis function: 1662
    Number of Cartesian functions: 2067
    Spherical Harmonics?: true
    Max angular momentum: 4

	-----------------------------------------------------------
	 ==================> DF-MP2 Energies <==================== 
	-----------------------------------------------------------
	 Reference Energy          =    -476.3997962519987937 [Eh]
	 Singles Energy            =      -0.0000000000000001 [Eh]
	 Same-Spin Energy          =      -0.5345173496432896 [Eh]
	 Opposite-Spin Energy      =      -1.6417753718323960 [Eh]
	 Correlation Energy        =      -2.1762927214756855 [Eh]
	 Total Energy              =    -478.5760889734744978 [Eh]
	-----------------------------------------------------------
	 ================> DF-SCS-MP2 Energies <================== 
	-----------------------------------------------------------
	 SCS Same-Spin Scale       =       0.3333333333333333 [-]
	 SCS Opposite-Spin Scale   =       1.2000000000000000 [-]
	 SCS Same-Spin Energy      =      -0.1781724498810965 [Eh]
	 SCS Opposite-Spin Energy  =      -1.9701304461988751 [Eh]
	 SCS Correlation Energy    =      -2.1483028960799717 [Eh]
	 SCS Total Energy          =    -478.5480991480787907 [Eh]
	-----------------------------------------------------------


  -Total Gradient:
     Atom            X                  Y                   Z
    ------   -----------------  -----------------  -----------------
       1       -0.000049594524    -0.000028485639     0.000342688662
       2        0.000144043730     0.000111563872    -0.000063582856
       3       -0.000051466249    -0.000021320546    -0.000062412047
       4       -0.000415016255    -0.001311377812     0.000652844576
       5       -0.000349570034     0.000205381861     0.000601375874
       6       -0.000118048985     0.001281669392    -0.000437421901
       7        0.000400574963    -0.000186472067    -0.000218911517
       8       -0.000279211926     0.000306657334    -0.001095064474
       9        0.000423166873    -0.000230262690    -0.001220003396
      10        0.001174091086     0.002148309391    -0.001814714089
      11       -0.000861741202    -0.002231797150     0.002454378646
      12       -0.000096196303    -0.000060868790     0.000555018568
      13       -0.000019651786    -0.000028117424    -0.000019798692
      14        0.000048759408     0.000019287112    -0.000066559125
      15       -0.000030692204     0.000017064387    -0.000060469763
      16       -0.000270516648    -0.000294753837    -0.000172184741
      17        0.000282382241     0.000215188941    -0.000201720000
      18        0.000330304312     0.000336973496    -0.000001243446
      19       -0.000254342020    -0.000261578479    -0.000021939205
      20       -0.000005309841    -0.000162861761     0.000401887706
      21       -0.000001964633     0.000175800408     0.000447831220


*** tstop() called on gpu-1-12.local at Sat Nov 11 11:14:59 2017
Module time:
	user time   =    5813.41 seconds =      96.89 minutes
	system time =      93.43 seconds =       1.56 minutes
	total time  =       1867 seconds =      31.12 minutes
Total time:
	user time   =   17838.49 seconds =     297.31 minutes
	system time =     283.69 seconds =       4.73 minutes
	total time  =       5667 seconds =      94.45 minutes

			-----------------------------------------
			 OPTKING 2.0: for geometry optimizations 
			  - R.A. King,  Bethel University        
			-----------------------------------------

	Previous internal coordinate definitions found.
	---Fragment 1 Geometry and Gradient---
	 C           0.2065066344        0.1064354109       -6.7316037130
	 C          -1.8016714755        1.2027074726       -5.4506716343
	 C           2.1334857361       -1.0342883289       -5.3674193024
	 C          -1.8781928486        1.1582718782       -2.8328972499
	 C           2.0528798436       -1.0707010947       -2.7496227329
	 C          -2.2583506274        0.4683928949        2.6728386638
	 C           2.0906276765       -0.5544341024        2.7949072326
	 C          -2.2526786210        0.4047497001        5.2889004775
	 C           1.9202601164       -0.5701479964        5.4059171606
	 C           0.0514992406        0.0312793558       -1.4327377212
	 C          -0.0424096963       -0.0316731344        1.3428776287
	 N          -0.2088712462       -0.1049219343        6.6781662742
	 H           0.2670633327        0.1372694860       -8.7698783712
	 H          -3.3075321073        2.1031413640       -6.4904315270
	 H           3.6959179108       -1.9102144892       -6.3425621887
	 H          -3.4445809491        2.0502712751       -1.8829934453
	 H           3.5549794999       -2.0026769788       -1.7358616057
	 H          -4.0026148777        0.8707219440        1.7016250218
	 H           3.8953568601       -0.9174444828        1.9231279629
	 H          -3.9748593302        0.7725052600        6.3260057525
	 H           3.5756081026       -0.9625519341        6.5385773732
	            -0.0000495945       -0.0000284856        0.0003426887
	             0.0001440437        0.0001115639       -0.0000635829
	            -0.0000514662       -0.0000213205       -0.0000624120
	            -0.0004150163       -0.0013113778        0.0006528446
	            -0.0003495700        0.0002053819        0.0006013759
	            -0.0001180490        0.0012816694       -0.0004374219
	             0.0004005750       -0.0001864721       -0.0002189115
	            -0.0002792119        0.0003066573       -0.0010950645
	             0.0004231669       -0.0002302627       -0.0012200034
	             0.0011740911        0.0021483094       -0.0018147141
	            -0.0008617412       -0.0022317971        0.0024543786
	            -0.0000961963       -0.0000608688        0.0005550186
	            -0.0000196518       -0.0000281174       -0.0000197987
	             0.0000487594        0.0000192871       -0.0000665591
	            -0.0000306922        0.0000170644       -0.0000604698
	            -0.0002705166       -0.0002947538       -0.0001721847
	             0.0002823822        0.0002151889       -0.0002017200
	             0.0003303043        0.0003369735       -0.0000012434
	            -0.0002543420       -0.0002615785       -0.0000219392
	            -0.0000053098       -0.0001628618        0.0004018877
	            -0.0000019646        0.0001758004        0.0004478312

	---Fragment 1 Intrafragment Coordinates---
	 - Coordinate -           - BOHR/RAD -       - ANG/DEG -
	 R(1,2)           =         2.622094	       1.387553
	 R(1,3)           =         2.622117	       1.387565
	 R(1,13)          =         2.039407	       1.079208
	 R(2,4)           =         2.619270	       1.386058
	 R(2,14)          =         2.039485	       1.079249
	 R(3,5)           =         2.619290	       1.386069
	 R(3,15)          =         2.039447	       1.079229
	 R(4,10)          =         2.637095	       1.395491
	 R(4,16)          =         2.037536	       1.078217
	 R(5,10)          =         2.637057	       1.395471
	 R(5,17)          =         2.037791	       1.078353
	 R(6,8)           =         2.616842	       1.384773
	 R(6,11)          =         2.632348	       1.392979
	 R(6,18)          =         2.036561	       1.077702
	 R(7,9)           =         2.616609	       1.384650
	 R(7,11)          =         2.632778	       1.393206
	 R(7,19)          =         2.036866	       1.077863
	 R(8,12)          =         2.523286	       1.335266
	 R(8,20)          =         2.043707	       1.081483
	 R(9,12)          =         2.523540	       1.335400
	 R(9,21)          =         2.043790	       1.081527
	 R(10,11)         =         2.777917	       1.470010
	 B(1,2,4)         =         2.098462	     120.233012
	 B(1,2,14)        =         2.095569	     120.067254
	 B(1,3,5)         =         2.098321	     120.224945
	 B(1,3,15)        =         2.095660	     120.072457
	 B(2,1,3)         =         2.083532	     119.377569
	 B(2,1,13)        =         2.099789	     120.309022
	 B(2,4,10)        =         2.113574	     121.098898
	 B(2,4,16)        =         2.072555	     118.748678
	 B(3,1,13)        =         2.099863	     120.313282
	 B(3,5,10)        =         2.113716	     121.107026
	 B(3,5,17)        =         2.072443	     118.742263
	 B(4,2,14)        =         2.089141	     119.698976
	 B(4,10,5)        =         2.058729	     117.956501
	 B(4,10,11)       =         2.112335	     121.027898
	 B(5,3,15)        =         2.089176	     119.700979
	 B(5,10,11)       =         2.111978	     121.007450
	 B(6,8,12)        =         2.161664	     123.854231
	 B(6,8,20)        =         2.095676	     120.073375
	 B(6,11,7)        =         2.027614	     116.173749
	 B(6,11,10)       =         2.128185	     121.936007
	 B(7,9,12)        =         2.161446	     123.841713
	 B(7,9,21)        =         2.096045	     120.094510
	 B(7,11,10)       =         2.127245	     121.882166
	 B(8,6,11)        =         2.092828	     119.910202
	 B(8,6,18)        =         2.075340	     118.908208
	 B(8,12,9)        =         2.029791	     116.298482
	 B(9,7,11)        =         2.092988	     119.919388
	 B(9,7,19)        =         2.075678	     118.927578
	 B(10,4,16)       =         2.096829	     120.139466
	 B(10,5,17)       =         2.096846	     120.140439
	 B(11,6,18)       =         2.114814	     121.169897
	 B(11,7,19)       =         2.114357	     121.143729
	 B(12,8,20)       =         2.025835	     116.071816
	 B(12,9,21)       =         2.025671	     116.062402
	 D(1,2,4,10)      =         0.005670	       0.324845
	 D(1,2,4,16)      =         3.124436	     179.016995
	 D(1,3,5,10)      =        -0.001229	      -0.070403
	 D(1,3,5,17)      =         3.120041	     178.765158
	 D(2,1,3,5)       =        -0.002858	      -0.163731
	 D(2,1,3,15)      =         3.130632	     179.372022
	 D(2,4,10,5)      =        -0.009525	      -0.545771
	 D(2,4,10,11)     =        -3.133169	    -179.517385
	 D(3,1,2,4)       =         0.000667	       0.038200
	 D(3,1,2,14)      =         3.136716	     179.720596
	 D(3,5,10,4)      =         0.007312	       0.418920
	 D(3,5,10,11)     =         3.130959	     179.390755
	 D(4,2,1,13)      =         3.140007	     179.909133
	 D(4,10,5,17)     =        -3.113676	    -178.400489
	 D(4,10,11,6)     =         0.266261	      15.255629
	 D(4,10,11,7)     =        -2.856592	    -163.670662
	 D(5,3,1,13)      =         3.140988	     179.965341
	 D(5,10,4,16)     =        -3.127977	    -179.219872
	 D(5,10,11,6)     =        -2.856834	    -163.684542
	 D(5,10,11,7)     =         0.303498	      17.389167
	 D(6,8,12,9)      =         0.000404	       0.023131
	 D(6,11,7,9)      =         0.006929	       0.397007
	 D(6,11,7,19)     =        -3.115088	    -178.481382
	 D(7,9,12,8)      =        -0.003450	      -0.197665
	 D(7,11,6,8)      =        -0.009728	      -0.557384
	 D(7,11,6,18)     =        -3.129372	    -179.299795
	 D(8,6,11,10)     =        -3.133590	    -179.541496
	 D(8,12,9,21)     =         3.130680	     179.374777
	 D(9,7,11,10)     =         3.130802	     179.381713
	 D(9,12,8,20)     =         3.137161	     179.746078
	 D(10,4,2,14)     =        -3.130400	    -179.358722
	 D(10,5,3,15)     =        -3.134749	    -179.607883
	 D(10,11,6,18)    =         0.029951	       1.716094
	 D(10,11,7,19)    =         0.008785	       0.503323
	 D(11,6,8,12)     =         0.006415	       0.367563
	 D(11,6,8,20)     =        -3.130158	    -179.344864
	 D(11,7,9,12)     =        -0.000361	      -0.020681
	 D(11,7,9,21)     =        -3.134206	    -179.576757
	 D(11,10,4,16)    =         0.031565	       1.808513
	 D(11,10,5,17)    =         0.009972	       0.571346
	 D(12,8,6,18)     =         3.126554	     179.138364
	 D(12,9,7,19)     =         3.122089	     178.882520
	 D(13,1,2,14)     =        -0.007129	      -0.408471
	 D(13,1,3,15)     =        -0.008708	      -0.498906
	 D(14,2,4,16)     =        -0.011634	      -0.666572
	 D(15,3,5,17)     =        -0.013480	      -0.772322
	 D(18,6,8,20)     =        -0.010019	      -0.574064
	 D(19,7,9,21)     =        -0.011756	      -0.673556

	Current energy   :      -478.5760889735

	Energy change for the previous step:
		Projected    :        -0.0012838555
		Actual       :        -0.0005733700

	Performing BFGS update.
	Previous computed or guess Hessian on step 1.
	Steps to be used in Hessian update: 2 1
	Adding user-defined constraint: Fragment 1; Coordinate 71:
		Value =     0.266261; Fixed value    =     0.261800
		Force =    -0.002454; Force constant =     0.550000
	Removing off-diagonal coupling between coordinate 71 and others.
	Taking RFO optimization step.
	Going to follow RFO solution 1.
	Using RFO vector 1.
	Norm of target step-size    0.06699
	Projected energy change by RFO approximation:        -0.0001218592

	Back-transformation to cartesian coordinates...
	The INTCO_EXCEPTion handler:
	TORS::compute_val: unable to compute torsion value
	Dynamic level is 0.
	exc.g_really_quit() is 0.

  **** Optimization has failed! (in 3 steps) ****
			--------------------------
			 OPTKING Finished Execution 
			--------------------------
	Cleaning optimization helper files.

*** Psi4 exiting successfully. Buy a developer a beer!
