
    -----------------------------------------------------------------------
          Psi4: An Open-Source Ab Initio Electronic Structure Package
                               Psi4 1.1 release

                         Git: Rev {HEAD} add49b9 


    R. M. Parrish, L. A. Burns, D. G. A. Smith, A. C. Simmonett,
    A. E. DePrince III, E. G. Hohenstein, U. Bozkaya, A. Yu. Sokolov,
    R. Di Remigio, R. M. Richard, J. F. Gonthier, A. M. James,
    H. R. McAlexander, A. Kumar, M. Saitow, X. Wang, B. P. Pritchard,
    P. Verma, H. F. Schaefer III, K. Patkowski, R. A. King, E. F. Valeev,
    F. A. Evangelista, J. M. Turney, T. D. Crawford, and C. D. Sherrill,
    J. Chem. Theory Comput. in press (2017).
    (doi: 10.1021/acs.jctc.7b00174)

    -----------------------------------------------------------------------


    Psi4 started on: Tuesday, 14 November 2017 10:45PM

    Process ID:  22583
    PSIDATADIR: /cbio/jclab/home/chayas/anaconda/envs/py35/share/psi4
    Memory:     500.0 MiB
    Threads:    8
    
  ==> Input File <==

--------------------------------------------------------------------------

memory 8 Gb

molecule phepyr {
  symmetry C1
  0 1 
  C      1.885   -1.036   -0.112
  C      0.807   -0.463   0.561
  C      2.921   -1.631   0.608
  C      0.764   -0.484   1.955
  C      2.878   -1.652   2.002
  C      0.567   -0.822   4.788
  C      2.900   -1.401   4.851
  C      0.576   -0.858   6.173
  C      2.805   -1.411   6.233
  C      1.800   -1.079   2.676
  C      1.755   -1.100   4.122
  N      1.668   -1.146   6.915
  H      1.917   -1.021   -1.198
  H      -0.001   -0.002   0.000
  H      3.760   -2.079   0.084
  H      -0.084   -0.033   2.466
  H      3.693   -2.120   2.550
  H      -0.348   -0.584   4.253
  H      3.845   -1.623   4.365
  H      -0.326   -0.650   6.739
  H      3.669   -1.638   6.847
  units Angstrom
}

frozen_string = """
4 xyz
10 xyz
11 xyz
6 xyz
"""
set optking { opt_coordinates = cartesian
              frozen_cartesian = $frozen_string
              consecutive_backsteps = 2
              geom_maxiter = 250
              print_trajectory_xyz_file = True }

optimize('MP2/aug-cc-PVTZ')
--------------------------------------------------------------------------

  Memory set to   7.451 GiB by Python driver.
gradient() will perform analytic gradient computation.

*** tstart() called on gpu-1-16.local
*** at Tue Nov 14 22:45:17 2017

    SCF Algorithm Type (re)set to DF.

*** tstart() called on gpu-1-16.local
*** at Tue Nov 14 22:45:17 2017

   => Loading Basis Set <=

    Name: AUG-CC-PVTZ
    Role: ORBITAL
    Keyword: BASIS
    atoms 1-11  entry C          line   221 file /cbio/jclab/home/chayas/anaconda/envs/py35/share/psi4/basis/aug-cc-pvtz.gbs 
    atoms 12    entry N          line   267 file /cbio/jclab/home/chayas/anaconda/envs/py35/share/psi4/basis/aug-cc-pvtz.gbs 
    atoms 13-21 entry H          line    34 file /cbio/jclab/home/chayas/anaconda/envs/py35/share/psi4/basis/aug-cc-pvtz.gbs 


         ---------------------------------------------------------
                                   SCF
            by Justin Turney, Rob Parrish, and Andy Simmonett
                              RHF Reference
                        8 Threads,   7629 MiB Core
         ---------------------------------------------------------

  ==> Geometry <==

    Molecular point group: c1
    Full point group: C1

    Geometry (in Angstrom), charge = 0, multiplicity = 1:

       Center              X                  Y                   Z               Mass       
    ------------   -----------------  -----------------  -----------------  -----------------
           C          1.885000000000    -1.036000000000    -0.112000000000    12.000000000000
           C          0.807000000000    -0.463000000000     0.561000000000    12.000000000000
           C          2.921000000000    -1.631000000000     0.608000000000    12.000000000000
           C          0.764000000000    -0.484000000000     1.955000000000    12.000000000000
           C          2.878000000000    -1.652000000000     2.002000000000    12.000000000000
           C          0.567000000000    -0.822000000000     4.788000000000    12.000000000000
           C          2.900000000000    -1.401000000000     4.851000000000    12.000000000000
           C          0.576000000000    -0.858000000000     6.173000000000    12.000000000000
           C          2.805000000000    -1.411000000000     6.233000000000    12.000000000000
           C          1.800000000000    -1.079000000000     2.676000000000    12.000000000000
           C          1.755000000000    -1.100000000000     4.122000000000    12.000000000000
           N          1.668000000000    -1.146000000000     6.915000000000    14.003074004780
           H          1.917000000000    -1.021000000000    -1.198000000000     1.007825032070
           H         -0.001000000000    -0.002000000000     0.000000000000     1.007825032070
           H          3.760000000000    -2.079000000000     0.084000000000     1.007825032070
           H         -0.084000000000    -0.033000000000     2.466000000000     1.007825032070
           H          3.693000000000    -2.120000000000     2.550000000000     1.007825032070
           H         -0.348000000000    -0.584000000000     4.253000000000     1.007825032070
           H          3.845000000000    -1.623000000000     4.365000000000     1.007825032070
           H         -0.326000000000    -0.650000000000     6.739000000000     1.007825032070
           H          3.669000000000    -1.638000000000     6.847000000000     1.007825032070

  Running in c1 symmetry.

  Rotational constants: A =      0.04932  B =      0.00527  C =      0.00477 [cm^-1]
  Rotational constants: A =   1478.66821  B =    158.03432  C =    143.14097 [MHz]
  Nuclear repulsion =  607.407555650654331

  Charge       = 0
  Multiplicity = 1
  Electrons    = 82
  Nalpha       = 41
  Nbeta        = 41

  ==> Algorithm <==

  SCF Algorithm Type is DF.
  DIIS enabled.
  MOM disabled.
  Fractional occupation disabled.
  Guess Type is SAD.
  Energy threshold   = 1.00e-10
  Density threshold  = 1.00e-10
  Integral threshold = 0.00e+00

  ==> Primary Basis <==

  Basis Set: AUG-CC-PVTZ
    Blend: AUG-CC-PVTZ
    Number of shells: 249
    Number of basis function: 759
    Number of Cartesian functions: 885
    Spherical Harmonics?: true
    Max angular momentum: 3

   => Loading Basis Set <=

    Name: (AUG-CC-PVTZ AUX)
    Role: JKFIT
    Keyword: DF_BASIS_SCF
    atoms 1-11  entry C          line   161 file /cbio/jclab/home/chayas/anaconda/envs/py35/share/psi4/basis/aug-cc-pvtz-jkfit.gbs 
    atoms 12    entry N          line   223 file /cbio/jclab/home/chayas/anaconda/envs/py35/share/psi4/basis/aug-cc-pvtz-jkfit.gbs 
    atoms 13-21 entry H          line    69 file /cbio/jclab/home/chayas/anaconda/envs/py35/share/psi4/basis/aug-cc-pvtz-jkfit.gbs 

  ==> Pre-Iterations <==

   -------------------------------------------------------
    Irrep   Nso     Nmo     Nalpha   Nbeta   Ndocc  Nsocc
   -------------------------------------------------------
     A        759     759       0       0       0       0
   -------------------------------------------------------
    Total     759     759      41      41      41       0
   -------------------------------------------------------

  ==> Integral Setup <==

  ==> DFJK: Density-Fitted J/K Matrices <==

    J tasked:                  Yes
    K tasked:                  Yes
    wK tasked:                  No
    OpenMP threads:              8
    Integrals threads:           8
    Memory (MB):              5722
    Algorithm:                Core
    Integral Cache:           NONE
    Schwarz Cutoff:          1E-12
    Fitting Condition:       1E-12

   => Auxiliary Basis Set <=

  Basis Set: (AUG-CC-PVTZ AUX)
    Blend: AUG-CC-PVTZ-JKFIT
    Number of shells: 486
    Number of basis function: 1662
    Number of Cartesian functions: 2067
    Spherical Harmonics?: true
    Max angular momentum: 4

  Minimum eigenvalue in the overlap matrix is 4.1193723452E-07.
  Using Symmetric Orthogonalization.

  SCF Guess: Superposition of Atomic Densities via on-the-fly atomic UHF.

  ==> Iterations <==

                           Total Energy        Delta E     RMS |[F,P]|

   @DF-RHF iter   0:  -485.67816156074622   -4.85678e+02   2.48780e-02 
   @DF-RHF iter   1:  -476.14341098239532    9.53475e+00   1.83224e-03 
   @DF-RHF iter   2:  -476.34327611169067   -1.99865e-01   9.29025e-04 DIIS
   @DF-RHF iter   3:  -476.37824625742292   -3.49701e-02   4.52840e-04 DIIS
   @DF-RHF iter   4:  -476.38985971436500   -1.16135e-02   1.22309e-04 DIIS
   @DF-RHF iter   5:  -476.39128121679477   -1.42150e-03   4.64713e-05 DIIS
   @DF-RHF iter   6:  -476.39155010996456   -2.68893e-04   1.86323e-05 DIIS
   @DF-RHF iter   7:  -476.39159956319264   -4.94532e-05   8.35858e-06 DIIS
   @DF-RHF iter   8:  -476.39161061508878   -1.10519e-05   4.14899e-06 DIIS
   @DF-RHF iter   9:  -476.39161423270451   -3.61762e-06   1.91731e-06 DIIS
   @DF-RHF iter  10:  -476.39161529619651   -1.06349e-06   3.43229e-07 DIIS
   @DF-RHF iter  11:  -476.39161533976846   -4.35720e-08   2.06705e-07 DIIS
   @DF-RHF iter  12:  -476.39161534653590   -6.76744e-09   9.96148e-08 DIIS
   @DF-RHF iter  13:  -476.39161534850899   -1.97309e-09   4.23461e-08 DIIS
   @DF-RHF iter  14:  -476.39161534896675   -4.57760e-10   2.29543e-08 DIIS
   @DF-RHF iter  15:  -476.39161534906066   -9.39053e-11   7.49607e-09 DIIS
   @DF-RHF iter  16:  -476.39161534905139    9.26548e-12   1.78881e-09 DIIS
   @DF-RHF iter  17:  -476.39161534902058    3.08091e-11   7.28659e-10 DIIS
   @DF-RHF iter  18:  -476.39161534905315   -3.25713e-11   4.73614e-10 DIIS
   @DF-RHF iter  19:  -476.39161534907447   -2.13163e-11   1.73263e-10 DIIS
   @DF-RHF iter  20:  -476.39161534903769    3.67777e-11   7.94421e-11 DIIS

  ==> Post-Iterations <==

    Orbital Energies (a.u.)
    -----------------------

    Doubly Occupied:                                                      

       1A    -15.563141     2A    -11.274931     3A    -11.274883  
       4A    -11.264297     5A    -11.251957     6A    -11.247673  
       7A    -11.247488     8A    -11.246542     9A    -11.246244  
      10A    -11.245412    11A    -11.237662    12A    -11.237586  
      13A     -1.249833    14A     -1.175678    15A     -1.107811  
      16A     -1.039622    17A     -1.023858    18A     -1.015918  
      19A     -0.882457    20A     -0.872059    21A     -0.823463  
      22A     -0.806096    23A     -0.737442    24A     -0.682612  
      25A     -0.672939    26A     -0.666473    27A     -0.626944  
      28A     -0.619755    29A     -0.614178    30A     -0.585486  
      31A     -0.577316    32A     -0.551231    33A     -0.531019  
      34A     -0.512617    35A     -0.507870    36A     -0.493656  
      37A     -0.418696    38A     -0.410076    39A     -0.353563  
      40A     -0.345366    41A     -0.316644  

    Virtual:                                                              

      42A      0.024761    43A      0.028437    44A      0.032178  
      45A      0.039970    46A      0.043279    47A      0.046447  
      48A      0.058180    49A      0.058261    50A      0.063989  
      51A      0.065968    52A      0.080679    53A      0.086452  
      54A      0.087470    55A      0.092290    56A      0.096468  
      57A      0.103114    58A      0.105216    59A      0.108823  
      60A      0.116291    61A      0.116530    62A      0.117003  
      63A      0.119810    64A      0.125851    65A      0.130716  
      66A      0.132373    67A      0.135417    68A      0.138917  
      69A      0.141135    70A      0.142700    71A      0.147174  
      72A      0.149160    73A      0.151783    74A      0.152412  
      75A      0.166247    76A      0.167104    77A      0.173252  
      78A      0.173915    79A      0.184267    80A      0.186534  
      81A      0.187493    82A      0.190879    83A      0.197866  
      84A      0.203111    85A      0.215488    86A      0.219291  
      87A      0.223973    88A      0.231174    89A      0.233283  
      90A      0.237515    91A      0.246575    92A      0.252502  
      93A      0.252588    94A      0.256946    95A      0.261632  
      96A      0.264651    97A      0.265800    98A      0.273648  
      99A      0.280899   100A      0.282748   101A      0.289352  
     102A      0.290297   103A      0.293184   104A      0.297227  
     105A      0.302280   106A      0.303318   107A      0.309514  
     108A      0.313293   109A      0.316387   110A      0.323119  
     111A      0.323825   112A      0.326184   113A      0.339755  
     114A      0.344527   115A      0.346306   116A      0.347408  
     117A      0.356044   118A      0.357744   119A      0.368496  
     120A      0.370544   121A      0.376670   122A      0.381493  
     123A      0.384446   124A      0.397918   125A      0.407923  
     126A      0.409511   127A      0.414197   128A      0.415456  
     129A      0.417714   130A      0.422641   131A      0.423589  
     132A      0.438637   133A      0.438953   134A      0.440926  
     135A      0.442659   136A      0.446847   137A      0.449984  
     138A      0.450010   139A      0.456285   140A      0.459775  
     141A      0.464856   142A      0.473222   143A      0.475526  
     144A      0.476908   145A      0.481125   146A      0.487461  
     147A      0.494320   148A      0.494596   149A      0.499148  
     150A      0.499932   151A      0.501266   152A      0.502996  
     153A      0.506987   154A      0.511029   155A      0.515253  
     156A      0.521816   157A      0.522015   158A      0.529231  
     159A      0.530262   160A      0.533432   161A      0.536554  
     162A      0.538063   163A      0.547281   164A      0.549241  
     165A      0.550369   166A      0.555440   167A      0.564922  
     168A      0.567319   169A      0.570350   170A      0.584519  
     171A      0.585014   172A      0.589257   173A      0.598197  
     174A      0.600963   175A      0.605203   176A      0.621678  
     177A      0.622935   178A      0.627317   179A      0.639396  
     180A      0.640768   181A      0.646366   182A      0.657689  
     183A      0.659093   184A      0.666149   185A      0.684700  
     186A      0.685012   187A      0.692116   188A      0.693858  
     189A      0.699309   190A      0.705434   191A      0.708205  
     192A      0.710561   193A      0.713403   194A      0.715860  
     195A      0.720163   196A      0.739557   197A      0.739751  
     198A      0.743368   199A      0.744882   200A      0.752013  
     201A      0.758910   202A      0.767078   203A      0.778961  
     204A      0.780044   205A      0.792776   206A      0.802177  
     207A      0.805740   208A      0.814856   209A      0.819613  
     210A      0.823972   211A      0.831898   212A      0.832527  
     213A      0.842003   214A      0.848578   215A      0.852379  
     216A      0.861783   217A      0.872444   218A      0.875031  
     219A      0.875253   220A      0.882492   221A      0.884534  
     222A      0.889294   223A      0.893072   224A      0.894125  
     225A      0.903058   226A      0.903849   227A      0.907545  
     228A      0.913886   229A      0.914687   230A      0.915453  
     231A      0.923213   232A      0.929269   233A      0.936267  
     234A      0.939479   235A      0.951251   236A      0.954314  
     237A      0.958828   238A      0.963883   239A      0.967669  
     240A      0.968805   241A      0.977782   242A      0.978991  
     243A      0.985845   244A      0.990576   245A      0.993514  
     246A      1.006954   247A      1.007298   248A      1.008824  
     249A      1.015724   250A      1.016417   251A      1.022372  
     252A      1.025870   253A      1.029245   254A      1.035730  
     255A      1.037554   256A      1.042410   257A      1.047129  
     258A      1.051238   259A      1.056953   260A      1.061565  
     261A      1.074176   262A      1.074941   263A      1.082426  
     264A      1.086663   265A      1.088965   266A      1.095751  
     267A      1.100193   268A      1.101085   269A      1.103277  
     270A      1.109174   271A      1.115195   272A      1.116877  
     273A      1.130667   274A      1.139077   275A      1.139264  
     276A      1.141216   277A      1.155111   278A      1.158471  
     279A      1.166041   280A      1.175537   281A      1.177441  
     282A      1.180414   283A      1.187366   284A      1.188164  
     285A      1.193640   286A      1.199914   287A      1.204840  
     288A      1.206553   289A      1.209760   290A      1.217318  
     291A      1.218940   292A      1.224755   293A      1.233683  
     294A      1.234006   295A      1.241782   296A      1.242677  
     297A      1.253338   298A      1.264945   299A      1.265056  
     300A      1.280029   301A      1.282784   302A      1.283423  
     303A      1.297134   304A      1.300822   305A      1.305201  
     306A      1.305483   307A      1.307370   308A      1.318708  
     309A      1.321768   310A      1.334629   311A      1.345405  
     312A      1.350120   313A      1.364415   314A      1.367116  
     315A      1.375960   316A      1.384635   317A      1.390692  
     318A      1.397422   319A      1.401595   320A      1.403793  
     321A      1.427690   322A      1.436685   323A      1.446928  
     324A      1.448378   325A      1.453885   326A      1.468038  
     327A      1.471351   328A      1.482743   329A      1.483657  
     330A      1.499779   331A      1.500614   332A      1.519422  
     333A      1.521319   334A      1.531331   335A      1.536682  
     336A      1.545934   337A      1.549482   338A      1.577389  
     339A      1.579949   340A      1.584074   341A      1.590534  
     342A      1.604290   343A      1.615252   344A      1.621293  
     345A      1.635039   346A      1.648732   347A      1.649927  
     348A      1.664410   349A      1.666780   350A      1.674621  
     351A      1.687249   352A      1.696191   353A      1.703501  
     354A      1.707376   355A      1.710868   356A      1.714506  
     357A      1.718536   358A      1.725496   359A      1.731554  
     360A      1.743408   361A      1.748751   362A      1.756640  
     363A      1.778886   364A      1.779886   365A      1.797853  
     366A      1.804158   367A      1.808914   368A      1.815942  
     369A      1.823765   370A      1.831188   371A      1.837041  
     372A      1.848648   373A      1.850856   374A      1.864471  
     375A      1.868929   376A      1.877256   377A      1.889196  
     378A      1.899889   379A      1.910564   380A      1.911999  
     381A      1.921727   382A      1.933017   383A      1.938119  
     384A      1.951462   385A      1.962151   386A      1.965972  
     387A      1.981438   388A      1.983674   389A      1.990514  
     390A      1.999050   391A      2.013010   392A      2.015807  
     393A      2.021794   394A      2.024669   395A      2.028640  
     396A      2.030059   397A      2.044238   398A      2.046829  
     399A      2.051025   400A      2.063316   401A      2.067440  
     402A      2.070412   403A      2.085456   404A      2.087766  
     405A      2.089706   406A      2.108854   407A      2.111315  
     408A      2.116863   409A      2.126013   410A      2.129035  
     411A      2.129456   412A      2.154184   413A      2.155068  
     414A      2.169760   415A      2.176321   416A      2.186986  
     417A      2.193201   418A      2.193722   419A      2.193768  
     420A      2.212396   421A      2.219530   422A      2.231119  
     423A      2.245019   424A      2.246419   425A      2.256878  
     426A      2.263451   427A      2.281033   428A      2.289780  
     429A      2.301622   430A      2.314891   431A      2.322992  
     432A      2.326572   433A      2.350132   434A      2.364501  
     435A      2.365500   436A      2.372079   437A      2.375510  
     438A      2.394666   439A      2.397777   440A      2.405614  
     441A      2.417309   442A      2.434457   443A      2.439712  
     444A      2.443616   445A      2.465832   446A      2.477013  
     447A      2.493548   448A      2.503905   449A      2.506067  
     450A      2.514910   451A      2.538757   452A      2.550458  
     453A      2.557262   454A      2.579635   455A      2.587606  
     456A      2.589386   457A      2.601873   458A      2.623668  
     459A      2.664350   460A      2.666240   461A      2.683474  
     462A      2.709637   463A      2.735912   464A      2.736904  
     465A      2.776179   466A      2.779599   467A      2.800238  
     468A      2.808191   469A      2.823460   470A      2.852232  
     471A      2.852316   472A      2.865153   473A      2.919147  
     474A      2.923698   475A      2.945523   476A      3.008579  
     477A      3.020342   478A      3.033802   479A      3.059817  
     480A      3.085116   481A      3.114631   482A      3.139972  
     483A      3.173275   484A      3.187308   485A      3.212009  
     486A      3.215804   487A      3.221944   488A      3.229252  
     489A      3.248743   490A      3.265889   491A      3.287553  
     492A      3.301765   493A      3.322405   494A      3.333639  
     495A      3.337131   496A      3.352325   497A      3.358360  
     498A      3.365117   499A      3.367934   500A      3.383376  
     501A      3.399500   502A      3.401290   503A      3.415859  
     504A      3.417105   505A      3.435162   506A      3.448991  
     507A      3.454003   508A      3.461344   509A      3.475620  
     510A      3.491945   511A      3.492809   512A      3.508646  
     513A      3.512402   514A      3.515517   515A      3.528721  
     516A      3.537425   517A      3.540527   518A      3.551087  
     519A      3.553731   520A      3.569257   521A      3.576705  
     522A      3.586303   523A      3.587600   524A      3.603109  
     525A      3.615632   526A      3.617497   527A      3.635019  
     528A      3.643660   529A      3.649441   530A      3.677092  
     531A      3.677293   532A      3.681474   533A      3.684069  
     534A      3.703114   535A      3.718153   536A      3.721723  
     537A      3.755885   538A      3.766742   539A      3.768798  
     540A      3.776100   541A      3.778636   542A      3.784697  
     543A      3.785141   544A      3.809494   545A      3.817514  
     546A      3.824873   547A      3.837098   548A      3.844997  
     549A      3.865032   550A      3.867988   551A      3.869052  
     552A      3.881991   553A      3.882530   554A      3.885286  
     555A      3.909748   556A      3.910371   557A      3.927792  
     558A      3.931542   559A      3.932908   560A      3.944956  
     561A      3.948284   562A      3.949589   563A      3.960511  
     564A      3.978322   565A      3.993452   566A      3.999255  
     567A      4.003680   568A      4.005802   569A      4.019952  
     570A      4.023950   571A      4.030122   572A      4.031561  
     573A      4.050379   574A      4.051650   575A      4.076066  
     576A      4.079160   577A      4.101471   578A      4.112755  
     579A      4.113603   580A      4.122280   581A      4.132692  
     582A      4.155891   583A      4.160300   584A      4.175309  
     585A      4.187965   586A      4.189716   587A      4.194921  
     588A      4.201480   589A      4.207441   590A      4.214244  
     591A      4.218564   592A      4.230595   593A      4.238353  
     594A      4.244981   595A      4.253398   596A      4.271723  
     597A      4.283083   598A      4.294091   599A      4.296169  
     600A      4.310890   601A      4.312418   602A      4.326349  
     603A      4.342508   604A      4.352388   605A      4.358484  
     606A      4.364743   607A      4.377806   608A      4.378774  
     609A      4.409995   610A      4.414697   611A      4.424545  
     612A      4.437736   613A      4.443381   614A      4.451130  
     615A      4.456991   616A      4.461987   617A      4.465613  
     618A      4.468855   619A      4.487381   620A      4.493211  
     621A      4.501965   622A      4.509892   623A      4.535288  
     624A      4.548030   625A      4.551135   626A      4.553642  
     627A      4.567123   628A      4.596472   629A      4.609335  
     630A      4.622275   631A      4.643575   632A      4.652059  
     633A      4.657305   634A      4.695712   635A      4.711392  
     636A      4.719909   637A      4.721395   638A      4.731210  
     639A      4.737321   640A      4.740352   641A      4.775992  
     642A      4.790200   643A      4.803982   644A      4.811167  
     645A      4.816719   646A      4.841617   647A      4.874414  
     648A      4.881307   649A      4.886953   650A      4.923208  
     651A      4.924016   652A      4.935768   653A      4.955389  
     654A      4.959453   655A      4.984565   656A      4.985440  
     657A      4.995732   658A      5.014820   659A      5.023946  
     660A      5.032159   661A      5.044557   662A      5.071079  
     663A      5.091692   664A      5.096804   665A      5.105619  
     666A      5.110339   667A      5.119585   668A      5.139213  
     669A      5.144551   670A      5.145983   671A      5.150086  
     672A      5.160215   673A      5.171163   674A      5.178305  
     675A      5.181690   676A      5.195304   677A      5.201308  
     678A      5.213145   679A      5.238840   680A      5.253680  
     681A      5.292991   682A      5.303416   683A      5.322480  
     684A      5.332982   685A      5.352332   686A      5.352709  
     687A      5.375993   688A      5.410427   689A      5.412170  
     690A      5.429474   691A      5.455394   692A      5.463738  
     693A      5.465013   694A      5.504132   695A      5.525421  
     696A      5.526307   697A      5.557361   698A      5.562795  
     699A      5.582752   700A      5.617737   701A      5.661147  
     702A      5.696830   703A      5.708280   704A      5.744691  
     705A      5.761723   706A      5.771530   707A      5.791898  
     708A      5.798954   709A      5.812371   710A      5.845277  
     711A      5.868745   712A      5.878962   713A      5.907122  
     714A      5.910540   715A      5.915467   716A      5.983421  
     717A      5.990618   718A      6.084527   719A      6.160230  
     720A      6.181507   721A      6.186319   722A      6.224149  
     723A      6.284591   724A      6.286211   725A      6.310270  
     726A      6.339898   727A      6.425135   728A      6.452572  
     729A      6.477216   730A      6.521668   731A      6.547861  
     732A      6.581167   733A      6.651139   734A      6.666987  
     735A      6.720300   736A      6.746392   737A      6.750347  
     738A      6.770363   739A      6.900958   740A      6.907218  
     741A      6.956539   742A      7.019492   743A      7.026968  
     744A      7.101057   745A      7.191804   746A      7.335953  
     747A      7.483309   748A     15.622210   749A     16.303034  
     750A     16.910152   751A     17.233386   752A     18.574860  
     753A     18.863308   754A     19.162825   755A     19.604019  
     756A     20.223947   757A     20.416253   758A     20.729190  
     759A     21.647256  

    Final Occupation by Irrep:
              A 
    DOCC [    41 ]

  Energy converged.

  @DF-RHF Final Energy:  -476.39161534903769

   => Energetics <=

    Nuclear Repulsion Energy =            607.4075556506543307
    One-Electron Energy =               -1848.4813512997093312
    Two-Electron Energy =                 764.6821803000173077
    DFT Exchange-Correlation Energy =       0.0000000000000000
    Empirical Dispersion Energy =           0.0000000000000000
    PCM Polarization Energy =               0.0000000000000000
    EFP Energy =                            0.0000000000000000
    Total Energy =                       -476.3916153490376928



Properties will be evaluated at   0.000000,   0.000000,   0.000000 Bohr

Properties computed using the SCF density matrix

  Nuclear Dipole Moment: (a.u.)
     X:   275.4257      Y:  -168.9302      Z:   524.6881

  Electronic Dipole Moment: (a.u.)
     X:  -275.3906      Y:   168.9466      Z:  -525.8490

  Dipole Moment: (a.u.)
     X:     0.0351      Y:     0.0164      Z:    -1.1609     Total:     1.1616

  Dipole Moment: (Debye)
     X:     0.0891      Y:     0.0416      Z:    -2.9507     Total:     2.9524


*** tstop() called on gpu-1-16.local at Tue Nov 14 22:52:03 2017
Module time:
	user time   =    1142.01 seconds =      19.03 minutes
	system time =       9.92 seconds =       0.17 minutes
	total time  =        406 seconds =       6.77 minutes
Total time:
	user time   =    1142.02 seconds =      19.03 minutes
	system time =       9.92 seconds =       0.17 minutes
	total time  =        406 seconds =       6.77 minutes

  //>>>>>>>>>>>>>>>>>>>>>>>>>>>>>>>>>>>//
  //               DFMP2               //
  //<<<<<<<<<<<<<<<<<<<<<<<<<<<<<<<<<<<//

   => Loading Basis Set <=

    Name: (AUG-CC-PVTZ AUX)
    Role: RIFIT
    Keyword: DF_BASIS_MP2
    atoms 1-11  entry C          line   147 file /cbio/jclab/home/chayas/anaconda/envs/py35/share/psi4/basis/aug-cc-pvtz-ri.gbs 
    atoms 12    entry N          line   205 file /cbio/jclab/home/chayas/anaconda/envs/py35/share/psi4/basis/aug-cc-pvtz-ri.gbs 
    atoms 13-21 entry H          line    29 file /cbio/jclab/home/chayas/anaconda/envs/py35/share/psi4/basis/aug-cc-pvtz-ri.gbs 

	 --------------------------------------------------------
	                          DF-MP2                         
	      2nd-Order Density-Fitted Moller-Plesset Theory     
	              RMP2 Wavefunction,   8 Threads             
	                                                         
	        Rob Parrish, Justin Turney, Andy Simmonett,      
	           Ed Hohenstein, and C. David Sherrill          
	 --------------------------------------------------------

   => Auxiliary Basis Set <=

  Basis Set: (AUG-CC-PVTZ AUX)
    Blend: AUG-CC-PVTZ-RI
    Number of shells: 462
    Number of basis function: 1686
    Number of Cartesian functions: 2127
    Spherical Harmonics?: true
    Max angular momentum: 4

	 --------------------------------------------------------
	                 NBF =   759, NAUX =  1686
	 --------------------------------------------------------
	   CLASS    FOCC     OCC    AOCC    AVIR     VIR    FVIR
	   PAIRS       0      41      41     718     718       0
	 --------------------------------------------------------


         ------------------------------------------------------------
                                     CPHF                           
                                  Rob Parrish                       
         ------------------------------------------------------------

  ==> Geometry <==

    Molecular point group: c1
    Full point group: C1

    Geometry (in Angstrom), charge = 0, multiplicity = 1:

       Center              X                  Y                   Z               Mass       
    ------------   -----------------  -----------------  -----------------  -----------------
           C          1.885000000000    -1.036000000000    -0.112000000000    12.000000000000
           C          0.807000000000    -0.463000000000     0.561000000000    12.000000000000
           C          2.921000000000    -1.631000000000     0.608000000000    12.000000000000
           C          0.764000000000    -0.484000000000     1.955000000000    12.000000000000
           C          2.878000000000    -1.652000000000     2.002000000000    12.000000000000
           C          0.567000000000    -0.822000000000     4.788000000000    12.000000000000
           C          2.900000000000    -1.401000000000     4.851000000000    12.000000000000
           C          0.576000000000    -0.858000000000     6.173000000000    12.000000000000
           C          2.805000000000    -1.411000000000     6.233000000000    12.000000000000
           C          1.800000000000    -1.079000000000     2.676000000000    12.000000000000
           C          1.755000000000    -1.100000000000     4.122000000000    12.000000000000
           N          1.668000000000    -1.146000000000     6.915000000000    14.003074004780
           H          1.917000000000    -1.021000000000    -1.198000000000     1.007825032070
           H         -0.001000000000    -0.002000000000     0.000000000000     1.007825032070
           H          3.760000000000    -2.079000000000     0.084000000000     1.007825032070
           H         -0.084000000000    -0.033000000000     2.466000000000     1.007825032070
           H          3.693000000000    -2.120000000000     2.550000000000     1.007825032070
           H         -0.348000000000    -0.584000000000     4.253000000000     1.007825032070
           H          3.845000000000    -1.623000000000     4.365000000000     1.007825032070
           H         -0.326000000000    -0.650000000000     6.739000000000     1.007825032070
           H          3.669000000000    -1.638000000000     6.847000000000     1.007825032070

  Nuclear repulsion =  607.407555650654331
  Reference energy  = -476.391615349037693

  ==> Basis Set <==

  Basis Set: AUG-CC-PVTZ
    Blend: AUG-CC-PVTZ
    Number of shells: 249
    Number of basis function: 759
    Number of Cartesian functions: 885
    Spherical Harmonics?: true
    Max angular momentum: 3

  ==> CGRSolver (by Rob Parrish) <==

   Number of roots    =         1
   Preconditioning    =    JACOBI
   Convergence cutoff =     1E-06
   Maximum iterations =       100

  ==> CPHFRHamiltonian (by Rob Parrish) <== 

  ==> DFJK: Density-Fitted J/K Matrices <==

    J tasked:                  Yes
    K tasked:                  Yes
    wK tasked:                  No
    OpenMP threads:              8
    Integrals threads:           8
    Memory (MB):              5722
    Algorithm:                Core
    Integral Cache:           NONE
    Schwarz Cutoff:          1E-12
    Fitting Condition:       1E-12

   => Auxiliary Basis Set <=

  Basis Set: (AUG-CC-PVTZ AUX)
    Blend: AUG-CC-PVTZ-JKFIT
    Number of shells: 486
    Number of basis function: 1662
    Number of Cartesian functions: 2067
    Spherical Harmonics?: true
    Max angular momentum: 4

  ==> CPHF Iterations <==

  => Iterations <=

             Iter  Converged  Remaining    Residual
  CGR           1          0          1   8.342E-02
  CGR           2          0          1   3.260E-02
  CGR           3          0          1   2.299E-02
  CGR           4          0          1   9.554E-03
  CGR           5          0          1   2.880E-03
  CGR           6          0          1   1.175E-03
  CGR           7          0          1   5.456E-04
  CGR           8          0          1   2.360E-04
  CGR           9          0          1   1.077E-04
  CGR          10          0          1   3.965E-05
  CGR          11          0          1   8.732E-06
  CGR          12          0          1   3.312E-06
  CGR          13          1          0   8.640E-07

    CGRSolver converged.

  ==> DFCorrGrad: Density-Fitted Correlated Gradients <==

    OpenMP threads:              8
    Integrals threads:           8
    Memory (MB):              5722
    Schwarz Cutoff:          0E+00
    Fitting Condition:       1E-12

   => Auxiliary Basis Set <=

  Basis Set: (AUG-CC-PVTZ AUX)
    Blend: AUG-CC-PVTZ-JKFIT
    Number of shells: 486
    Number of basis function: 1662
    Number of Cartesian functions: 2067
    Spherical Harmonics?: true
    Max angular momentum: 4

	-----------------------------------------------------------
	 ==================> DF-MP2 Energies <==================== 
	-----------------------------------------------------------
	 Reference Energy          =    -476.3916153490376928 [Eh]
	 Singles Energy            =      -0.0000000000000001 [Eh]
	 Same-Spin Energy          =      -0.5358407359234975 [Eh]
	 Opposite-Spin Energy      =      -1.6446827293135238 [Eh]
	 Correlation Energy        =      -2.1805234652370213 [Eh]
	 Total Energy              =    -478.5721388142746946 [Eh]
	-----------------------------------------------------------
	 ================> DF-SCS-MP2 Energies <================== 
	-----------------------------------------------------------
	 SCS Same-Spin Scale       =       0.3333333333333333 [-]
	 SCS Opposite-Spin Scale   =       1.2000000000000000 [-]
	 SCS Same-Spin Energy      =      -0.1786135786411658 [Eh]
	 SCS Opposite-Spin Energy  =      -1.9736192751762285 [Eh]
	 SCS Correlation Energy    =      -2.1522328538173943 [Eh]
	 SCS Total Energy          =    -478.5438482028550879 [Eh]
	-----------------------------------------------------------


  -Total Gradient:
     Atom            X                  Y                   Z
    ------   -----------------  -----------------  -----------------
       1       -0.000443581162     0.000407737004     0.000704134989
       2       -0.000084216348     0.000650351396    -0.002710566257
       3        0.001136558870    -0.000890632450    -0.002540538975
       4        0.000700610704     0.000215300523     0.012633592636
       5       -0.002040069370    -0.000181123732     0.012692427315
       6       -0.002965891503     0.000356778195    -0.010741618631
       7        0.004276760640    -0.000110063738    -0.010578512046
       8       -0.006837652762     0.001762123933    -0.009912546043
       9        0.008278691622    -0.001830261730    -0.009497211898
      10        0.000430436581    -0.000693111035     0.006068117637
      11       -0.000327750687     0.000194627462     0.004450005671
      12       -0.000868398240    -0.000120108356     0.015820814359
      13        0.000083120562     0.000028741157    -0.004910416310
      14       -0.003817959422     0.001768120144    -0.002449184641
      15        0.003683405313    -0.001772058666    -0.002132214795
      16       -0.007037908207     0.001948603969     0.004381943902
      17        0.006698195586    -0.002072246106     0.004731024073
      18       -0.005579713160     0.002996555889    -0.004928839201
      19        0.005382835798    -0.002763051438    -0.004596699956
      20       -0.001862034532     0.000503179243     0.001871467452
      21        0.001194559709    -0.000399461664     0.001644820711


*** tstop() called on gpu-1-16.local at Tue Nov 14 23:22:22 2017
Module time:
	user time   =    5365.29 seconds =      89.42 minutes
	system time =      39.80 seconds =       0.66 minutes
	total time  =       2225 seconds =      37.08 minutes
Total time:
	user time   =    5365.30 seconds =      89.42 minutes
	system time =      39.80 seconds =       0.66 minutes
	total time  =       2225 seconds =      37.08 minutes

			-----------------------------------------
			 OPTKING 2.0: for geometry optimizations 
			  - R.A. King,  Bethel University        
			-----------------------------------------

	Internal coordinates to be generated automatically.
	Detected frag 1 with atoms:  1 2 3 4 5 6 7 8 9 10 11 12 13 14 15 16 17 18 19 20
	 21
	---Fragment 1 Bond Connectivity---
	 1 : 2 3 13
	 2 : 1 4 14
	 3 : 1 5 15
	 4 : 2 10 16
	 5 : 3 10 17
	 6 : 8 11 18
	 7 : 9 11 19
	 8 : 6 12 20
	 9 : 7 12 21
	 10 : 4 5 11
	 11 : 6 7 10
	 12 : 8 9
	 13 : 1
	 14 : 2
	 15 : 3
	 16 : 4
	 17 : 5
	 18 : 6
	 19 : 7
	 20 : 8
	 21 : 9

	Assuming in current code that numbering for constraints corresponds to unified fragment.
	---Fragment 1 Geometry and Gradient---
	 C           3.5621337605       -1.9577562737       -0.2116493269
	 C           1.5250089892       -0.8749431995        1.0601363605
	 C           5.5198900342       -3.0821433227        1.1489534888
	 C           1.4437507655       -0.9146274483        3.6944145898
	 C           5.4386318104       -3.1218275715        3.7832317180
	 C           1.0714747173       -1.5533548812        9.0480087243
	 C           5.4802057854       -2.6475063122        9.1670614706
	 C           1.0884822525       -1.6213850220       11.6652794183
	 C           5.3006818027       -2.6664035735       11.7786629863
	 C           3.4015070392       -2.0390144974        5.0569071316
	 C           3.3164693632       -2.0786987462        7.7894511198
	 N           3.1520631897       -2.1656261483       13.0674562089
	 H           3.6226049967       -1.9294103817       -2.2638919072
	 H          -0.0018897261       -0.0037794523        0.0000000000
	 H           7.1053702597       -3.9287406303        0.1587369952
	 H          -0.1587369952       -0.0623609624        4.6600646437
	 H           6.9787586087       -4.0062194017        4.8188016389
	 H          -0.6576246942       -1.1036000616        8.0370052432
	 H           7.2659969809       -3.0670255137        8.2486545700
	 H          -0.6160507193       -1.2283219864       12.7348644095
	 H           6.9334051816       -3.0953714057       12.9389548319
	            -0.0004435812        0.0004077370        0.0007041350
	            -0.0000842163        0.0006503514       -0.0027105663
	             0.0011365589       -0.0008906325       -0.0025405390
	             0.0007006107        0.0002153005        0.0126335926
	            -0.0020400694       -0.0001811237        0.0126924273
	            -0.0029658915        0.0003567782       -0.0107416186
	             0.0042767606       -0.0001100637       -0.0105785120
	            -0.0068376528        0.0017621239       -0.0099125460
	             0.0082786916       -0.0018302617       -0.0094972119
	             0.0004304366       -0.0006931110        0.0060681176
	            -0.0003277507        0.0001946275        0.0044500057
	            -0.0008683982       -0.0001201084        0.0158208144
	             0.0000831206        0.0000287412       -0.0049104163
	            -0.0038179594        0.0017681201       -0.0024491846
	             0.0036834053       -0.0017720587       -0.0021322148
	            -0.0070379082        0.0019486040        0.0043819439
	             0.0066981956       -0.0020722461        0.0047310241
	            -0.0055797132        0.0029965559       -0.0049288392
	             0.0053828358       -0.0027630514       -0.0045967000
	            -0.0018620345        0.0005031792        0.0018714675
	             0.0011945597       -0.0003994617        0.0016448207

	Previous optimization step data not found.  Starting new optimization.

	---Fragment 1 Intrafragment Coordinates---
	 - Coordinate -           - BOHR/RAD -       - ANG/DEG -
	 R(1,X)           =         3.562134	       1.885000
	 R(1,Y)           =        -1.957756	      -1.036000
	 R(1,Z)           =        -0.211649	      -0.112000
	 R(2,X)           =         1.525009	       0.807000
	 R(2,Y)           =        -0.874943	      -0.463000
	 R(2,Z)           =         1.060136	       0.561000
	 R(3,X)           =         5.519890	       2.921000
	 R(3,Y)           =        -3.082143	      -1.631000
	 R(3,Z)           =         1.148953	       0.608000
	*R(4,X)           =         1.443751	       0.764000
	*R(4,Y)           =        -0.914627	      -0.484000
	*R(4,Z)           =         3.694415	       1.955000
	 R(5,X)           =         5.438632	       2.878000
	 R(5,Y)           =        -3.121828	      -1.652000
	 R(5,Z)           =         3.783232	       2.002000
	*R(6,X)           =         1.071475	       0.567000
	*R(6,Y)           =        -1.553355	      -0.822000
	*R(6,Z)           =         9.048009	       4.788000
	 R(7,X)           =         5.480206	       2.900000
	 R(7,Y)           =        -2.647506	      -1.401000
	 R(7,Z)           =         9.167061	       4.851000
	 R(8,X)           =         1.088482	       0.576000
	 R(8,Y)           =        -1.621385	      -0.858000
	 R(8,Z)           =        11.665279	       6.173000
	 R(9,X)           =         5.300682	       2.805000
	 R(9,Y)           =        -2.666404	      -1.411000
	 R(9,Z)           =        11.778663	       6.233000
	*R(10,X)          =         3.401507	       1.800000
	*R(10,Y)          =        -2.039014	      -1.079000
	*R(10,Z)          =         5.056907	       2.676000
	*R(11,X)          =         3.316469	       1.755000
	*R(11,Y)          =        -2.078699	      -1.100000
	*R(11,Z)          =         7.789451	       4.122000
	 R(12,X)          =         3.152063	       1.668000
	 R(12,Y)          =        -2.165626	      -1.146000
	 R(12,Z)          =        13.067456	       6.915000
	 R(13,X)          =         3.622605	       1.917000
	 R(13,Y)          =        -1.929410	      -1.021000
	 R(13,Z)          =        -2.263892	      -1.198000
	 R(14,X)          =        -0.001890	      -0.001000
	 R(14,Y)          =        -0.003779	      -0.002000
	 R(14,Z)          =         0.000000	       0.000000
	 R(15,X)          =         7.105370	       3.760000
	 R(15,Y)          =        -3.928741	      -2.079000
	 R(15,Z)          =         0.158737	       0.084000
	 R(16,X)          =        -0.158737	      -0.084000
	 R(16,Y)          =        -0.062361	      -0.033000
	 R(16,Z)          =         4.660065	       2.466000
	 R(17,X)          =         6.978759	       3.693000
	 R(17,Y)          =        -4.006219	      -2.120000
	 R(17,Z)          =         4.818802	       2.550000
	 R(18,X)          =        -0.657625	      -0.348000
	 R(18,Y)          =        -1.103600	      -0.584000
	 R(18,Z)          =         8.037005	       4.253000
	 R(19,X)          =         7.265997	       3.845000
	 R(19,Y)          =        -3.067026	      -1.623000
	 R(19,Z)          =         8.248655	       4.365000
	 R(20,X)          =        -0.616051	      -0.326000
	 R(20,Y)          =        -1.228322	      -0.650000
	 R(20,Z)          =        12.734864	       6.739000
	 R(21,X)          =         6.933405	       3.669000
	 R(21,Y)          =        -3.095371	      -1.638000
	 R(21,Z)          =        12.938955	       6.847000

	Current energy   :      -478.5721388143

	Using model Hessian from Lindh (1995).
	 - Coordinate -           - BOHR/RAD -       - ANG/DEG -
	 R(1,2)           =         2.634350	       1.394038
	 R(1,3)           =         2.635962	       1.394891
	 R(1,13)          =         2.053329	       1.086575
	 R(2,4)           =         2.635830	       1.394821
	 R(2,14)          =         2.052860	       1.086327
	 R(3,5)           =         2.635830	       1.394821
	 R(3,15)          =         2.052073	       1.085910
	 R(4,10)          =         2.636938	       1.395407
	 R(4,16)          =         2.055920	       1.087946
	 R(5,10)          =         2.635263	       1.394521
	 R(5,17)          =         2.055856	       1.087912
	 R(6,8)           =         2.618210	       1.385497
	 R(6,11)          =         2.626776	       1.390030
	 R(6,18)          =         2.052850	       1.086321
	 R(7,9)           =         2.617833	       1.385297
	 R(7,11)          =         2.627377	       1.390348
	 R(7,19)          =         2.051467	       1.085590
	 R(8,12)          =         2.553559	       1.351285
	 R(8,20)          =         2.050352	       1.085000
	 R(9,12)          =         2.555059	       1.352079
	 R(9,21)          =         2.048433	       1.083984
	 R(10,11)         =         2.734155	       1.446852
	 R(12,20)         =         3.897158	       2.062287
	 R(12,21)         =         3.896086	       2.061720
	 R(16,18)         =         3.568865	       1.888562
	 R(17,19)         =         3.567700	       1.887945
	 B(1,2,4)         =         2.094553	     120.009056
	 B(1,2,14)        =         2.094726	     120.018942
	 B(1,3,5)         =         2.093692	     119.959722
	 B(1,3,15)        =         2.095250	     120.048965
	 B(2,1,3)         =         2.094940	     120.031219
	 B(2,1,13)        =         2.093950	     119.974480
	 B(2,4,10)        =         2.094306	     119.994870
	 B(2,4,16)        =         2.079681	     119.156970
	 B(3,1,13)        =         2.094293	     119.994160
	 B(3,5,10)        =         2.095181	     120.045019
	 B(3,5,17)        =         2.079222	     119.130634
	 B(4,2,14)        =         2.093904	     119.971849
	 B(4,10,5)        =         2.093699	     119.960108
	 B(4,10,11)       =         2.093804	     119.966144
	 B(4,16,18)       =         2.018001	     115.622938
	 B(5,3,15)        =         2.094242	     119.991253
	 B(5,10,11)       =         2.095682	     120.073736
	 B(5,17,19)       =         2.016756	     115.551598
	 B(6,8,12)        =         2.164817	     124.034856
	 B(6,8,20)        =         2.107250	     120.736505
	 B(6,11,7)        =         2.089688	     119.730311
	 B(6,11,10)       =         2.097311	     120.167045
	 B(6,18,16)       =         1.995642	     114.341874
	 B(7,9,12)        =         2.164532	     124.018559
	 B(7,9,21)        =         2.108229	     120.792623
	 B(7,11,10)       =         2.096185	     120.102532
	 B(7,19,17)       =         1.997789	     114.464861
	 B(8,6,11)        =         2.058056	     117.917912
	 B(8,6,18)        =         2.098413	     120.230186
	 B(8,12,9)        =         2.031265	     116.382904
	 B(8,12,20)       =         0.496022	      28.419979
	 B(8,12,21)       =         2.527106	     144.792484
	 B(8,20,12)       =         0.634452	      36.351415
	 B(9,7,11)        =         2.058013	     117.915451
	 B(9,7,19)        =         2.099990	     120.320554
	 B(9,12,20)       =         2.527286	     144.802827
	 B(9,12,21)       =         0.495842	      28.409628
	 B(9,21,12)       =         0.635328	      36.401637
	 B(10,4,16)       =         2.109198	     120.848149
	 B(10,5,17)       =         2.108782	     120.824331
	 B(11,6,18)       =         2.126716	     121.851825
	 B(11,7,19)       =         2.125183	     121.763994
	 B(12,8,20)       =         2.011119	     115.228607
	 B(12,9,21)       =         2.010423	     115.188735
	 B(20,12,21)      =         3.023128	     173.212453
	 D(1,2,4,10)      =        -0.000325	      -0.018609
	 D(1,2,4,16)      =        -3.141283	    -179.982244
	 D(1,3,5,10)      =         0.000325	       0.018608
	 D(1,3,5,17)      =         3.141117	     179.972749
	 D(2,1,3,5)       =        -0.000348	      -0.019945
	 D(2,1,3,15)      =         3.139689	     179.890913
	 D(2,4,10,5)      =         0.000301	       0.017261
	 D(2,4,10,11)     =         3.141198	     179.977407
	 D(2,4,16,18)     =         2.806751	     160.815008
	 D(3,1,2,4)       =         0.000348	       0.019955
	 D(3,1,2,14)      =        -3.138767	    -179.838124
	 D(3,5,10,4)      =        -0.000301	      -0.017270
	 D(3,5,10,11)     =        -3.141198	    -179.977373
	 D(3,5,17,19)     =         2.807020	     160.830398
	 D(4,2,1,13)      =         3.139559	     179.883471
	 D(4,10,5,17)     =        -3.141080	    -179.970623
	 D(4,10,11,6)     =         0.262934	      15.064992
	 D(4,10,11,7)     =        -2.880789	    -165.057031
	 D(4,16,18,6)     =         0.563995	      32.314515
	 D(5,3,1,13)      =        -3.139558	    -179.883434
	 D(5,10,4,16)     =         3.141248	     179.980271
	 D(5,10,11,6)     =        -2.879355	    -164.974908
	 D(5,10,11,7)     =         0.260108	      14.903069
	 D(5,17,19,7)     =         0.565809	      32.418448
	 D(6,8,12,9)      =        -0.000484	      -0.027734
	 D(6,8,12,20)     =        -3.140465	    -179.935372
	 D(6,8,12,21)     =         0.000752	       0.043065
	 D(6,8,20,12)     =         3.140505	     179.937690
	 D(6,11,7,9)      =         0.000147	       0.008400
	 D(6,11,7,19)     =        -3.141391	    -179.988431
	 D(7,9,12,8)      =         0.000320	       0.018363
	 D(7,9,12,20)     =         0.001652	       0.094627
	 D(7,9,12,21)     =        -3.139775	    -179.895843
	 D(7,9,21,12)     =         3.139839	     179.899501
	 D(7,11,6,8)      =        -0.000293	      -0.016794
	 D(7,11,6,18)     =        -3.140131	    -179.916241
	 D(8,6,11,10)     =         3.139178	     179.861639
	 D(8,6,18,16)     =         2.812801	     161.161639
	 D(8,12,9,21)     =         3.140095	     179.914206
	 D(8,12,21,9)     =        -0.002327	      -0.133310
	 D(8,20,12,9)     =        -0.002505	      -0.143553
	 D(8,20,12,21)    =        -0.001836	      -0.105190
	 D(9,7,11,10)     =        -3.139326	    -179.870112
	 D(9,7,19,17)     =         2.808721	     160.927855
	 D(9,12,8,20)     =         3.139981	     179.907637
	 D(9,21,12,20)    =        -0.000811	      -0.046476
	 D(10,4,2,14)     =         3.138792	     179.839537
	 D(10,4,16,18)    =        -0.334201	     -19.148308
	 D(10,5,3,15)     =        -3.139713	    -179.892302
	 D(10,5,17,19)    =        -0.335379	     -19.215828
	 D(10,11,6,18)    =        -0.000660	      -0.037808
	 D(10,11,7,19)    =         0.002322	       0.133057
	 D(11,6,8,12)     =         0.000481	       0.027547
	 D(11,6,8,20)     =        -3.139925	    -179.904434
	 D(11,6,18,16)    =        -0.330586	     -18.941196
	 D(11,7,9,12)     =        -0.000165	      -0.009427
	 D(11,7,9,21)     =        -3.139842	    -179.899706
	 D(11,7,19,17)    =        -0.332928	     -19.075389
	 D(11,10,4,16)    =        -0.001040	      -0.059583
	 D(11,10,5,17)    =         0.001209	       0.069274
	 D(12,8,6,18)     =         3.140348	     179.928693
	 D(12,9,7,19)     =         3.141374	     179.987452
	 D(13,1,2,14)     =         0.000443	       0.025392
	 D(13,1,3,15)     =         0.000479	       0.027424
	 D(14,2,4,16)     =        -0.002166	      -0.124098
	 D(15,3,5,17)     =         0.001079	       0.061840
	 D(18,6,8,20)     =        -0.000057	      -0.003289
	 D(19,7,9,21)     =         0.001696	       0.097173
	 D(20,8,12,21)    =         3.141216	     179.978437
	 D(20,12,9,21)    =         3.141426	     179.990470

	Taking RFO optimization step.
	Going to follow RFO solution 1.
	Using RFO vector 1.
	Norm of target step-size    0.41700
	Projected energy change by RFO approximation:        -0.0117735366

	Back-transformation to cartesian coordinates...
	Successfully converged to displaced geometry.

	Back-transformation to cartesian coordinates to adjust frozen coordinates...
	Successfully converged to displaced geometry.

	--- Internal Coordinate Step in ANG or DEG, aJ/ANG or AJ/DEG ---
	 ---------------------------------------------------------------------------
	   Coordinate                Previous        Force       Change         New 
	   ----------                --------       ------       ------       ------
	    1 R(1,X)          =      1.885000     0.003655    -0.027195     1.857805
	    2 R(1,Y)          =     -1.036000    -0.003359     0.009392    -1.026608
	    3 R(1,Z)          =     -0.112000    -0.005801    -0.011555    -0.123555
	    4 R(2,X)          =      0.807000     0.000694    -0.013447     0.793553
	    5 R(2,Y)          =     -0.463000    -0.005358     0.004773    -0.458227
	    6 R(2,Z)          =      0.561000     0.022332     0.004485     0.565485
	    7 R(3,X)          =      2.921000    -0.009364    -0.029070     2.891930
	    8 R(3,Y)          =     -1.631000     0.007338     0.005307    -1.625693
	    9 R(3,Z)          =      0.608000     0.020931    -0.025041     0.582959
	   10 *R(4,X)         =      0.764000     0.000000     0.000000     0.764000
	   11 *R(4,Y)         =     -0.484000     0.000000     0.000000    -0.484000
	   12 *R(4,Z)         =      1.955000     0.000000     0.000000     1.955000
	   13 R(5,X)          =      2.878000     0.016808    -0.019868     2.858132
	   14 R(5,Y)          =     -1.652000     0.001492    -0.003123    -1.655123
	   15 R(5,Z)          =      2.002000    -0.104569    -0.031923     1.970077
	   16 *R(6,X)         =      0.567000     0.000000     0.000000     0.567000
	   17 *R(6,Y)         =     -0.822000     0.000000     0.000000    -0.822000
	   18 *R(6,Z)         =      4.788000     0.000000     0.000000     4.788000
	   19 R(7,X)          =      2.900000    -0.035235    -0.023005     2.876995
	   20 R(7,Y)          =     -1.401000     0.000907     0.019971    -1.381029
	   21 R(7,Z)          =      4.851000     0.087153     0.047594     4.898594
	   22 R(8,X)          =      0.576000     0.056334    -0.023267     0.552733
	   23 R(8,Y)          =     -0.858000    -0.014518     0.007255    -0.850745
	   24 R(8,Z)          =      6.173000     0.081667     0.001237     6.174237
	   25 R(9,X)          =      2.805000    -0.068206    -0.041885     2.763115
	   26 R(9,Y)          =     -1.411000     0.015079     0.023002    -1.387998
	   27 R(9,Z)          =      6.233000     0.078245     0.044498     6.277498
	   28 *R(10,X)        =      1.800000     0.000000     0.000000     1.800000
	   29 *R(10,Y)        =     -1.079000     0.000000     0.000000    -1.079000
	   30 *R(10,Z)        =      2.676000     0.000000     0.000000     2.676000
	   31 *R(11,X)        =      1.755000     0.000000     0.000000     1.755000
	   32 *R(11,Y)        =     -1.100000     0.000000     0.000000    -1.100000
	   33 *R(11,Z)        =      4.122000     0.000000     0.000000     4.122000
	   34 R(12,X)         =      1.668000     0.007154    -0.045102     1.622898
	   35 R(12,Y)         =     -1.146000     0.000990     0.016393    -1.129607
	   36 R(12,Z)         =      6.915000    -0.130343     0.018255     6.933255
	   37 R(13,X)         =      1.917000    -0.000685    -0.034382     1.882618
	   38 R(13,Y)         =     -1.021000    -0.000237     0.018676    -1.002324
	   39 R(13,Z)         =     -1.198000     0.040456    -0.006233    -1.204233
	   40 R(14,X)         =     -0.001000     0.031455    -0.005656    -0.006656
	   41 R(14,Y)         =     -0.002000    -0.014567     0.022440     0.020440
	   42 R(14,Z)         =      0.000000     0.020178     0.018098     0.018098
	   43 R(15,X)         =      3.760000    -0.030347    -0.041259     3.718741
	   44 R(15,Y)         =     -2.079000     0.014599    -0.000275    -2.079275
	   45 R(15,Z)         =      0.084000     0.017567    -0.029766     0.054234
	   46 R(16,X)         =     -0.084000     0.057983     0.032561    -0.051439
	   47 R(16,Y)         =     -0.033000    -0.016054     0.039974     0.006974
	   48 R(16,Z)         =      2.466000    -0.036102    -0.000512     2.465488
	   49 R(17,X)         =      3.693000    -0.055185    -0.039672     3.653328
	   50 R(17,Y)         =     -2.120000     0.017073    -0.043694    -2.163694
	   51 R(17,Z)         =      2.550000    -0.038978    -0.054327     2.495673
	   52 R(18,X)         =     -0.348000     0.045970    -0.002029    -0.350029
	   53 R(18,Y)         =     -0.584000    -0.024688    -0.045719    -0.629719
	   54 R(18,Z)         =      4.253000     0.040607     0.000174     4.253174
	   55 R(19,X)         =      3.845000    -0.044348    -0.005391     3.839609
	   56 R(19,Y)         =     -1.623000     0.022764     0.058045    -1.564955
	   57 R(19,Z)         =      4.365000     0.037871     0.080939     4.445939
	   58 R(20,X)         =     -0.326000     0.015341    -0.034980    -0.360980
	   59 R(20,Y)         =     -0.650000    -0.004146    -0.002634    -0.652634
	   60 R(20,Z)         =      6.739000    -0.015418    -0.019389     6.719611
	   61 R(21,X)         =      3.669000    -0.009842    -0.047310     3.621690
	   62 R(21,Y)         =     -1.638000     0.003291     0.033481    -1.604519
	   63 R(21,Z)         =      6.847000    -0.013551     0.052658     6.899658
	 ---------------------------------------------------------------------------
	Successfully symmetrized geometry.

  ==> Convergence Check <==

  Measures of convergence in internal coordinates in au.
  Criteria marked as inactive (o), active & met (*), and active & unmet ( ).
  --------------------------------------------------------------------------------------------- ~
   Step     Total Energy     Delta E     MAX Force     RMS Force      MAX Disp      RMS Disp    ~
  --------------------------------------------------------------------------------------------- ~
    Convergence Criteria    1.00e-06 *    3.00e-04 *             o    1.20e-03 *             o  ~
  --------------------------------------------------------------------------------------------- ~
      1    -478.57213881   -4.79e+02      1.58e-02      4.40e-03 o    1.53e-01      5.25e-02 o  ~
  ---------------------------------------------------------------------------------------------

	Writing optimization data to binary file.
	Structure for next step:
	Cartesian Geometry (in Angstrom)
	    C     1.8578045429  -1.0266082632  -0.1235554952
	    C     0.7935528186  -0.4582267868   0.5654848439
	    C     2.8919302586  -1.6256930773   0.5829590419
	    C     0.7640000000  -0.4840000000   1.9550000000
	    C     2.8581315661  -1.6551229526   1.9700766647
	    C     0.5670000000  -0.8220000000   4.7880000000
	    C     2.8769951265  -1.3810286503   4.8985940746
	    C     0.5527332752  -0.8507446993   6.1742373845
	    C     2.7631153223  -1.3879984433   6.2774975618
	    C     1.8000000000  -1.0790000000   2.6760000000
	    C     1.7550000000  -1.1000000000   4.1220000000
	    N     1.6228982134  -1.1296074254   6.9332547146
	    H     1.8826177224  -1.0023236825  -1.2042329908
	    H    -0.0066562595   0.0204402129   0.0180977872
	    H     3.7187405519  -2.0792747303   0.0542344634
	    H    -0.0514393098   0.0069743219   2.4654877002
	    H     3.6533279492  -2.1636944624   2.4956730794
	    H    -0.3500293458  -0.6297186253   4.2531744573
	    H     3.8396085801  -1.5649551638   4.4459388525
	    H    -0.3609796541  -0.6526344897   6.7196106000
	    H     3.6216901888  -1.6045194919   6.8996579476
			--------------------------
			 OPTKING Finished Execution 
			--------------------------

    Structure for next step:
    Molecular point group: c1
    Full point group: C1

    Geometry (in Angstrom), charge = 0, multiplicity = 1:

    C            1.857804542918    -1.026608263211    -0.123555495217
    C            0.793552818616    -0.458226786817     0.565484843868
    C            2.891930258554    -1.625693077299     0.582959041919
    C            0.764000000000    -0.484000000000     1.955000000000
    C            2.858131566114    -1.655122952595     1.970076664671
    C            0.567000000000    -0.822000000000     4.788000000000
    C            2.876995126502    -1.381028650326     4.898594074594
    C            0.552733275203    -0.850744699323     6.174237384509
    C            2.763115322332    -1.387998443289     6.277497561806
    C            1.800000000000    -1.079000000000     2.676000000000
    C            1.755000000000    -1.100000000000     4.122000000000
    N            1.622898213409    -1.129607425409     6.933254714604
    H            1.882617722375    -1.002323682483    -1.204232990806
    H           -0.006656259489     0.020440212883     0.018097787189
    H            3.718740551933    -2.079274730298     0.054234463373
    H           -0.051439309803     0.006974321928     2.465487700189
    H            3.653327949231    -2.163694462351     2.495673079421
    H           -0.350029345790    -0.629718625325     4.253174457332
    H            3.839608580080    -1.564955163813     4.445938852497
    H           -0.360979654085    -0.652634489729     6.719610599962
    H            3.621690188817    -1.604519491885     6.899657947604

gradient() will perform analytic gradient computation.

*** tstart() called on gpu-1-16.local
*** at Tue Nov 14 23:22:23 2017

    SCF Algorithm Type (re)set to DF.

*** tstart() called on gpu-1-16.local
*** at Tue Nov 14 23:22:23 2017

   => Loading Basis Set <=

    Name: AUG-CC-PVTZ
    Role: ORBITAL
    Keyword: BASIS
    atoms 1-11  entry C          line   221 file /cbio/jclab/home/chayas/anaconda/envs/py35/share/psi4/basis/aug-cc-pvtz.gbs 
    atoms 12    entry N          line   267 file /cbio/jclab/home/chayas/anaconda/envs/py35/share/psi4/basis/aug-cc-pvtz.gbs 
    atoms 13-21 entry H          line    34 file /cbio/jclab/home/chayas/anaconda/envs/py35/share/psi4/basis/aug-cc-pvtz.gbs 


         ---------------------------------------------------------
                                   SCF
            by Justin Turney, Rob Parrish, and Andy Simmonett
                              RHF Reference
                        8 Threads,   7629 MiB Core
         ---------------------------------------------------------

  ==> Geometry <==

    Molecular point group: c1
    Full point group: C1

    Geometry (in Angstrom), charge = 0, multiplicity = 1:

       Center              X                  Y                   Z               Mass       
    ------------   -----------------  -----------------  -----------------  -----------------
           C          1.857804542918    -1.026608263211    -0.123555495217    12.000000000000
           C          0.793552818616    -0.458226786817     0.565484843868    12.000000000000
           C          2.891930258554    -1.625693077299     0.582959041919    12.000000000000
           C          0.764000000000    -0.484000000000     1.955000000000    12.000000000000
           C          2.858131566114    -1.655122952595     1.970076664671    12.000000000000
           C          0.567000000000    -0.822000000000     4.788000000000    12.000000000000
           C          2.876995126502    -1.381028650326     4.898594074594    12.000000000000
           C          0.552733275203    -0.850744699323     6.174237384509    12.000000000000
           C          2.763115322332    -1.387998443289     6.277497561806    12.000000000000
           C          1.800000000000    -1.079000000000     2.676000000000    12.000000000000
           C          1.755000000000    -1.100000000000     4.122000000000    12.000000000000
           N          1.622898213409    -1.129607425409     6.933254714604    14.003074004780
           H          1.882617722375    -1.002323682483    -1.204232990806     1.007825032070
           H         -0.006656259489     0.020440212883     0.018097787189     1.007825032070
           H          3.718740551933    -2.079274730298     0.054234463373     1.007825032070
           H         -0.051439309803     0.006974321928     2.465487700189     1.007825032070
           H          3.653327949231    -2.163694462351     2.495673079421     1.007825032070
           H         -0.350029345790    -0.629718625325     4.253174457332     1.007825032070
           H          3.839608580080    -1.564955163813     4.445938852497     1.007825032070
           H         -0.360979654085    -0.652634489729     6.719610599962     1.007825032070
           H          3.621690188817    -1.604519491885     6.899657947604     1.007825032070

  Running in c1 symmetry.

  Rotational constants: A =      0.04954  B =      0.00527  C =      0.00478 [cm^-1]
  Rotational constants: A =   1485.14726  B =    157.95430  C =    143.16456 [MHz]
  Nuclear repulsion =  607.350462379908095

  Charge       = 0
  Multiplicity = 1
  Electrons    = 82
  Nalpha       = 41
  Nbeta        = 41

  ==> Algorithm <==

  SCF Algorithm Type is DF.
  DIIS enabled.
  MOM disabled.
  Fractional occupation disabled.
  Guess Type is READ.
  Energy threshold   = 1.00e-10
  Density threshold  = 1.00e-10
  Integral threshold = 0.00e+00

  ==> Primary Basis <==

  Basis Set: AUG-CC-PVTZ
    Blend: AUG-CC-PVTZ
    Number of shells: 249
    Number of basis function: 759
    Number of Cartesian functions: 885
    Spherical Harmonics?: true
    Max angular momentum: 3

   => Loading Basis Set <=

    Name: (AUG-CC-PVTZ AUX)
    Role: JKFIT
    Keyword: DF_BASIS_SCF
    atoms 1-11  entry C          line   161 file /cbio/jclab/home/chayas/anaconda/envs/py35/share/psi4/basis/aug-cc-pvtz-jkfit.gbs 
    atoms 12    entry N          line   223 file /cbio/jclab/home/chayas/anaconda/envs/py35/share/psi4/basis/aug-cc-pvtz-jkfit.gbs 
    atoms 13-21 entry H          line    69 file /cbio/jclab/home/chayas/anaconda/envs/py35/share/psi4/basis/aug-cc-pvtz-jkfit.gbs 

  Reading orbitals from file 180, no projection.

  ==> Pre-Iterations <==

   -------------------------------------------------------
    Irrep   Nso     Nmo     Nalpha   Nbeta   Ndocc  Nsocc
   -------------------------------------------------------
     A        759     759       0       0       0       0
   -------------------------------------------------------
    Total     759     759      41      41      41       0
   -------------------------------------------------------

  ==> Integral Setup <==

  ==> DFJK: Density-Fitted J/K Matrices <==

    J tasked:                  Yes
    K tasked:                  Yes
    wK tasked:                  No
    OpenMP threads:              8
    Integrals threads:           8
    Memory (MB):              5722
    Algorithm:                Core
    Integral Cache:           NONE
    Schwarz Cutoff:          1E-12
    Fitting Condition:       1E-12

   => Auxiliary Basis Set <=

  Basis Set: (AUG-CC-PVTZ AUX)
    Blend: AUG-CC-PVTZ-JKFIT
    Number of shells: 486
    Number of basis function: 1662
    Number of Cartesian functions: 2067
    Spherical Harmonics?: true
    Max angular momentum: 4

  Minimum eigenvalue in the overlap matrix is 4.4496583258E-07.
  Using Symmetric Orthogonalization.

  SCF Guess: Orbitals guess was supplied from a previous computation.

  ==> Iterations <==

                           Total Energy        Delta E     RMS |[F,P]|

   @DF-RHF iter   0:  -476.51246434456004   -4.76512e+02   7.94175e-04 
   @DF-RHF iter   1:  -476.39542391456115    1.17040e-01   1.66002e-04 
   @DF-RHF iter   2:  -476.39639683751523   -9.72923e-04   1.02167e-04 DIIS
   @DF-RHF iter   3:  -476.39684787530382   -4.51038e-04   1.75584e-05 DIIS
   @DF-RHF iter   4:  -476.39686851877684   -2.06435e-05   8.44015e-06 DIIS
   @DF-RHF iter   5:  -476.39687350571012   -4.98693e-06   2.49608e-06 DIIS
   @DF-RHF iter   6:  -476.39687411124288   -6.05533e-07   1.16788e-06 DIIS
   @DF-RHF iter   7:  -476.39687424338678   -1.32144e-07   3.30081e-07 DIIS
   @DF-RHF iter   8:  -476.39687426265493   -1.92682e-08   1.49932e-07 DIIS
   @DF-RHF iter   9:  -476.39687426665768   -4.00274e-09   7.13668e-08 DIIS
   @DF-RHF iter  10:  -476.39687426779079   -1.13312e-09   3.50471e-08 DIIS
   @DF-RHF iter  11:  -476.39687426801652   -2.25725e-10   1.20387e-08 DIIS
   @DF-RHF iter  12:  -476.39687426803590   -1.93836e-11   5.01228e-09 DIIS
   @DF-RHF iter  13:  -476.39687426807455   -3.86535e-11   2.13881e-09 DIIS
   @DF-RHF iter  14:  -476.39687426804460    2.99565e-11   1.03209e-09 DIIS
   @DF-RHF iter  15:  -476.39687426806148   -1.68825e-11   5.11132e-10 DIIS
   @DF-RHF iter  16:  -476.39687426804187    1.96110e-11   1.64623e-10 DIIS
   @DF-RHF iter  17:  -476.39687426806466   -2.27942e-11   7.66100e-11 DIIS

  ==> Post-Iterations <==

    Orbital Energies (a.u.)
    -----------------------

    Doubly Occupied:                                                      

       1A    -15.561580     2A    -11.272736     3A    -11.272603  
       4A    -11.265215     5A    -11.252978     6A    -11.245797  
       7A    -11.245611     8A    -11.244831     9A    -11.243988  
      10A    -11.243281    11A    -11.236980    12A    -11.236322  
      13A     -1.255545    14A     -1.177097    15A     -1.109640  
      16A     -1.038912    17A     -1.025297    18A     -1.018517  
      19A     -0.884259    20A     -0.871702    21A     -0.825739  
      22A     -0.808653    23A     -0.738344    24A     -0.684604  
      25A     -0.674562    26A     -0.666763    27A     -0.629473  
      28A     -0.621174    29A     -0.610221    30A     -0.587796  
      31A     -0.582579    32A     -0.551594    33A     -0.529757  
      34A     -0.514612    35A     -0.511489    36A     -0.493275  
      37A     -0.418760    38A     -0.411908    39A     -0.352502  
      40A     -0.345872    41A     -0.318029  

    Virtual:                                                              

      42A      0.024753    43A      0.028630    44A      0.032210  
      45A      0.040013    46A      0.043261    47A      0.045377  
      48A      0.057744    49A      0.058290    50A      0.062603  
      51A      0.065078    52A      0.080674    53A      0.086301  
      54A      0.088857    55A      0.092576    56A      0.097589  
      57A      0.103000    58A      0.105643    59A      0.108875  
      60A      0.115823    61A      0.116404    62A      0.117065  
      63A      0.119904    64A      0.125797    65A      0.130591  
      66A      0.132123    67A      0.135501    68A      0.138959  
      69A      0.141144    70A      0.142699    71A      0.146974  
      72A      0.149093    73A      0.150884    74A      0.152348  
      75A      0.164367    76A      0.167254    77A      0.173648  
      78A      0.174395    79A      0.183850    80A      0.186345  
      81A      0.187179    82A      0.190876    83A      0.197829  
      84A      0.203644    85A      0.216059    86A      0.219359  
      87A      0.223449    88A      0.230619    89A      0.232950  
      90A      0.237175    91A      0.245774    92A      0.250947  
      93A      0.252812    94A      0.256924    95A      0.260832  
      96A      0.263782    97A      0.267414    98A      0.273800  
      99A      0.281085   100A      0.282749   101A      0.290684  
     102A      0.292643   103A      0.294169   104A      0.297322  
     105A      0.299892   106A      0.302850   107A      0.309042  
     108A      0.313510   109A      0.316103   110A      0.322897  
     111A      0.323274   112A      0.325639   113A      0.339329  
     114A      0.344472   115A      0.346239   116A      0.347518  
     117A      0.356052   118A      0.358171   119A      0.368251  
     120A      0.371152   121A      0.376951   122A      0.381992  
     123A      0.384719   124A      0.396279   125A      0.408273  
     126A      0.409497   127A      0.414293   128A      0.414832  
     129A      0.417739   130A      0.423115   131A      0.423741  
     132A      0.437630   133A      0.438198   134A      0.441060  
     135A      0.441903   136A      0.444450   137A      0.448862  
     138A      0.453585   139A      0.456535   140A      0.458565  
     141A      0.465371   142A      0.471652   143A      0.475430  
     144A      0.476110   145A      0.481431   146A      0.485560  
     147A      0.491704   148A      0.494630   149A      0.500304  
     150A      0.501852   151A      0.502072   152A      0.505529  
     153A      0.508226   154A      0.511827   155A      0.516702  
     156A      0.519277   157A      0.522327   158A      0.526606  
     159A      0.529991   160A      0.533283   161A      0.536707  
     162A      0.537292   163A      0.546306   164A      0.547614  
     165A      0.548983   166A      0.554666   167A      0.564033  
     168A      0.564889   169A      0.567280   170A      0.580713  
     171A      0.582852   172A      0.588422   173A      0.597752  
     174A      0.599954   175A      0.604097   176A      0.621293  
     177A      0.623616   178A      0.628996   179A      0.638205  
     180A      0.639643   181A      0.645475   182A      0.655757  
     183A      0.660779   184A      0.664680   185A      0.684466  
     186A      0.686276   187A      0.690897   188A      0.696661  
     189A      0.697851   190A      0.702889   191A      0.706428  
     192A      0.712434   193A      0.715331   194A      0.717031  
     195A      0.724586   196A      0.738058   197A      0.738634  
     198A      0.742744   199A      0.748057   200A      0.749149  
     201A      0.762554   202A      0.767430   203A      0.777086  
     204A      0.779943   205A      0.793696   206A      0.801343  
     207A      0.805163   208A      0.812530   209A      0.822005  
     210A      0.828132   211A      0.831936   212A      0.832649  
     213A      0.844255   214A      0.850976   215A      0.855373  
     216A      0.862780   217A      0.872592   218A      0.874576  
     219A      0.876431   220A      0.879519   221A      0.885301  
     222A      0.890981   223A      0.892767   224A      0.897487  
     225A      0.901220   226A      0.903336   227A      0.906081  
     228A      0.913282   229A      0.914646   230A      0.916665  
     231A      0.921780   232A      0.926373   233A      0.936443  
     234A      0.938722   235A      0.951518   236A      0.953773  
     237A      0.959912   238A      0.963900   239A      0.966075  
     240A      0.969509   241A      0.976777   242A      0.977701  
     243A      0.987555   244A      0.992166   245A      0.993466  
     246A      1.005413   247A      1.006879   248A      1.010331  
     249A      1.013861   250A      1.014437   251A      1.022312  
     252A      1.026852   253A      1.028455   254A      1.037340  
     255A      1.039715   256A      1.040352   257A      1.045799  
     258A      1.051903   259A      1.055087   260A      1.064766  
     261A      1.072076   262A      1.073336   263A      1.083685  
     264A      1.083882   265A      1.087826   266A      1.095018  
     267A      1.096391   268A      1.097757   269A      1.103261  
     270A      1.107696   271A      1.109485   272A      1.118537  
     273A      1.130791   274A      1.135720   275A      1.136828  
     276A      1.138812   277A      1.155065   278A      1.158547  
     279A      1.169501   280A      1.175773   281A      1.179929  
     282A      1.180551   283A      1.186871   284A      1.192465  
     285A      1.194738   286A      1.198271   287A      1.202309  
     288A      1.207364   289A      1.211027   290A      1.213329  
     291A      1.216985   292A      1.222382   293A      1.232282  
     294A      1.235829   295A      1.244128   296A      1.246767  
     297A      1.256061   298A      1.260024   299A      1.264392  
     300A      1.278342   301A      1.279263   302A      1.287147  
     303A      1.293394   304A      1.300234   305A      1.302294  
     306A      1.307636   307A      1.309385   308A      1.316378  
     309A      1.321236   310A      1.332424   311A      1.344375  
     312A      1.349588   313A      1.363531   314A      1.367515  
     315A      1.369764   316A      1.382748   317A      1.392064  
     318A      1.402948   319A      1.403990   320A      1.415981  
     321A      1.426271   322A      1.439691   323A      1.442837  
     324A      1.446250   325A      1.455143   326A      1.465039  
     327A      1.475848   328A      1.483798   329A      1.484457  
     330A      1.495942   331A      1.504511   332A      1.518837  
     333A      1.519663   334A      1.527288   335A      1.535656  
     336A      1.547221   337A      1.551601   338A      1.570967  
     339A      1.577013   340A      1.585637   341A      1.590257  
     342A      1.606066   343A      1.611543   344A      1.615518  
     345A      1.629898   346A      1.644731   347A      1.649092  
     348A      1.658761   349A      1.663199   350A      1.672788  
     351A      1.687424   352A      1.697657   353A      1.706626  
     354A      1.710185   355A      1.715964   356A      1.716641  
     357A      1.725759   358A      1.726703   359A      1.735528  
     360A      1.747419   361A      1.751994   362A      1.758811  
     363A      1.776425   364A      1.781423   365A      1.799519  
     366A      1.803954   367A      1.810745   368A      1.815267  
     369A      1.825333   370A      1.830045   371A      1.843556  
     372A      1.850173   373A      1.851406   374A      1.857240  
     375A      1.867498   376A      1.876174   377A      1.888934  
     378A      1.894781   379A      1.904371   380A      1.908876  
     381A      1.917862   382A      1.932464   383A      1.936303  
     384A      1.950465   385A      1.962745   386A      1.969813  
     387A      1.978221   388A      1.983667   389A      1.988923  
     390A      1.997170   391A      2.009737   392A      2.014797  
     393A      2.021012   394A      2.024101   395A      2.033231  
     396A      2.038316   397A      2.041827   398A      2.045192  
     399A      2.057785   400A      2.065939   401A      2.070089  
[...]
      17        0.000021391317     0.000020984410    -0.000007311193
      18       -0.000006261125     0.000021748432     0.000004868045
      19       -0.000002623935    -0.000031746475     0.000000098070
      20       -0.000000203341    -0.000024135578    -0.000000976281
      21       -0.000009487833    -0.000070317910    -0.000002605689


*** tstop() called on gpu-1-16.local at Wed Nov 15 03:37:37 2017
Module time:
	user time   =    3354.25 seconds =      55.90 minutes
	system time =      28.14 seconds =       0.47 minutes
	total time  =       1476 seconds =      24.60 minutes
Total time:
	user time   =   40970.61 seconds =     682.84 minutes
	system time =     328.82 seconds =       5.48 minutes
	total time  =      17540 seconds =     292.33 minutes

			-----------------------------------------
			 OPTKING 2.0: for geometry optimizations 
			  - R.A. King,  Bethel University        
			-----------------------------------------

	Previous internal coordinate definitions found.
	---Fragment 1 Geometry and Gradient---
	 C           3.4639245892       -1.9802441295       -0.2390653303
	 C           1.4763635192       -0.8820546809        1.0747636880
	 C           5.4170636525       -3.1168270715        1.0925314405
	 C           1.4437507655       -0.9146274483        3.6944145898
	 C           5.3794479847       -3.1490616936        3.7110001266
	 C           1.0714747173       -1.5533548812        9.0480087243
	 C           5.4188820156       -2.5699639202        9.2939370503
	 C           1.0187475582       -1.5635101800       11.6667219507
	 C           5.1867169089       -2.5399632649       11.9010847043
	 C           3.4015070392       -2.0390144974        5.0569071316
	 C           3.3164693632       -2.0786987462        7.7894511198
	 N           3.0296317420       -2.0461300426       13.1123196521
	 H           3.4906243103       -1.9496668917       -2.2780892980
	 H          -0.0439712738        0.0200834513        0.0574578703
	 H           6.9638788586       -3.9918007077        0.0920273105
	 H          -0.0872422149        0.0149222064        4.6599068499
	 H           6.8892356984       -4.0832855545        4.7132950781
	 H          -0.6625063525       -1.2059729311        8.0423976891
	 H           7.2434638635       -2.9404702806        8.4641370948
	 H          -0.7273574846       -1.1722044048       12.6534714567
	 H           6.8150654063       -2.9230094510       13.0742791612
	             0.0000181286        0.0000289412       -0.0000006871
	             0.0000140187        0.0000208228       -0.0000025884
	             0.0000233153        0.0000506723       -0.0000033567
	            -0.0025418917       -0.0021642251        0.0062710738
	             0.0000024559        0.0000118434        0.0000081418
	             0.0012937620        0.0029218561       -0.0091427159
	            -0.0000103045       -0.0000249985       -0.0000074478
	            -0.0000033807       -0.0000138084       -0.0000050488
	            -0.0000060728       -0.0000421955       -0.0000121486
	             0.0004684080        0.0024043678        0.0106718336
	             0.0006971406       -0.0031784188       -0.0077823140
	            -0.0000057567       -0.0000542660        0.0000094495
	             0.0000304724        0.0000590995       -0.0000027448
	             0.0000074757        0.0000194950        0.0000034087
	             0.0000306480        0.0000561485        0.0000001117
	            -0.0000212339       -0.0000118672        0.0000009600
	             0.0000213913        0.0000209844       -0.0000073112
	            -0.0000062611        0.0000217484        0.0000048680
	            -0.0000026239       -0.0000317465        0.0000000981
	            -0.0000002033       -0.0000241356       -0.0000009763
	            -0.0000094878       -0.0000703179       -0.0000026057

	---Fragment 1 Intrafragment Coordinates---
	 - Coordinate -           - BOHR/RAD -       - ANG/DEG -
	 R(1,X)           =         3.463925	       1.833030
	 R(1,Y)           =        -1.980244	      -1.047900
	 R(1,Z)           =        -0.239065	      -0.126508
	 R(2,X)           =         1.476364	       0.781258
	 R(2,Y)           =        -0.882055	      -0.466763
	 R(2,Z)           =         1.074764	       0.568740
	 R(3,X)           =         5.417064	       2.866587
	 R(3,Y)           =        -3.116827	      -1.649354
	 R(3,Z)           =         1.092531	       0.578143
	*R(4,X)           =         1.443751	       0.764000
	*R(4,Y)           =        -0.914627	      -0.484000
	*R(4,Z)           =         3.694415	       1.955000
	 R(5,X)           =         5.379448	       2.846681
	 R(5,Y)           =        -3.149062	      -1.666412
	 R(5,Z)           =         3.711000	       1.963777
	*R(6,X)           =         1.071475	       0.567000
	*R(6,Y)           =        -1.553355	      -0.822000
	*R(6,Z)           =         9.048009	       4.788000
	 R(7,X)           =         5.418882	       2.867549
	 R(7,Y)           =        -2.569964	      -1.359966
	 R(7,Z)           =         9.293937	       4.918140
	 R(8,X)           =         1.018748	       0.539098
	 R(8,Y)           =        -1.563510	      -0.827374
	 R(8,Z)           =        11.666722	       6.173763
	 R(9,X)           =         5.186717	       2.744692
	 R(9,Y)           =        -2.539963	      -1.344091
	 R(9,Z)           =        11.901085	       6.297783
	*R(10,X)          =         3.401507	       1.800000
	*R(10,Y)          =        -2.039014	      -1.079000
	*R(10,Z)          =         5.056907	       2.676000
	*R(11,X)          =         3.316469	       1.755000
	*R(11,Y)          =        -2.078699	      -1.100000
	*R(11,Z)          =         7.789451	       4.122000
	 R(12,X)          =         3.029632	       1.603212
	 R(12,Y)          =        -2.046130	      -1.082765
	 R(12,Z)          =        13.112320	       6.938741
	 R(13,X)          =         3.490624	       1.847159
	 R(13,Y)          =        -1.949667	      -1.031719
	 R(13,Z)          =        -2.278089	      -1.205513
	 R(14,X)          =        -0.043971	      -0.023269
	 R(14,Y)          =         0.020083	       0.010628
	 R(14,Z)          =         0.057458	       0.030405
	 R(15,X)          =         6.963879	       3.685126
	 R(15,Y)          =        -3.991801	      -2.112370
	 R(15,Z)          =         0.092027	       0.048699
	 R(16,X)          =        -0.087242	      -0.046167
	 R(16,Y)          =         0.014922	       0.007896
	 R(16,Z)          =         4.659907	       2.465916
	 R(17,X)          =         6.889236	       3.645627
	 R(17,Y)          =        -4.083286	      -2.160782
	 R(17,Z)          =         4.713295	       2.494168
	 R(18,X)          =        -0.662506	      -0.350583
	 R(18,Y)          =        -1.205973	      -0.638173
	 R(18,Z)          =         8.042398	       4.255854
	 R(19,X)          =         7.243464	       3.833076
	 R(19,Y)          =        -2.940470	      -1.556030
	 R(19,Z)          =         8.464137	       4.479028
	 R(20,X)          =        -0.727357	      -0.384901
	 R(20,Y)          =        -1.172204	      -0.620304
	 R(20,Z)          =        12.653471	       6.695929
	 R(21,X)          =         6.815065	       3.606377
	 R(21,Y)          =        -2.923009	      -1.546790
	 R(21,Z)          =        13.074279	       6.918611

	Current energy   :      -478.5752811832

	Energy change for the previous step:
		Projected    :         0.0000018082
		Actual       :        -0.0000009979

	Performing BFGS update.
	Previous computed or guess Hessian on step 1.
	Denominators (dg)(dq) or (dq)(dq) are very small.
	 Skipping Hessian update for step 9.
	Steps to be used in Hessian update: 8 7
	Taking RFO optimization step.
	Going to follow RFO solution 1.
	Using RFO vector 1.

	Determining step-restricting scale parameter for RS-RFO.
	Maximum step size allowed    0.00586

	 Iter      |step|        alpha        rfo_root  
	------------------------------------------------
	    0     0.21616       1.00000           1
	    1     0.13417      22.37112           1
	    2     0.08122      96.32231           1
	    3     0.04890     325.51800           1
	    4     0.02971     978.40477           1
	    5     0.01850    2669.14015           1
	    6     0.01205    6479.32641           1
	    7     0.00847   13324.72716           1
	    8     0.00667   21703.83989           1
	    9     0.00598   27035.52150           1
	   10     0.00586   28157.53171           1
	------------------------------------------------
	Norm of target step-size    0.00586
	Projected energy change by RFO approximation:         0.0000010881

	Back-transformation to cartesian coordinates...
	Successfully converged to displaced geometry.

	Back-transformation to cartesian coordinates to adjust frozen coordinates...
	Successfully converged to displaced geometry.

	--- Internal Coordinate Step in ANG or DEG, aJ/ANG or AJ/DEG ---
	 ---------------------------------------------------------------------------
	   Coordinate                Previous        Force       Change         New 
	   ----------                --------       ------       ------       ------
	    1 R(1,X)          =      1.833030    -0.000149    -0.000368     1.832661
	    2 R(1,Y)          =     -1.047900    -0.000238    -0.000705    -1.048606
	    3 R(1,Z)          =     -0.126508     0.000006     0.000008    -0.126500
	    4 R(2,X)          =      0.781258    -0.000115    -0.000183     0.781074
	    5 R(2,Y)          =     -0.466763    -0.000172    -0.000353    -0.467116
	    6 R(2,Z)          =      0.568740     0.000021    -0.000003     0.568737
	    7 R(3,X)          =      2.866587    -0.000192    -0.000408     2.866178
	    8 R(3,Y)          =     -1.649354    -0.000417    -0.000782    -1.650136
	    9 R(3,Z)          =      0.578143     0.000028     0.000012     0.578155
	   10 *R(4,X)         =      0.764000     0.000000     0.000000     0.764000
	   11 *R(4,Y)         =     -0.484000     0.000000     0.000000    -0.484000
	   12 *R(4,Z)         =      1.955000     0.000000     0.000000     1.955000
	   13 R(5,X)          =      2.846681    -0.000020    -0.000175     2.846506
	   14 R(5,Y)          =     -1.666412    -0.000098    -0.000330    -1.666742
	   15 R(5,Z)          =      1.963777    -0.000067     0.000019     1.963796
	   16 *R(6,X)         =      0.567000     0.000000     0.000000     0.567000
	   17 *R(6,Y)         =     -0.822000     0.000000     0.000000    -0.822000
	   18 *R(6,Z)         =      4.788000     0.000000     0.000000     4.788000
	   19 R(7,X)          =      2.867549     0.000085     0.000086     2.867634
	   20 R(7,Y)          =     -1.359966     0.000206     0.000459    -1.359508
	   21 R(7,Z)          =      4.918140     0.000061     0.000034     4.918174
	   22 R(8,X)          =      0.539098     0.000028     0.000036     0.539134
	   23 R(8,Y)          =     -0.827374     0.000114     0.000391    -0.826983
	   24 R(8,Z)          =      6.173763     0.000042    -0.000005     6.173758
	   25 R(9,X)          =      2.744692     0.000050     0.000147     2.744839
	   26 R(9,Y)          =     -1.344091     0.000348     0.000854    -1.343237
	   27 R(9,Z)          =      6.297783     0.000100     0.000040     6.297823
	   28 *R(10,X)        =      1.800000     0.000000     0.000000     1.800000
	   29 *R(10,Y)        =     -1.079000     0.000000     0.000000    -1.079000
	   30 *R(10,Z)        =      2.676000     0.000000     0.000000     2.676000
	   31 *R(11,X)        =      1.755000     0.000000     0.000000     1.755000
	   32 *R(11,Y)        =     -1.100000     0.000000     0.000000    -1.100000
	   33 *R(11,Z)        =      4.122000     0.000000     0.000000     4.122000
	   34 R(12,X)         =      1.603212     0.000047     0.000140     1.603352
	   35 R(12,Y)         =     -1.082765     0.000447     0.000892    -1.081873
	   36 R(12,Z)         =      6.938741    -0.000078     0.000012     6.938753
	   37 R(13,X)         =      1.847159    -0.000251    -0.000558     1.846601
	   38 R(13,Y)         =     -1.031719    -0.000487    -0.001080    -1.032799
	   39 R(13,Z)         =     -1.205513     0.000023     0.000004    -1.205509
	   40 R(14,X)         =     -0.023269    -0.000062    -0.000173    -0.023442
	   41 R(14,Y)         =      0.010628    -0.000161    -0.000363     0.010265
	   42 R(14,Z)         =      0.030405    -0.000028    -0.000027     0.030379
	   43 R(15,X)         =      3.685126    -0.000253    -0.000588     3.684538
	   44 R(15,Y)         =     -2.112370    -0.000463    -0.001086    -2.113455
	   45 R(15,Z)         =      0.048699    -0.000001     0.000000     0.048699
	   46 R(16,X)         =     -0.046167     0.000175     0.000201    -0.045966
	   47 R(16,Y)         =      0.007896     0.000098     0.000282     0.008179
	   48 R(16,Z)         =      2.465916    -0.000008     0.000032     2.465948
	   49 R(17,X)         =      3.645627    -0.000176    -0.000274     3.645353
	   50 R(17,Y)         =     -2.160782    -0.000173    -0.000419    -2.161201
	   51 R(17,Z)         =      2.494168     0.000060     0.000088     2.494256
	   52 R(18,X)         =     -0.350583     0.000052    -0.000027    -0.350610
	   53 R(18,Y)         =     -0.638173    -0.000179    -0.000347    -0.638521
	   54 R(18,Z)         =      4.255854    -0.000040    -0.000068     4.255786
	   55 R(19,X)         =      3.833076     0.000022     0.000115     3.833191
	   56 R(19,Y)         =     -1.556030     0.000262     0.000567    -1.555463
	   57 R(19,Z)         =      4.479028    -0.000001     0.000050     4.479079
	   58 R(20,X)         =     -0.384901     0.000002     0.000032    -0.384869
	   59 R(20,Y)         =     -0.620304     0.000199     0.000431    -0.619873
	   60 R(20,Z)         =      6.695929     0.000008    -0.000026     6.695903
	   61 R(21,X)         =      3.606377     0.000078     0.000228     3.606605
	   62 R(21,Y)         =     -1.546790     0.000579     0.001313    -1.545477
	   63 R(21,Z)         =      6.918611     0.000021     0.000075     6.918685
	 ---------------------------------------------------------------------------
	Successfully symmetrized geometry.

  ==> Convergence Check <==

  Measures of convergence in internal coordinates in au.
  Criteria marked as inactive (o), active & met (*), and active & unmet ( ).
  ---------------------------------------------------------------------------------------------
   Step     Total Energy     Delta E     MAX Force     RMS Force      MAX Disp      RMS Disp   
  ---------------------------------------------------------------------------------------------
    Convergence Criteria    1.00e-06 *    3.00e-04 *             o    1.20e-03 *             o
  ---------------------------------------------------------------------------------------------
     10    -478.57528118   -9.98e-07 *    7.03e-05 *    2.14e-05 o    2.48e-03      7.39e-04 o  ~
  ---------------------------------------------------------------------------------------------


  **** Optimization is complete! (in 10 steps) ****

  ==> Optimization Summary <==

  Measures of convergence in internal coordinates in au.
  --------------------------------------------------------------------------------------------------------------- ~
   Step         Total Energy             Delta E       MAX Force       RMS Force        MAX Disp        RMS Disp  ~
  --------------------------------------------------------------------------------------------------------------- ~
      1    -478.572138814275   -478.572138814275      0.01582081      0.00440193      0.15295226      0.05253693  ~
      2    -478.574918323003     -0.002779508728      0.00676207      0.00156649      0.03931889      0.01574852  ~
      3    -478.575173352570     -0.000255029567      0.00178369      0.00056790      0.01174407      0.00393754  ~
      4    -478.575221870816     -0.000048518246      0.00079810      0.00022875      0.01092586      0.00393725  ~
      5    -478.575240419691     -0.000018548875      0.00051177      0.00014884      0.04397867      0.01181143  ~
      6    -478.575268913867     -0.000028494176      0.00036632      0.00010822      0.00926947      0.00295308  ~
      7    -478.575274583926     -0.000005670059      0.00016518      0.00004912      0.00995723      0.00295293  ~
      8    -478.575279140767     -0.000004556841      0.00010605      0.00002809      0.00234400      0.00073859  ~
      9    -478.575280185296     -0.000001044529      0.00006855      0.00002286      0.00239950      0.00073875  ~
     10    -478.575281183192     -0.000000997897      0.00007032      0.00002141      0.00248126      0.00073867  ~
  --------------------------------------------------------------------------------------------------------------- ~

	Writing optimization data to binary file.
	Final energy is   -478.5752811831923
	Final (previous) structure:
	Cartesian Geometry (in Angstrom)
	    C     1.8330299449  -1.0479000608  -0.1265079242
	    C     0.7812579260  -0.4667632339   0.5687404483
	    C     2.8665866224  -1.6493538494   0.5781427380
	    C     0.7640000000  -0.4840000000   1.9550000000
	    C     2.8466812683  -1.6664116767   1.9637766881
	    C     0.5670000000  -0.8220000000   4.7880000000
	    C     2.8675488587  -1.3599663335   4.9181396651
	    C     0.5390979891  -0.8273739527   6.1737633553
	    C     2.7446923756  -1.3440906704   6.2977827830
	    C     1.8000000000  -1.0790000000   2.6760000000
	    C     1.7550000000  -1.1000000000   4.1220000000
	    N     1.6032120683  -1.0827653844   6.9387407117
	    H     1.8471588288  -1.0317192834  -1.2055129357
	    H    -0.0232685959   0.0106277047   0.0304053954
	    H     3.6851259753  -2.1123699557   0.0486987553
	    H    -0.0461665917   0.0078964915   2.4659164991
	    H     3.6456265162  -2.1607816516   2.4941683327
	    H    -0.3505832623  -0.6381733893   4.2558535595
	    H     3.8330759878  -1.5560298550   4.4790284410
	    H    -0.3849010033  -0.6203038548   6.6959287044
	    H     3.6063772880  -1.5467899820   6.9186105509
	Saving final (previous) structure.
			--------------------------
			 OPTKING Finished Execution 
			--------------------------

    Final optimized geometry and variables:
    Molecular point group: c1
    Full point group: C1

    Geometry (in Angstrom), charge = 0, multiplicity = 1:

    C            1.833029944889    -1.047900060770    -0.126507924183
    C            0.781257925967    -0.466763233888     0.568740448328
    C            2.866586622389    -1.649353849380     0.578142738002
    C            0.764000000000    -0.484000000000     1.955000000000
    C            2.846681268320    -1.666411676674     1.963776688088
    C            0.567000000000    -0.822000000000     4.788000000000
    C            2.867548858717    -1.359966333451     4.918139665107
    C            0.539097989128    -0.827373952656     6.173763355272
    C            2.744692375623    -1.344090670417     6.297782783013
    C            1.800000000000    -1.079000000000     2.676000000000
    C            1.755000000000    -1.100000000000     4.122000000000
    N            1.603212068294    -1.082765384373     6.938740711661
    H            1.847158828785    -1.031719283441    -1.205512935657
    H           -0.023268595911     0.010627704702     0.030405395427
    H            3.685125975346    -2.112369955726     0.048698755291
    H           -0.046166591728     0.007896491518     2.465916499095
    H            3.645626516178    -2.160781651607     2.494168332689
    H           -0.350583262294    -0.638173389310     4.255853559463
    H            3.833075987823    -1.556029855022     4.479028440961
    H           -0.384901003343    -0.620303854843     6.695928704421
    H            3.606377288043    -1.546789981956     6.918610550870

	Cleaning optimization helper files.

*** Psi4 exiting successfully. Buy a developer a beer!
