
    -----------------------------------------------------------------------
          Psi4: An Open-Source Ab Initio Electronic Structure Package
                               Psi4 1.1 release

                         Git: Rev {HEAD} add49b9 


    R. M. Parrish, L. A. Burns, D. G. A. Smith, A. C. Simmonett,
    A. E. DePrince III, E. G. Hohenstein, U. Bozkaya, A. Yu. Sokolov,
    R. Di Remigio, R. M. Richard, J. F. Gonthier, A. M. James,
    H. R. McAlexander, A. Kumar, M. Saitow, X. Wang, B. P. Pritchard,
    P. Verma, H. F. Schaefer III, K. Patkowski, R. A. King, E. F. Valeev,
    F. A. Evangelista, J. M. Turney, T. D. Crawford, and C. D. Sherrill,
    J. Chem. Theory Comput. in press (2017).
    (doi: 10.1021/acs.jctc.7b00174)

    -----------------------------------------------------------------------


    Psi4 started on: Sunday, 12 November 2017 12:31PM

    Process ID:  30711
    PSIDATADIR: /cbio/jclab/home/chayas/anaconda/envs/py35/share/psi4
    Memory:     500.0 MiB
    Threads:    8
    
  ==> Input File <==

--------------------------------------------------------------------------

memory 5 Gb

molecule phepyrOH_neutral {
  symmetry C1
  0 1 
  C      1.885   -1.036   -0.112
  C      2.878   -1.652   2.002
  C      0.807   -0.463   0.561
  C      1.800   -1.079   2.676
  C      3.999   -3.565   -0.461
  C      5.159   -1.459   -0.394
  C      5.095   -4.086   -1.129
  C      6.204   -2.075   -1.065
  C      2.921   -1.631   0.608
  C      4.040   -2.225   -0.090
  C      0.764   -0.484   1.955
  N      6.201   -3.373   -1.442
  O      -0.288   0.076   2.612
  H      1.904   -1.012   -1.199
  H      3.678   -2.112   2.578
  H      0.003   -0.001   -0.006
  H      1.772   -1.098   3.762
  H      3.143   -4.194   -0.243
  H      5.227   -0.411   -0.120
  H      5.112   -5.125   -1.442
  H      7.100   -1.521   -1.324
  H      -0.175   -0.018   3.571
  units Angstrom
}

dih_string = "1 9 10 5 270"
set optking fixed_dihedral = $dih_string

optimize('MP2/aug-cc-PVTZ')
--------------------------------------------------------------------------

  Memory set to   4.657 GiB by Python driver.
gradient() will perform analytic gradient computation.

*** tstart() called on gpu-1-6.local
*** at Sun Nov 12 12:31:05 2017

    SCF Algorithm Type (re)set to DF.

*** tstart() called on gpu-1-6.local
*** at Sun Nov 12 12:31:06 2017

   => Loading Basis Set <=

    Name: AUG-CC-PVTZ
    Role: ORBITAL
    Keyword: BASIS
    atoms 1-11  entry C          line   221 file /cbio/jclab/home/chayas/anaconda/envs/py35/share/psi4/basis/aug-cc-pvtz.gbs 
    atoms 12    entry N          line   267 file /cbio/jclab/home/chayas/anaconda/envs/py35/share/psi4/basis/aug-cc-pvtz.gbs 
    atoms 13    entry O          line   313 file /cbio/jclab/home/chayas/anaconda/envs/py35/share/psi4/basis/aug-cc-pvtz.gbs 
    atoms 14-22 entry H          line    34 file /cbio/jclab/home/chayas/anaconda/envs/py35/share/psi4/basis/aug-cc-pvtz.gbs 


         ---------------------------------------------------------
                                   SCF
            by Justin Turney, Rob Parrish, and Andy Simmonett
                              RHF Reference
                        8 Threads,   4768 MiB Core
         ---------------------------------------------------------

  ==> Geometry <==

    Molecular point group: c1
    Full point group: C1

    Geometry (in Angstrom), charge = 0, multiplicity = 1:

       Center              X                  Y                   Z               Mass       
    ------------   -----------------  -----------------  -----------------  -----------------
           C         -1.253111638521     0.710026479534    -0.590281890875    12.000000000000
           C         -0.260111638521     0.094026479534     1.523718109125    12.000000000000
           C         -2.331111638521     1.283026479534     0.082718109125    12.000000000000
           C         -1.338111638521     0.667026479534     2.197718109125    12.000000000000
           C          0.860888361479    -1.818973520466    -0.939281890875    12.000000000000
           C          2.020888361479     0.287026479534    -0.872281890875    12.000000000000
           C          1.956888361479    -2.339973520466    -1.607281890875    12.000000000000
           C          3.065888361479    -0.328973520466    -1.543281890875    12.000000000000
           C         -0.217111638521     0.115026479534     0.129718109125    12.000000000000
           C          0.901888361479    -0.478973520466    -0.568281890875    12.000000000000
           C         -2.374111638521     1.262026479534     1.476718109125    12.000000000000
           N          3.062888361479    -1.626973520466    -1.920281890875    14.003074004780
           O         -3.426111638521     1.822026479534     2.133718109125    15.994914619560
           H         -1.234111638521     0.734026479534    -1.677281890875     1.007825032070
           H          0.539888361479    -0.365973520466     2.099718109125     1.007825032070
           H         -3.135111638521     1.745026479534    -0.484281890875     1.007825032070
           H         -1.366111638521     0.648026479534     3.283718109125     1.007825032070
           H          0.004888361479    -2.447973520466    -0.721281890875     1.007825032070
           H          2.088888361479     1.335026479534    -0.598281890875     1.007825032070
           H          1.973888361479    -3.378973520466    -1.920281890875     1.007825032070
           H          3.961888361479     0.225026479534    -1.802281890875     1.007825032070
           H         -3.313111638521     1.728026479534     3.092718109125     1.007825032070

  Running in c1 symmetry.

  Rotational constants: A =      0.09694  B =      0.01280  C =      0.01275 [cm^-1]
  Rotational constants: A =   2906.07157  B =    383.72815  C =    382.20721 [MHz]
  Nuclear repulsion =  697.091434087465814

  Charge       = 0
  Multiplicity = 1
  Electrons    = 90
  Nalpha       = 45
  Nbeta        = 45

  ==> Algorithm <==

  SCF Algorithm Type is DF.
  DIIS enabled.
  MOM disabled.
  Fractional occupation disabled.
  Guess Type is SAD.
  Energy threshold   = 1.00e-10
  Density threshold  = 1.00e-10
  Integral threshold = 0.00e+00

  ==> Primary Basis <==

  Basis Set: AUG-CC-PVTZ
    Blend: AUG-CC-PVTZ
    Number of shells: 263
    Number of basis function: 805
    Number of Cartesian functions: 940
    Spherical Harmonics?: true
    Max angular momentum: 3

   => Loading Basis Set <=

    Name: (AUG-CC-PVTZ AUX)
    Role: JKFIT
    Keyword: DF_BASIS_SCF
    atoms 1-11  entry C          line   161 file /cbio/jclab/home/chayas/anaconda/envs/py35/share/psi4/basis/aug-cc-pvtz-jkfit.gbs 
    atoms 12    entry N          line   223 file /cbio/jclab/home/chayas/anaconda/envs/py35/share/psi4/basis/aug-cc-pvtz-jkfit.gbs 
    atoms 13    entry O          line   285 file /cbio/jclab/home/chayas/anaconda/envs/py35/share/psi4/basis/aug-cc-pvtz-jkfit.gbs 
    atoms 14-22 entry H          line    69 file /cbio/jclab/home/chayas/anaconda/envs/py35/share/psi4/basis/aug-cc-pvtz-jkfit.gbs 

  ==> Pre-Iterations <==

   -------------------------------------------------------
    Irrep   Nso     Nmo     Nalpha   Nbeta   Ndocc  Nsocc
   -------------------------------------------------------
     A        805     805       0       0       0       0
   -------------------------------------------------------
    Total     805     805      45      45      45       0
   -------------------------------------------------------

  ==> Integral Setup <==

  ==> DFJK: Density-Fitted J/K Matrices <==

    J tasked:                  Yes
    K tasked:                  Yes
    wK tasked:                  No
    OpenMP threads:              8
    Integrals threads:           8
    Memory (MB):              3576
    Algorithm:                Disk
    Integral Cache:           NONE
    Schwarz Cutoff:          1E-12
    Fitting Condition:       1E-12

   => Auxiliary Basis Set <=

  Basis Set: (AUG-CC-PVTZ AUX)
    Blend: AUG-CC-PVTZ-JKFIT
    Number of shells: 516
    Number of basis function: 1766
    Number of Cartesian functions: 2198
    Spherical Harmonics?: true
    Max angular momentum: 4

  Minimum eigenvalue in the overlap matrix is 5.9806375005E-07.
  Using Symmetric Orthogonalization.

  SCF Guess: Superposition of Atomic Densities via on-the-fly atomic UHF.

  ==> Iterations <==

                           Total Energy        Delta E     RMS |[F,P]|

   @DF-RHF iter   0:  -558.01415919729322   -5.58014e+02   2.05884e-02 
   @DF-RHF iter   1:  -550.96076149397140    7.05340e+00   1.79128e-03 
   @DF-RHF iter   2:  -551.23701916693119   -2.76258e-01   6.35251e-04 DIIS
   @DF-RHF iter   3:  -551.27178222043608   -3.47631e-02   3.65800e-04 DIIS
   @DF-RHF iter   4:  -551.28255874232013   -1.07765e-02   1.11043e-04 DIIS
   @DF-RHF iter   5:  -551.28378987518738   -1.23113e-03   5.01145e-05 DIIS
   @DF-RHF iter   6:  -551.28403330175252   -2.43427e-04   1.83429e-05 DIIS
   @DF-RHF iter   7:  -551.28408798677481   -5.46850e-05   8.06806e-06 DIIS
   @DF-RHF iter   8:  -551.28409728182078   -9.29505e-06   3.26775e-06 DIIS
   @DF-RHF iter   9:  -551.28410016689361   -2.88507e-06   1.52859e-06 DIIS
   @DF-RHF iter  10:  -551.28410096385494   -7.96961e-07   5.57997e-07 DIIS
   @DF-RHF iter  11:  -551.28410103284079   -6.89859e-08   1.20719e-07 DIIS
   @DF-RHF iter  12:  -551.28410103796466   -5.12387e-09   3.64098e-08 DIIS
   @DF-RHF iter  13:  -551.28410103830504   -3.40378e-10   1.78417e-08 DIIS
   @DF-RHF iter  14:  -551.28410103839781   -9.27685e-11   6.56117e-09 DIIS
   @DF-RHF iter  15:  -551.28410103841293   -1.51203e-11   3.49899e-09 DIIS
   @DF-RHF iter  16:  -551.28410103840156    1.13687e-11   1.07916e-09 DIIS
   @DF-RHF iter  17:  -551.28410103842521   -2.36469e-11   6.90034e-10 DIIS
   @DF-RHF iter  18:  -551.28410103841009    1.51203e-11   1.61817e-10 DIIS
   @DF-RHF iter  19:  -551.28410103842248   -1.23919e-11   1.17554e-10 DIIS
   @DF-RHF iter  20:  -551.28410103841554    6.93490e-12   4.97950e-11 DIIS

  ==> Post-Iterations <==

    Orbital Energies (a.u.)
    -----------------------

    Doubly Occupied:                                                      

       1A    -20.597942     2A    -15.565213     3A    -11.312000  
       4A    -11.274722     5A    -11.274624     6A    -11.261616  
       7A    -11.252096     8A    -11.250897     9A    -11.243521  
      10A    -11.242297    11A    -11.240124    12A    -11.237753  
      13A    -11.237662    14A     -1.413311    15A     -1.250058  
      16A     -1.171183    17A     -1.103290    18A     -1.034352  
      19A     -1.030499    20A     -1.008963    21A     -0.879788  
      22A     -0.855239    23A     -0.855083    24A     -0.809856  
      25A     -0.743904    26A     -0.724113    27A     -0.675680  
      28A     -0.666246    29A     -0.656626    30A     -0.634812  
      31A     -0.615260    32A     -0.599877    33A     -0.599766  
      34A     -0.598040    35A     -0.576986    36A     -0.535258  
      37A     -0.524789    38A     -0.524656    39A     -0.505025  
      40A     -0.486616    41A     -0.418725    42A     -0.374822  
      43A     -0.356477    44A     -0.346143    45A     -0.321585  

    Virtual:                                                              

      46A      0.022166    47A      0.030776    48A      0.034142  
      49A      0.034908    50A      0.042174    51A      0.049534  
      52A      0.050432    53A      0.051585    54A      0.061623  
      55A      0.083344    56A      0.085662    57A      0.089222  
      58A      0.089992    59A      0.099067    60A      0.099209  
      61A      0.100953    62A      0.105827    63A      0.107198  
      64A      0.108450    65A      0.110039    66A      0.114961  
      67A      0.116463    68A      0.122643    69A      0.124504  
      70A      0.126062    71A      0.126634    72A      0.131846  
      73A      0.137955    74A      0.138758    75A      0.140860  
      76A      0.142012    77A      0.142945    78A      0.153157  
      79A      0.153462    80A      0.159141    81A      0.163534  
      82A      0.166522    83A      0.167146    84A      0.176530  
      85A      0.190225    86A      0.190649    87A      0.194680  
      88A      0.201248    89A      0.204562    90A      0.219370  
      91A      0.224748    92A      0.229088    93A      0.232292  
      94A      0.235868    95A      0.240111    96A      0.243476  
      97A      0.244201    98A      0.248683    99A      0.254815  
     100A      0.255928   101A      0.259268   102A      0.260538  
     103A      0.266819   104A      0.271575   105A      0.273064  
     106A      0.280568   107A      0.283680   108A      0.284035  
     109A      0.293522   110A      0.296730   111A      0.300324  
     112A      0.307110   113A      0.307331   114A      0.308821  
     115A      0.314437   116A      0.315811   117A      0.318188  
     118A      0.325646   119A      0.328863   120A      0.338746  
     121A      0.340718   122A      0.340750   123A      0.347123  
     124A      0.347763   125A      0.364594   126A      0.365617  
     127A      0.368460   128A      0.376620   129A      0.382619  
     130A      0.387413   131A      0.391457   132A      0.397460  
     133A      0.404124   134A      0.406537   135A      0.409640  
     136A      0.416590   137A      0.418705   138A      0.422356  
     139A      0.427077   140A      0.435251   141A      0.436194  
     142A      0.438353   143A      0.444172   144A      0.445111  
     145A      0.446916   146A      0.450616   147A      0.457209  
     148A      0.462258   149A      0.462516   150A      0.470338  
     151A      0.471484   152A      0.475455   153A      0.479786  
     154A      0.484364   155A      0.488557   156A      0.492444  
     157A      0.498085   158A      0.501539   159A      0.502559  
     160A      0.507251   161A      0.508458   162A      0.509722  
     163A      0.513975   164A      0.518344   165A      0.521767  
     166A      0.521865   167A      0.527634   168A      0.534329  
     169A      0.534986   170A      0.539621   171A      0.542433  
     172A      0.544253   173A      0.546622   174A      0.551821  
     175A      0.563386   176A      0.568600   177A      0.569886  
     178A      0.581145   179A      0.583050   180A      0.589112  
     181A      0.590968   182A      0.600750   183A      0.604245  
     184A      0.611915   185A      0.617189   186A      0.617497  
     187A      0.624110   188A      0.631371   189A      0.633574  
     190A      0.636433   191A      0.636802   192A      0.653739  
     193A      0.657765   194A      0.679428   195A      0.681380  
     196A      0.687416   197A      0.693155   198A      0.693925  
     199A      0.697393   200A      0.707357   201A      0.711437  
     202A      0.723171   203A      0.724044   204A      0.731771  
     205A      0.734116   206A      0.736778   207A      0.741330  
     208A      0.743379   209A      0.750830   210A      0.756639  
     211A      0.762876   212A      0.775753   213A      0.780702  
     214A      0.782983   215A      0.785404   216A      0.788809  
     217A      0.789705   218A      0.791792   219A      0.798555  
     220A      0.799723   221A      0.811630   222A      0.812480  
     223A      0.829037   224A      0.839088   225A      0.841699  
     226A      0.845534   227A      0.850869   228A      0.863505  
     229A      0.874058   230A      0.874154   231A      0.886087  
     232A      0.887393   233A      0.888096   234A      0.893961  
     235A      0.895837   236A      0.901721   237A      0.907829  
     238A      0.908452   239A      0.912870   240A      0.918293  
     241A      0.924135   242A      0.928047   243A      0.931970  
     244A      0.936403   245A      0.941064   246A      0.948623  
     247A      0.954509   248A      0.956346   249A      0.959304  
     250A      0.962207   251A      0.965916   252A      0.967914  
     253A      0.978856   254A      0.981294   255A      0.984012  
     256A      0.991522   257A      0.991711   258A      0.998691  
     259A      1.001962   260A      1.008355   261A      1.011164  
     262A      1.021688   263A      1.023258   264A      1.029087  
     265A      1.039505   266A      1.046104   267A      1.046564  
     268A      1.048851   269A      1.049536   270A      1.050900  
     271A      1.059115   272A      1.064518   273A      1.068484  
     274A      1.076045   275A      1.081030   276A      1.081954  
     277A      1.086606   278A      1.096476   279A      1.096640  
     280A      1.100687   281A      1.104834   282A      1.105857  
     283A      1.120867   284A      1.121267   285A      1.130708  
     286A      1.133354   287A      1.144402   288A      1.144496  
     289A      1.150612   290A      1.152458   291A      1.158180  
     292A      1.161510   293A      1.165469   294A      1.170443  
     295A      1.176712   296A      1.180017   297A      1.189170  
     298A      1.191763   299A      1.196754   300A      1.202640  
     301A      1.210294   302A      1.212298   303A      1.215492  
     304A      1.222240   305A      1.222477   306A      1.236747  
     307A      1.247626   308A      1.249903   309A      1.252815  
     310A      1.258382   311A      1.265439   312A      1.267839  
     313A      1.277150   314A      1.282048   315A      1.284771  
     316A      1.286753   317A      1.292485   318A      1.303491  
     319A      1.305452   320A      1.307454   321A      1.315989  
     322A      1.323939   323A      1.329030   324A      1.331247  
     325A      1.332538   326A      1.342473   327A      1.354349  
     328A      1.361913   329A      1.362462   330A      1.380398  
     331A      1.386757   332A      1.403620   333A      1.403904  
     334A      1.421644   335A      1.423276   336A      1.431695  
     337A      1.445984   338A      1.446314   339A      1.458514  
     340A      1.460490   341A      1.471709   342A      1.481570  
     343A      1.485539   344A      1.494220   345A      1.498242  
     346A      1.505291   347A      1.508693   348A      1.512030  
     349A      1.536868   350A      1.539343   351A      1.549738  
     352A      1.549901   353A      1.554061   354A      1.560983  
     355A      1.565440   356A      1.587565   357A      1.588997  
     358A      1.593145   359A      1.600835   360A      1.605495  
     361A      1.620247   362A      1.623416   363A      1.624149  
     364A      1.640464   365A      1.659861   366A      1.662696  
     367A      1.676002   368A      1.679517   369A      1.682048  
     370A      1.687588   371A      1.697977   372A      1.703125  
     373A      1.705705   374A      1.724552   375A      1.731592  
     376A      1.737224   377A      1.739897   378A      1.746220  
     379A      1.752994   380A      1.757921   381A      1.762166  
     382A      1.771706   383A      1.776857   384A      1.782337  
     385A      1.787106   386A      1.796243   387A      1.800047  
     388A      1.818938   389A      1.832950   390A      1.837127  
     391A      1.841838   392A      1.852338   393A      1.852425  
     394A      1.858642   395A      1.872219   396A      1.872792  
     397A      1.875714   398A      1.888718   399A      1.903777  
     400A      1.903890   401A      1.907924   402A      1.923024  
     403A      1.944689   404A      1.951955   405A      1.953341  
     406A      1.956615   407A      1.967009   408A      1.976522  
     409A      1.978614   410A      1.985961   411A      1.991292  
     412A      2.015004   413A      2.030127   414A      2.035992  
     415A      2.038729   416A      2.044141   417A      2.046874  
     418A      2.053794   419A      2.059523   420A      2.060682  
     421A      2.074006   422A      2.077301   423A      2.094932  
     424A      2.109083   425A      2.114485   426A      2.123690  
     427A      2.130529   428A      2.133054   429A      2.138441  
     430A      2.144509   431A      2.156052   432A      2.162300  
     433A      2.162776   434A      2.169238   435A      2.188527  
     436A      2.197575   437A      2.198828   438A      2.203159  
     439A      2.204494   440A      2.223947   441A      2.230019  
     442A      2.234337   443A      2.247282   444A      2.263749  
     445A      2.264084   446A      2.267779   447A      2.281729  
     448A      2.289585   449A      2.306065   450A      2.317947  
     451A      2.318524   452A      2.332768   453A      2.337742  
     454A      2.358122   455A      2.372666   456A      2.377597  
     457A      2.381962   458A      2.394811   459A      2.411645  
     460A      2.412775   461A      2.414561   462A      2.426449  
     463A      2.440779   464A      2.444896   465A      2.452781  
     466A      2.480181   467A      2.480263   468A      2.488861  
     469A      2.526859   470A      2.533374   471A      2.547501  
     472A      2.560957   473A      2.576980   474A      2.582291  
     475A      2.585948   476A      2.587819   477A      2.587926  
     478A      2.603604   479A      2.606445   480A      2.626226  
     481A      2.641719   482A      2.652866   483A      2.657457  
     484A      2.660169   485A      2.690809   486A      2.735700  
     487A      2.755925   488A      2.759184   489A      2.773661  
     490A      2.801599   491A      2.819696   492A      2.830888  
     493A      2.833671   494A      2.838838   495A      2.853733  
     496A      2.859714   497A      2.874271   498A      2.897225  
     499A      2.913594   500A      2.943085   501A      2.960876  
     502A      2.997495   503A      3.020734   504A      3.032748  
     505A      3.067119   506A      3.067584   507A      3.069547  
     508A      3.136599   509A      3.154295   510A      3.168479  
     511A      3.180001   512A      3.201054   513A      3.213537  
     514A      3.228631   515A      3.238561   516A      3.247878  
     517A      3.262298   518A      3.276380   519A      3.279266  
     520A      3.298660   521A      3.302246   522A      3.310349  
     523A      3.351342   524A      3.353870   525A      3.398305  
     526A      3.401036   527A      3.411154   528A      3.417068  
     529A      3.420353   530A      3.421196   531A      3.424160  
     532A      3.437190   533A      3.445305   534A      3.452169  
     535A      3.455986   536A      3.475569   537A      3.498423  
     538A      3.499582   539A      3.515716   540A      3.520173  
     541A      3.523081   542A      3.534152   543A      3.536756  
     544A      3.541829   545A      3.551113   546A      3.554291  
     547A      3.558866   548A      3.569000   549A      3.572339  
     550A      3.586084   551A      3.587802   552A      3.590601  
     553A      3.607898   554A      3.618552   555A      3.628945  
     556A      3.639028   557A      3.643339   558A      3.666160  
     559A      3.666696   560A      3.673288   561A      3.676837  
     562A      3.687971   563A      3.703132   564A      3.711717  
     565A      3.711907   566A      3.740501   567A      3.750983  
     568A      3.760913   569A      3.778155   570A      3.779722  
     571A      3.788783   572A      3.806809   573A      3.807765  
     574A      3.820480   575A      3.823270   576A      3.830716  
     577A      3.842942   578A      3.859843   579A      3.876332  
     580A      3.878009   581A      3.884522   582A      3.899144  
     583A      3.905665   584A      3.905820   585A      3.914014  
     586A      3.919407   587A      3.929390   588A      3.931281  
     589A      3.936922   590A      3.949382   591A      3.961184  
     592A      3.967810   593A      3.977811   594A      3.987508  
     595A      3.989599   596A      3.999098   597A      4.010902  
     598A      4.030143   599A      4.040831   600A      4.041651  
     601A      4.054477   602A      4.069860   603A      4.075063  
     604A      4.084091   605A      4.093877   606A      4.105177  
     607A      4.109112   608A      4.115123   609A      4.132743  
     610A      4.141906   611A      4.150489   612A      4.157266  
     613A      4.165229   614A      4.179775   615A      4.194273  
     616A      4.194560   617A      4.205785   618A      4.208578  
     619A      4.210805   620A      4.219906   621A      4.231575  
     622A      4.232267   623A      4.249197   624A      4.249448  
     625A      4.253365   626A      4.255501   627A      4.289692  
     628A      4.293936   629A      4.308345   630A      4.310703  
     631A      4.323779   632A      4.344200   633A      4.346887  
     634A      4.353616   635A      4.374423   636A      4.374816  
     637A      4.383574   638A      4.394579   639A      4.398864  
     640A      4.410740   641A      4.420047   642A      4.426737  
     643A      4.435734   644A      4.445483   645A      4.447007  
     646A      4.453717   647A      4.467955   648A      4.469224  
     649A      4.474032   650A      4.483644   651A      4.514317  
     652A      4.523063   653A      4.535202   654A      4.536225  
     655A      4.545730   656A      4.552763   657A      4.555423  
     658A      4.581184   659A      4.583730   660A      4.602986  
     661A      4.616920   662A      4.632973   663A      4.636949  
     664A      4.651198   665A      4.654814   666A      4.691873  
     667A      4.694252   668A      4.729636   669A      4.734932  
     670A      4.739223   671A      4.744235   672A      4.762244  
     673A      4.776112   674A      4.781544   675A      4.826164  
     676A      4.847722   677A      4.862640   678A      4.884001  
     679A      4.895808   680A      4.904742   681A      4.921938  
     682A      4.929806   683A      4.951705   684A      4.953430  
     685A      4.969610   686A      4.973566   687A      4.979535  
     688A      4.982560   689A      5.016668   690A      5.028781  
     691A      5.034235   692A      5.034922   693A      5.059310  
     694A      5.071499   695A      5.074932   696A      5.080520  
     697A      5.087216   698A      5.089593   699A      5.110059  
     700A      5.122832   701A      5.138962   702A      5.153097  
     703A      5.160645   704A      5.168932   705A      5.175515  
     706A      5.175613   707A      5.180884   708A      5.199740  
     709A      5.201218   710A      5.226954   711A      5.251957  
     712A      5.272213   713A      5.279876   714A      5.311968  
     715A      5.318254   716A      5.330589   717A      5.339099  
     718A      5.354000   719A      5.356504   720A      5.394223  
     721A      5.413003   722A      5.416507   723A      5.429599  
     724A      5.444929   725A      5.455045   726A      5.461691  
     727A      5.477724   728A      5.482158   729A      5.493464  
     730A      5.546596   731A      5.552638   732A      5.562519  
     733A      5.570587   734A      5.644536   735A      5.664518  
     736A      5.691553   737A      5.702879   738A      5.735046  
     739A      5.747279   740A      5.758870   741A      5.789284  
     742A      5.831089   743A      5.850815   744A      5.870205  
     745A      5.879991   746A      5.910398   747A      5.913464  
     748A      5.947063   749A      6.022117   750A      6.047183  
     751A      6.078466   752A      6.108297   753A      6.138942  
     754A      6.181248   755A      6.219133   756A      6.232324  
     757A      6.266684   758A      6.309065   759A      6.327186  
     760A      6.393138   761A      6.414119   762A      6.465250  
     763A      6.467534   764A      6.519612   765A      6.563999  
     766A      6.578826   767A      6.596732   768A      6.695577  
     769A      6.696651   770A      6.729320   771A      6.785618  
     772A      6.870760   773A      6.884667   774A      6.893475  
     775A      6.903272   776A      6.918906   777A      7.005774  
     778A      7.029101   779A      7.055657   780A      7.062544  
     781A      7.102876   782A      7.209642   783A      7.261105  
     784A      7.404489   785A      7.421120   786A      7.434286  
     787A      7.694319   788A      7.703708   789A      7.759972  
     790A      8.019630   791A      8.394345   792A      8.642264  
     793A     15.622607   794A     16.190009   795A     16.504414  
     796A     16.735574   797A     16.826319   798A     18.547463  
     799A     18.858125   800A     19.245950   801A     19.786817  
     802A     20.065988   803A     20.068785   804A     20.243813  
     805A     21.871982  

    Final Occupation by Irrep:
              A 
    DOCC [    45 ]

  Energy converged.

  @DF-RHF Final Energy:  -551.28410103841554

   => Energetics <=

    Nuclear Repulsion Energy =            697.0914340874658137
    One-Electron Energy =               -2130.9760808688165525
    Two-Electron Energy =                 882.6005457429351964
    DFT Exchange-Correlation Energy =       0.0000000000000000
    Empirical Dispersion Energy =           0.0000000000000000
    PCM Polarization Energy =               0.0000000000000000
    EFP Energy =                            0.0000000000000000
    Total Energy =                       -551.2841010384155425



Properties will be evaluated at   0.000000,   0.000000,   0.000000 Bohr

Properties computed using the SCF density matrix

  Nuclear Dipole Moment: (a.u.)
     X:    -0.4744      Y:     0.2218      Z:     1.2087

  Electronic Dipole Moment: (a.u.)
     X:    -0.0620      Y:     0.0444      Z:    -0.2821

  Dipole Moment: (a.u.)
     X:    -0.5364      Y:     0.2662      Z:     0.9266     Total:     1.1033

  Dipole Moment: (Debye)
     X:    -1.3633      Y:     0.6766      Z:     2.3553     Total:     2.8043


*** tstop() called on gpu-1-6.local at Sun Nov 12 12:38:00 2017
Module time:
	user time   =    1036.00 seconds =      17.27 minutes
	system time =      47.00 seconds =       0.78 minutes
	total time  =        414 seconds =       6.90 minutes
Total time:
	user time   =    1036.00 seconds =      17.27 minutes
	system time =      47.00 seconds =       0.78 minutes
	total time  =        415 seconds =       6.92 minutes

  //>>>>>>>>>>>>>>>>>>>>>>>>>>>>>>>>>>>//
  //               DFMP2               //
  //<<<<<<<<<<<<<<<<<<<<<<<<<<<<<<<<<<<//

   => Loading Basis Set <=

    Name: (AUG-CC-PVTZ AUX)
    Role: RIFIT
    Keyword: DF_BASIS_MP2
    atoms 1-11  entry C          line   147 file /cbio/jclab/home/chayas/anaconda/envs/py35/share/psi4/basis/aug-cc-pvtz-ri.gbs 
    atoms 12    entry N          line   205 file /cbio/jclab/home/chayas/anaconda/envs/py35/share/psi4/basis/aug-cc-pvtz-ri.gbs 
    atoms 13    entry O          line   263 file /cbio/jclab/home/chayas/anaconda/envs/py35/share/psi4/basis/aug-cc-pvtz-ri.gbs 
    atoms 14-22 entry H          line    29 file /cbio/jclab/home/chayas/anaconda/envs/py35/share/psi4/basis/aug-cc-pvtz-ri.gbs 

	 --------------------------------------------------------
	                          DF-MP2                         
	      2nd-Order Density-Fitted Moller-Plesset Theory     
	              RMP2 Wavefunction,   8 Threads             
	                                                         
	        Rob Parrish, Justin Turney, Andy Simmonett,      
	           Ed Hohenstein, and C. David Sherrill          
	 --------------------------------------------------------

   => Auxiliary Basis Set <=

  Basis Set: (AUG-CC-PVTZ AUX)
    Blend: AUG-CC-PVTZ-RI
    Number of shells: 490
    Number of basis function: 1792
    Number of Cartesian functions: 2263
    Spherical Harmonics?: true
    Max angular momentum: 4

	 --------------------------------------------------------
	                 NBF =   805, NAUX =  1792
	 --------------------------------------------------------
	   CLASS    FOCC     OCC    AOCC    AVIR     VIR    FVIR
	   PAIRS       0      45      45     760     760       0
	 --------------------------------------------------------


         ------------------------------------------------------------
                                     CPHF                           
                                  Rob Parrish                       
         ------------------------------------------------------------

  ==> Geometry <==

    Molecular point group: c1
    Full point group: C1

    Geometry (in Angstrom), charge = 0, multiplicity = 1:

       Center              X                  Y                   Z               Mass       
    ------------   -----------------  -----------------  -----------------  -----------------
           C         -1.253111638521     0.710026479534    -0.590281890875    12.000000000000
           C         -0.260111638521     0.094026479534     1.523718109125    12.000000000000
           C         -2.331111638521     1.283026479534     0.082718109125    12.000000000000
           C         -1.338111638521     0.667026479534     2.197718109125    12.000000000000
           C          0.860888361479    -1.818973520466    -0.939281890875    12.000000000000
           C          2.020888361479     0.287026479534    -0.872281890875    12.000000000000
           C          1.956888361479    -2.339973520466    -1.607281890875    12.000000000000
           C          3.065888361479    -0.328973520466    -1.543281890875    12.000000000000
           C         -0.217111638521     0.115026479534     0.129718109125    12.000000000000
           C          0.901888361479    -0.478973520466    -0.568281890875    12.000000000000
           C         -2.374111638521     1.262026479534     1.476718109125    12.000000000000
           N          3.062888361479    -1.626973520466    -1.920281890875    14.003074004780
           O         -3.426111638521     1.822026479534     2.133718109125    15.994914619560
           H         -1.234111638521     0.734026479534    -1.677281890875     1.007825032070
           H          0.539888361479    -0.365973520466     2.099718109125     1.007825032070
           H         -3.135111638521     1.745026479534    -0.484281890875     1.007825032070
           H         -1.366111638521     0.648026479534     3.283718109125     1.007825032070
           H          0.004888361479    -2.447973520466    -0.721281890875     1.007825032070
           H          2.088888361479     1.335026479534    -0.598281890875     1.007825032070
           H          1.973888361479    -3.378973520466    -1.920281890875     1.007825032070
           H          3.961888361479     0.225026479534    -1.802281890875     1.007825032070
           H         -3.313111638521     1.728026479534     3.092718109125     1.007825032070

  Nuclear repulsion =  697.091434087465814
  Reference energy  = -551.284101038415542

  ==> Basis Set <==

  Basis Set: AUG-CC-PVTZ
    Blend: AUG-CC-PVTZ
    Number of shells: 263
    Number of basis function: 805
    Number of Cartesian functions: 940
    Spherical Harmonics?: true
    Max angular momentum: 3

  ==> CGRSolver (by Rob Parrish) <==

   Number of roots    =         1
   Preconditioning    =    JACOBI
   Convergence cutoff =     1E-06
   Maximum iterations =       100

  ==> CPHFRHamiltonian (by Rob Parrish) <== 

  ==> DFJK: Density-Fitted J/K Matrices <==

    J tasked:                  Yes
    K tasked:                  Yes
    wK tasked:                  No
    OpenMP threads:              8
    Integrals threads:           8
    Memory (MB):              3576
    Algorithm:                Disk
    Integral Cache:           NONE
    Schwarz Cutoff:          1E-12
    Fitting Condition:       1E-12

   => Auxiliary Basis Set <=

  Basis Set: (AUG-CC-PVTZ AUX)
    Blend: AUG-CC-PVTZ-JKFIT
    Number of shells: 516
    Number of basis function: 1766
    Number of Cartesian functions: 2198
    Spherical Harmonics?: true
    Max angular momentum: 4

  ==> CPHF Iterations <==

  => Iterations <=

             Iter  Converged  Remaining    Residual
  CGR           1          0          1   8.711E-02
  CGR           2          0          1   3.274E-02
  CGR           3          0          1   2.184E-02
  CGR           4          0          1   9.291E-03
  CGR           5          0          1   3.640E-03
  CGR           6          0          1   1.471E-03
  CGR           7          0          1   4.032E-04
  CGR           8          0          1   1.082E-04
  CGR           9          0          1   4.146E-05
  CGR          10          0          1   1.004E-05
  CGR          11          0          1   4.150E-06
  CGR          12          0          1   1.194E-06
  CGR          13          1          0   5.235E-07

    CGRSolver converged.

  ==> DFCorrGrad: Density-Fitted Correlated Gradients <==

    OpenMP threads:              8
    Integrals threads:           8
    Memory (MB):              3576
    Schwarz Cutoff:          0E+00
    Fitting Condition:       1E-12

   => Auxiliary Basis Set <=

  Basis Set: (AUG-CC-PVTZ AUX)
    Blend: AUG-CC-PVTZ-JKFIT
    Number of shells: 516
    Number of basis function: 1766
    Number of Cartesian functions: 2198
    Spherical Harmonics?: true
    Max angular momentum: 4

	-----------------------------------------------------------
	 ==================> DF-MP2 Energies <==================== 
	-----------------------------------------------------------
	 Reference Energy          =    -551.2841010384155425 [Eh]
	 Singles Energy            =      -0.0000000000000000 [Eh]
	 Same-Spin Energy          =      -0.6041192469447507 [Eh]
	 Opposite-Spin Energy      =      -1.8301716200650515 [Eh]
	 Correlation Energy        =      -2.4342908670098025 [Eh]
	 Total Energy              =    -553.7183919054253920 [Eh]
	-----------------------------------------------------------
	 ================> DF-SCS-MP2 Energies <================== 
	-----------------------------------------------------------
	 SCS Same-Spin Scale       =       0.3333333333333333 [-]
	 SCS Opposite-Spin Scale   =       1.2000000000000000 [-]
	 SCS Same-Spin Energy      =      -0.2013730823149169 [Eh]
	 SCS Opposite-Spin Energy  =      -2.1962059440780619 [Eh]
	 SCS Correlation Energy    =      -2.3975790263929788 [Eh]
	 SCS Total Energy          =    -553.6816800648085746 [Eh]
	-----------------------------------------------------------


  -Total Gradient:
     Atom            X                  Y                   Z
    ------   -----------------  -----------------  -----------------
       1        0.005795780874    -0.002854183190    -0.008009787273
       2        0.006747205357    -0.003556976040    -0.003396651863
       3        0.002599456673    -0.001479910748     0.000705668514
       4       -0.004934172203     0.002459496912     0.006993296884
       5       -0.007727935794    -0.001563309861     0.003290212672
       6       -0.003962220590     0.006405444568     0.003585556093
       7       -0.013504921402    -0.002033323951     0.005957548930
       8       -0.005023167312     0.011669118706     0.005672592791
       9        0.009033704442    -0.004888712552    -0.006139479183
      10       -0.002406338790     0.002170378784     0.001669888791
      11       -0.007876041113     0.004567534585    -0.007513368393
      12        0.013773318757    -0.006849474932    -0.008533852412
      13        0.006120758890    -0.003353963113     0.000206427027
      14       -0.001589988535     0.001025526894    -0.005650945849
      15        0.002989093023    -0.001821360193     0.005028744165
      16       -0.002689680290     0.001652877036    -0.005105364093
      17        0.000830632285    -0.000556636564     0.003596545939
      18       -0.001921860955    -0.004183834593    -0.000369363748
      19        0.002468881379     0.004444538566     0.000213000501
      20        0.000554349640    -0.002661179576    -0.001142586618
      21        0.002387267806     0.000813567500    -0.000815005768
      22       -0.001664122149     0.000594381758     0.009756922892


*** tstop() called on gpu-1-6.local at Sun Nov 12 13:09:47 2017
Module time:
	user time   =    5049.87 seconds =      84.16 minutes
	system time =     102.10 seconds =       1.70 minutes
	total time  =       2321 seconds =      38.68 minutes
Total time:
	user time   =    5049.87 seconds =      84.16 minutes
	system time =     102.10 seconds =       1.70 minutes
	total time  =       2322 seconds =      38.70 minutes

			-----------------------------------------
			 OPTKING 2.0: for geometry optimizations 
			  - R.A. King,  Bethel University        
			-----------------------------------------

	Internal coordinates to be generated automatically.
	Detected frag 1 with atoms:  1 2 3 4 5 6 7 8 9 10 11 12 13 14 15 16 17 18 19 20
	 21 22
	---Fragment 1 Bond Connectivity---
	 1 : 3 9 14
	 2 : 4 9 15
	 3 : 1 11 16
	 4 : 2 11 17
	 5 : 7 10 18
	 6 : 8 10 19
	 7 : 5 12 20
	 8 : 6 12 21
	 9 : 1 2 10
	 10 : 5 6 9
	 11 : 3 4 13
	 12 : 7 8
	 13 : 11 22
	 14 : 1
	 15 : 2
	 16 : 3
	 17 : 4
	 18 : 5
	 19 : 6
	 20 : 7
	 21 : 8
	 22 : 13

	Assuming in current code that numbering for constraints corresponds to unified fragment.
	Fixed dihedral atom list: 
	     1     9    10     5
	---Fragment 1 Geometry and Gradient---
	 C          -2.3680378107        1.3417555934       -1.1154711150
	 C          -0.4915397608        0.1776842956        2.8794099300
	 C          -4.4051625820        2.4245686676        0.1563145725
	 C          -2.5286645320        1.2604973697        4.1530853435
	 C           1.6268432342       -3.4373617967       -1.7749855353
	 C           3.8189255483        0.5424014392       -1.6483738844
	 C           3.6979830758       -4.4219091119       -3.0373225921
	 C           5.7936893572       -0.6216698587       -2.9163801196
	 C          -0.4102815371        0.2173685443        0.2451317007
	 C           1.7043220056       -0.9051287786       -1.0738971400
	 C          -4.4864208057        2.3848844188        2.7905928017
	 N           5.7880201788       -3.0745343791       -3.6288068717
	 O          -6.4744126975        3.4431310532        4.0321428710
	 H          -2.3321330142        1.3871090206       -3.1696034214
	 H           1.0202411455       -0.6915897256        3.9678921825
	 H          -5.9245023928        3.2976221410       -0.9151601449
	 H          -2.5815768638        1.2245925732        6.2053279238
	 H           0.0092376644       -4.6259995342       -1.3630252384
	 H           3.9474269254        2.5228344265       -1.1305889240
	 H           3.7301084201       -6.3853345640       -3.6288068717
	 H           7.4868839723        0.4252384190       -3.4058191880
	 H          -6.2608736445        3.2654967967        5.8443902325
	             0.0057957809       -0.0028541832       -0.0080097873
	             0.0067472054       -0.0035569760       -0.0033966519
	             0.0025994567       -0.0014799107        0.0007056685
	            -0.0049341722        0.0024594969        0.0069932969
	            -0.0077279358       -0.0015633099        0.0032902127
	            -0.0039622206        0.0064054446        0.0035855561
	            -0.0135049214       -0.0020333240        0.0059575489
	            -0.0050231673        0.0116691187        0.0056725928
	             0.0090337044       -0.0048887126       -0.0061394792
	            -0.0024063388        0.0021703788        0.0016698888
	            -0.0078760411        0.0045675346       -0.0075133684
	             0.0137733188       -0.0068494749       -0.0085338524
	             0.0061207589       -0.0033539631        0.0002064270
	            -0.0015899885        0.0010255269       -0.0056509458
	             0.0029890930       -0.0018213602        0.0050287442
	            -0.0026896803        0.0016528770       -0.0051053641
	             0.0008306323       -0.0005566366        0.0035965459
	            -0.0019218610       -0.0041838346       -0.0003693637
	             0.0024688814        0.0044445386        0.0002130005
	             0.0005543496       -0.0026611796       -0.0011425866
	             0.0023872678        0.0008135675       -0.0008150058
	            -0.0016641221        0.0005943818        0.0097569229

	Previous optimization step data not found.  Starting new optimization.

	---Fragment 1 Intrafragment Coordinates---
	 - Coordinate -           - BOHR/RAD -       - ANG/DEG -
	 R(1,3)           =         2.634350	       1.394038
	 R(1,9)           =         2.635962	       1.394891
	 R(1,14)          =         2.054947	       1.087431
	 R(2,4)           =         2.635263	       1.394521
	 R(2,9)           =         2.635830	       1.394821
	 R(2,15)          =         2.055702	       1.087831
	 R(3,11)          =         2.635830	       1.394821
	 R(3,16)          =         2.053941	       1.086899
	 R(4,11)          =         2.636938	       1.395407
	 R(4,17)          =         2.053239	       1.086527
	 R(5,7)           =         2.617718	       1.385237
	 R(5,10)          =         2.628637	       1.391015
	 R(5,18)          =         2.049200	       1.084390
	 R(6,8)           =         2.619655	       1.386262
	 R(6,10)          =         2.626198	       1.389724
	 R(6,19)          =         2.051031	       1.085359
	 R(7,12)          =         2.556077	       1.352617
	 R(7,20)          =         2.050835	       1.085255
	 R(8,12)          =         2.554237	       1.351644
	 R(8,21)          =         2.049994	       1.084810
	 R(9,10)          =         2.733384	       1.446444
	 R(11,13)         =         2.571662	       1.360865
	 R(13,22)         =         1.833410	       0.970199
	 B(1,3,11)        =         2.094553	     120.009056
	 B(1,3,16)        =         2.088505	     119.662516
	 B(1,9,2)         =         2.093692	     119.959722
	 B(1,9,10)        =         2.095161	     120.043881
	 B(2,4,11)        =         2.093699	     119.960108
	 B(2,4,17)        =         2.089577	     119.723926
	 B(2,9,10)        =         2.094332	     119.996376
	 B(3,1,9)         =         2.094940	     120.031219
	 B(3,1,14)        =         2.079469	     119.144799
	 B(3,11,4)        =         2.094306	     119.994870
	 B(3,11,13)       =         2.094549	     120.008801
	 B(4,2,9)         =         2.095181	     120.045019
	 B(4,2,15)        =         2.078675	     119.099297
	 B(4,11,13)       =         2.094331	     119.996326
	 B(5,7,12)        =         2.165516	     124.074901
	 B(5,7,20)        =         2.107787	     120.767294
	 B(5,10,6)        =         2.090202	     119.759752
	 B(5,10,9)        =         2.096133	     120.099563
	 B(6,8,12)        =         2.165253	     124.059844
	 B(6,8,21)        =         2.107444	     120.747635
	 B(6,10,9)        =         2.096850	     120.140630
	 B(7,5,10)        =         2.057382	     117.879315
	 B(7,5,18)        =         2.098260	     120.221467
	 B(7,12,8)        =         2.030271	     116.325968
	 B(8,6,10)        =         2.057747	     117.900207
	 B(8,6,19)        =         2.099057	     120.267099
	 B(9,1,14)        =         2.108776	     120.823969
	 B(9,2,15)        =         2.109330	     120.855683
	 B(10,5,18)       =         2.127541	     121.899129
	 B(10,6,19)       =         2.126381	     121.832656
	 B(11,3,16)       =         2.100127	     120.328425
	 B(11,4,17)       =         2.099910	     120.315955
	 B(11,13,22)      =         1.925489	     110.322421
	 B(12,7,20)       =         2.009881	     115.157715
	 B(12,8,21)       =         2.010489	     115.192507
	 D(1,3,11,4)      =        -0.000325	      -0.018609
	 D(1,3,11,13)     =         3.140978	     179.964785
	 D(1,9,2,4)       =         0.000325	       0.018608
	 D(1,9,2,15)      =        -3.141497	    -179.994534
	 D(1,9,10,5)      =        -1.571155	     -90.020542
	 D(1,9,10,6)      =         1.568937	      89.893450
	 D(2,4,11,3)      =         0.000301	       0.017261
	 D(2,4,11,13)     =        -3.141002	    -179.966135
	 D(2,9,1,3)       =        -0.000348	      -0.019945
	 D(2,9,1,14)      =        -3.141221	    -179.978731
	 D(2,9,10,5)      =         1.571354	      90.031961
	 D(2,9,10,6)      =        -1.571740	     -90.054047
	 D(3,1,9,10)      =        -3.141025	    -179.967461
	 D(3,11,4,17)     =         3.141223	     179.978848
	 D(3,11,13,22)    =         3.140828	     179.956172
	 D(4,2,9,10)      =         3.141002	     179.966149
	 D(4,11,3,16)     =         3.141593	     180.000000
	 D(4,11,13,22)    =        -0.001055	      -0.060434
	 D(5,7,12,8)      =         0.000034	       0.001971
	 D(5,10,6,8)      =        -0.000492	      -0.028173
	 D(5,10,6,19)     =        -3.140860	    -179.958032
	 D(6,8,12,7)      =        -0.000551	      -0.031545
	 D(6,10,5,7)      =         0.000030	       0.001693
	 D(6,10,5,18)     =        -3.139677	    -179.890263
	 D(7,5,10,9)      =         3.140127	     179.916014
	 D(7,12,8,21)     =         3.140295	     179.925670
	 D(8,6,10,9)      =        -3.140588	    -179.942458
	 D(8,12,7,20)     =         3.139733	     179.893424
	 D(9,1,3,11)      =         0.000348	       0.019955
	 D(9,1,3,16)      =        -3.141571	    -179.998735
	 D(9,2,4,11)      =        -0.000301	      -0.017270
	 D(9,2,4,17)      =        -3.141228	    -179.979086
	 D(9,10,5,18)     =         0.000420	       0.024058
	 D(9,10,6,19)     =         0.002228	       0.127683
	 D(10,5,7,12)     =         0.000214	       0.012241
	 D(10,5,7,20)     =        -3.139383	    -179.873414
	 D(10,6,8,12)     =         0.000784	       0.044934
	 D(10,6,8,21)     =        -3.140022	    -179.910018
	 D(10,9,1,14)     =         0.001287	       0.073752
	 D(10,9,2,15)     =        -0.000820	      -0.046992
	 D(11,3,1,14)     =         3.141234	     179.979432
	 D(11,4,2,15)     =         3.141517	     179.995641
	 D(12,7,5,18)     =         3.139954	     179.906087
	 D(12,8,6,19)     =         3.141173	     179.975937
	 D(13,11,3,16)    =        -0.000286	      -0.016400
	 D(13,11,4,17)    =        -0.000079	      -0.004548
	 D(14,1,3,16)     =        -0.000685	      -0.039257
	 D(15,2,4,17)     =         0.000590	       0.033826
	 D(18,5,7,20)     =         0.000357	       0.020431
	 D(19,6,8,21)     =         0.000366	       0.020985

	Current energy   :      -553.7183919054

	Generating empirical Hessian (Schlegel '84) for each fragment.
	Adding user-defined constraint: Fragment 1; Coordinate 63:
		Value =    -1.571155; Fixed value    =    -1.570796
		Force =     0.000179; Force constant =     0.500000
	Removing off-diagonal coupling between coordinate 63 and others.
	Taking RFO optimization step.
	Going to follow RFO solution 1.
	Using RFO vector 1.

	Determining step-restricting scale parameter for RS-RFO.
	Maximum step size allowed    0.10000

	 Iter      |step|        alpha        rfo_root  
	------------------------------------------------
	    0     0.14470       1.00000           1
	    1     0.11640      14.06388           1
	    2     0.10330      25.42368           1
	    3     0.10018      28.97949           1
	    4     0.10000      29.19541           1
	------------------------------------------------
	Norm of target step-size    0.10000
	Projected energy change by RFO approximation:        -0.0043727224

	Back-transformation to cartesian coordinates...
	Could not converge backtransformation.
	Using first guess instead.

	--- Internal Coordinate Step in ANG or DEG, aJ/ANG or AJ/DEG ---
	 ---------------------------------------------------------------------------
	   Coordinate                Previous        Force       Change         New 
	   ----------                --------       ------       ------       ------
	    1 R(1,3)          =      1.394038    -0.046857    -0.005098     1.388940
	    2 R(1,9)          =      1.394891    -0.025026    -0.002549     1.392342
	    3 R(1,14)         =      1.087431    -0.046496    -0.006219     1.081212
	    4 R(2,4)          =      1.394521    -0.049163    -0.005268     1.389253
	    5 R(2,9)          =      1.394821    -0.036428    -0.003823     1.390998
	    6 R(2,15)         =      1.087831    -0.046393    -0.006189     1.081642
	    7 R(3,11)         =      1.394821    -0.084022    -0.009183     1.385638
	    8 R(3,16)         =      1.086899    -0.044123    -0.005848     1.081051
	    9 R(4,11)         =      1.395407    -0.037666    -0.004118     1.391289
	   10 R(4,17)         =      1.086527    -0.029520    -0.003940     1.082587
	   11 R(5,7)          =      1.385237     0.011521     0.001204     1.386441
	   12 R(5,10)         =      1.391015    -0.021486    -0.001807     1.389207
	   13 R(5,18)         =      1.084390    -0.031881    -0.004229     1.080161
	   14 R(6,8)          =      1.386262     0.006462     0.000675     1.386937
	   15 R(6,10)         =      1.389724    -0.014852    -0.001091     1.388633
	   16 R(6,19)         =      1.085359    -0.037074    -0.004932     1.080427
	   17 R(7,12)         =      1.352617    -0.124098    -0.012130     1.340488
	   18 R(7,20)         =      1.085255    -0.023777    -0.003159     1.082096
	   19 R(8,12)         =      1.351644    -0.119981    -0.011700     1.339944
	   20 R(8,21)         =      1.084810    -0.021271    -0.002822     1.081988
	   21 R(9,10)         =      1.446444     0.163580     0.020363     1.466807
	   22 R(11,13)        =      1.360865    -0.001890     0.000339     1.361204
	   23 R(13,22)        =      0.970199    -0.077385    -0.007476     0.962723
	   24 B(1,3,11)       =    120.009056    -0.000041    -0.133421   119.875635
	   25 B(1,3,16)       =    119.662516     0.000232     0.621559   120.284075
	   26 B(1,9,2)        =    119.959722    -0.000514    -1.012882   118.946840
	   27 B(1,9,10)       =    120.043881     0.000267     0.528664   120.572545
	   28 B(2,4,11)       =    119.960108     0.000101     0.199910   120.160018
	   29 B(2,4,17)       =    119.723926     0.000031     0.113789   119.837715
	   30 B(2,9,10)       =    119.996376     0.000247     0.484226   120.480602
	   31 B(3,1,9)        =    120.031219     0.000374     0.791696   120.822915
	   32 B(3,1,14)       =    119.144799    -0.000037    -0.005078   119.139722
	   33 B(3,11,4)       =    119.994870    -0.000090    -0.220412   119.774459
	   34 B(3,11,13)      =    120.008801    -0.000835    -1.637741   118.371060
	   35 B(4,2,9)        =    120.045019     0.000169     0.375110   120.420129
	   36 B(4,2,15)       =    119.099297     0.000104     0.306930   119.406228
	   37 B(4,11,13)      =    119.996326     0.000924     1.858154   121.854480
	   38 B(5,7,12)       =    124.074901    -0.000026    -0.130653   123.944249
	   39 B(5,7,20)       =    120.767294    -0.000034    -0.056804   120.710490
	   40 B(5,10,6)       =    119.759752    -0.000897    -1.675270   118.084482
	   41 B(5,10,9)       =    120.099563     0.000450     0.840852   120.940415
	   42 B(6,8,12)       =    124.059844    -0.000022    -0.123191   123.936653
	   43 B(6,8,21)       =    120.747635    -0.000035    -0.059965   120.687670
	   44 B(6,10,9)       =    120.140630     0.000447     0.834419   120.975049
	   45 B(7,5,10)       =    117.879315     0.000404     0.925932   118.805247
	   46 B(7,5,18)       =    120.221467    -0.000005     0.050559   120.272026
	   47 B(7,12,8)       =    116.325968     0.000142     0.086765   116.412733
	   48 B(8,6,10)       =    117.900207     0.000399     0.916418   118.816625
	   49 B(8,6,19)       =    120.267099    -0.000014     0.025579   120.292678
	   50 B(9,1,14)       =    120.823969    -0.000336    -0.786615   120.037354
	   51 B(9,2,15)       =    120.855683    -0.000274    -0.682041   120.173642
	   52 B(10,5,18)      =    121.899129    -0.000399    -0.976468   120.922661
	   53 B(10,6,19)      =    121.832656    -0.000385    -0.941981   120.890675
	   54 B(11,3,16)      =    120.328425    -0.000191    -0.488137   119.840288
	   55 B(11,4,17)      =    120.315955    -0.000132    -0.313696   120.002259
	   56 B(11,13,22)     =    110.322421    -0.000443    -1.151180   109.171241
	   57 B(12,7,20)      =    115.157715     0.000059     0.187494   115.345208
	   58 B(12,8,21)      =    115.192507     0.000058     0.183165   115.375672
	   59 D(1,3,11,4)     =     -0.018609     0.000000     0.001452    -0.017156
	   60 D(1,3,11,13)    =    179.964785     0.000000     0.005876   179.970661
	   61 D(1,9,2,4)      =      0.018608    -0.000000    -0.005692     0.012915
	   62 D(1,9,2,15)     =   -179.994534    -0.000000    -0.003806  -179.998340
	   63 D(1,9,10,5)     =    -90.020542     0.000001     0.011275   -90.009267
	   64 D(1,9,10,6)     =     89.893450     0.000001     0.010758    89.904208
	   65 D(2,4,11,3)     =      0.017261    -0.000000    -0.001425     0.015836
	   66 D(2,4,11,13)    =   -179.966135    -0.000000    -0.005409  -179.971543
	   67 D(2,9,1,3)      =     -0.019945     0.000000     0.005594    -0.014350
	   68 D(2,9,1,14)     =   -179.978731     0.000000    -0.000263  -179.978994
	   69 D(2,9,10,5)     =     90.031961     0.000001     0.000102    90.032062
	   70 D(2,9,10,6)     =    -90.054047     0.000000    -0.000416   -90.054463
	   71 D(3,1,9,10)     =   -179.967461    -0.000000    -0.006186  -179.973647
	   72 D(3,11,4,17)    =    179.978848     0.000000     0.004074   179.982922
	   73 D(3,11,13,22)   =    179.956172    -0.000000    -0.000543   179.955629
	   74 D(4,2,9,10)     =    179.966149     0.000000     0.006102   179.972251
	   75 D(4,11,3,16)    =    180.000000    -0.000000    -0.001187   179.998813
	   76 D(4,11,13,22)   =     -0.060434     0.000000     0.003614    -0.056820
	   77 D(5,7,12,8)     =      0.001971    -0.000000    -0.004222    -0.002250
	   78 D(5,10,6,8)     =     -0.028173    -0.000000     0.000228    -0.027944
	   79 D(5,10,6,19)    =   -179.958032    -0.000001    -0.016761  -179.974793
	   80 D(6,8,12,7)     =     -0.031545     0.000000     0.005825    -0.025720
	   81 D(6,10,5,7)     =      0.001693     0.000000     0.000921     0.002614
	   82 D(6,10,5,18)    =   -179.890263    -0.000000    -0.014746  -179.905009
	   83 D(7,5,10,9)     =    179.916014     0.000000     0.002514   179.918527
	   84 D(7,12,8,21)    =    179.925670     0.000001     0.021620   179.947290
	   85 D(8,6,10,9)     =   -179.942458    -0.000000    -0.001369  -179.943827
	   86 D(8,12,7,20)    =    179.893424     0.000001     0.020718   179.914142
	   87 D(9,1,3,11)     =      0.019955    -0.000000    -0.003358     0.016597
	   88 D(9,1,3,16)     =   -179.998735    -0.000000    -0.001265  -180.000000
	   89 D(9,2,4,11)     =     -0.017270     0.000000     0.003464    -0.013806
	   90 D(9,2,4,17)     =   -179.979086    -0.000000    -0.001861  -179.980946
	   91 D(9,10,5,18)    =      0.024058    -0.000001    -0.013153     0.010904
	   92 D(9,10,6,19)    =      0.127683    -0.000001    -0.018359     0.109325
	   93 D(10,5,7,12)    =      0.012241    -0.000000     0.001120     0.013361
	   94 D(10,5,7,20)    =   -179.873414    -0.000001    -0.025340  -179.898753
	   95 D(10,6,8,12)    =      0.044934    -0.000000    -0.003468     0.041466
	   96 D(10,6,8,21)    =   -179.910018    -0.000001    -0.020159  -179.930177
	   97 D(10,9,1,14)    =      0.073752    -0.000001    -0.012044     0.061709
	   98 D(10,9,2,15)    =     -0.046992     0.000001     0.007988    -0.039004
	   99 D(11,3,1,14)    =    179.979432     0.000000     0.002122   179.981554
	  100 D(11,4,2,15)    =    179.995641     0.000000     0.001721   179.997362
	  101 D(12,7,5,18)    =    179.906087     0.000001     0.015516   179.921602
	  102 D(12,8,6,19)    =    179.975937     0.000001     0.012704   179.988641
	  103 D(13,11,3,16)   =     -0.016400     0.000000     0.003030    -0.013370
	  104 D(13,11,4,17)   =     -0.004548     0.000000     0.000090    -0.004458
	  105 D(14,1,3,16)    =     -0.039257     0.000000     0.004770    -0.034487
	  106 D(15,2,4,17)    =      0.033826    -0.000000    -0.003603     0.030222
	  107 D(18,5,7,20)    =      0.020431    -0.000001    -0.010944     0.009488
	  108 D(19,6,8,21)    =      0.020985    -0.000000    -0.003987     0.016998
	 ---------------------------------------------------------------------------
	Successfully symmetrized geometry.
	 Forces used to impose fixed constraints are not included.
	  Forces zeroed: 63 

  ==> Convergence Check <==

  Measures of convergence in internal coordinates in au.
  Criteria marked as inactive (o), active & met (*), and active & unmet ( ).
  --------------------------------------------------------------------------------------------- ~
   Step     Total Energy     Delta E     MAX Force     RMS Force      MAX Disp      RMS Disp    ~
  --------------------------------------------------------------------------------------------- ~
    Convergence Criteria    1.00e-06 *    3.00e-04 *             o    1.20e-03 *             o  ~
  --------------------------------------------------------------------------------------------- ~
      1    -553.71839191   -5.54e+02      1.99e-02      4.40e-03 o    3.85e-02      9.62e-03 o  ~
  ---------------------------------------------------------------------------------------------

	Writing optimization data to binary file.
	Structure for next step:
	Cartesian Geometry (in Angstrom)
	    C    -1.2660312327   0.7162195548  -0.5621021451
	    C    -0.2734539094   0.1010940482   1.5318570358
	    C    -2.3409455295   1.2876488982   0.1066142298
	    C    -1.3467043855   0.6715034872   2.2047548229
	    C     0.8853612143  -1.8186565445  -0.9506366977
	    C     2.0346241201   0.2668474055  -0.8842835358
	    C     1.9795858003  -2.3409765406  -1.6229997325
	    C     3.0793295164  -0.3467674972  -1.5593113437
	    C    -0.2240187384   0.1184876778   0.1418465999
	    C     0.9088012078  -0.4828323245  -0.5699511152
	    C    -2.3826645082   1.2662144836   1.4914584669
	    N     3.0744578823  -1.6330903852  -1.9345447177
	    O    -3.4501031356   1.8356612785   2.1153029301
	    H    -1.2457814720   0.7393895358  -1.6428760416
	    H     0.5253350488  -0.3579561965   2.0985648821
	    H    -3.1453374985   1.7494486325  -0.4486928974
	    H    -1.3753972794   0.6529200693   3.2868018635
	    H     0.0321836683  -2.4435781931  -0.7308451073
	    H     2.1011327916   1.3096334672  -0.6095180931
	    H     1.9933939429  -3.3769381422  -1.9352885530
	    H     3.9711582988   0.2084313257  -1.8183347977
	    H    -3.3443818499   1.7458785092   3.0679823475
			--------------------------
			 OPTKING Finished Execution 
			--------------------------

    Structure for next step:
    Molecular point group: c1
    Full point group: C1

    Geometry (in Angstrom), charge = 0, multiplicity = 1:

    C           -1.266164794766     0.716293450637    -0.561805129773
    C           -0.273587471478     0.101167943988     1.532154051086
    C           -2.341079091572     1.287722793978     0.106911245065
    C           -1.346837947580     0.671577382990     2.205051838153
    C            0.885227652172    -1.818582648699    -0.950339682401
    C            2.034490557948     0.266921301296    -0.883986520552
    C            1.979452238244    -2.340902644843    -1.622702717233
    C            3.079195954269    -0.346693601398    -1.559014328389
    C           -0.224152300530     0.118561573639     0.142143615151
    C            0.908667645673    -0.482758428740    -0.569654099889
    C           -2.382798070298     1.266288379425     1.491755482197
    N            3.074324320213    -1.633016489429    -1.934247702439
    O           -3.450236697717     1.835735174279     2.115599945428
    H           -1.245915034080     0.739463431615    -1.642579026347
    H            0.525201486691    -0.357882300662     2.098861897363
    H           -3.145471060596     1.749522528287    -0.448395882086
    H           -1.375530841523     0.652993965093     3.287098878753
    H            0.032050106166    -2.443504297297    -0.730548092001
    H            2.100999229452     1.309707362959    -0.609221077766
    H            1.993260380845    -3.376864246386    -1.934991537747
    H            3.971024736712     0.208505221475    -1.818037782368
    H           -3.344515411954     1.745952405007     3.068279362805

gradient() will perform analytic gradient computation.

*** tstart() called on gpu-1-6.local
*** at Sun Nov 12 13:09:48 2017

    SCF Algorithm Type (re)set to DF.

*** tstart() called on gpu-1-6.local
*** at Sun Nov 12 13:09:48 2017

   => Loading Basis Set <=

    Name: AUG-CC-PVTZ
    Role: ORBITAL
    Keyword: BASIS
    atoms 1-11  entry C          line   221 file /cbio/jclab/home/chayas/anaconda/envs/py35/share/psi4/basis/aug-cc-pvtz.gbs 
    atoms 12    entry N          line   267 file /cbio/jclab/home/chayas/anaconda/envs/py35/share/psi4/basis/aug-cc-pvtz.gbs 
    atoms 13    entry O          line   313 file /cbio/jclab/home/chayas/anaconda/envs/py35/share/psi4/basis/aug-cc-pvtz.gbs 
    atoms 14-22 entry H          line    34 file /cbio/jclab/home/chayas/anaconda/envs/py35/share/psi4/basis/aug-cc-pvtz.gbs 


         ---------------------------------------------------------
                                   SCF
            by Justin Turney, Rob Parrish, and Andy Simmonett
                              RHF Reference
                        8 Threads,   4768 MiB Core
         ---------------------------------------------------------

  ==> Geometry <==

    Molecular point group: c1
    Full point group: C1

    Geometry (in Angstrom), charge = 0, multiplicity = 1:

       Center              X                  Y                   Z               Mass       
    ------------   -----------------  -----------------  -----------------  -----------------
           C         -1.266164794766     0.716293450637    -0.561805129773    12.000000000000
           C         -0.273587471478     0.101167943988     1.532154051086    12.000000000000
           C         -2.341079091572     1.287722793978     0.106911245065    12.000000000000
           C         -1.346837947580     0.671577382990     2.205051838153    12.000000000000
           C          0.885227652172    -1.818582648699    -0.950339682401    12.000000000000
           C          2.034490557948     0.266921301296    -0.883986520552    12.000000000000
           C          1.979452238244    -2.340902644843    -1.622702717233    12.000000000000
           C          3.079195954269    -0.346693601398    -1.559014328389    12.000000000000
           C         -0.224152300530     0.118561573639     0.142143615151    12.000000000000
           C          0.908667645673    -0.482758428740    -0.569654099889    12.000000000000
           C         -2.382798070298     1.266288379425     1.491755482197    12.000000000000
           N          3.074324320213    -1.633016489429    -1.934247702439    14.003074004780
           O         -3.450236697717     1.835735174279     2.115599945428    15.994914619560
           H         -1.245915034080     0.739463431615    -1.642579026347     1.007825032070
           H          0.525201486691    -0.357882300662     2.098861897363     1.007825032070
           H         -3.145471060596     1.749522528287    -0.448395882086     1.007825032070
           H         -1.375530841523     0.652993965093     3.287098878753     1.007825032070
           H          0.032050106166    -2.443504297297    -0.730548092001     1.007825032070
           H          2.100999229452     1.309707362959    -0.609221077766     1.007825032070
           H          1.993260380845    -3.376864246386    -1.934991537747     1.007825032070
           H          3.971024736712     0.208505221475    -1.818037782368     1.007825032070
           H         -3.344515411954     1.745952405007     3.068279362805     1.007825032070

  Running in c1 symmetry.

  Rotational constants: A =      0.09844  B =      0.01266  C =      0.01261 [cm^-1]
  Rotational constants: A =   2951.21012  B =    379.62063  C =    378.07879 [MHz]
  Nuclear repulsion =  696.852749506697819

  Charge       = 0
  Multiplicity = 1
  Electrons    = 90
  Nalpha       = 45
  Nbeta        = 45

  ==> Algorithm <==

  SCF Algorithm Type is DF.
  DIIS enabled.
  MOM disabled.
  Fractional occupation disabled.
  Guess Type is READ.
  Energy threshold   = 1.00e-10
  Density threshold  = 1.00e-10
  Integral threshold = 0.00e+00

  ==> Primary Basis <==

  Basis Set: AUG-CC-PVTZ
    Blend: AUG-CC-PVTZ
    Number of shells: 263
    Number of basis function: 805
    Number of Cartesian functions: 940
    Spherical Harmonics?: true
    Max angular momentum: 3

   => Loading Basis Set <=

    Name: (AUG-CC-PVTZ AUX)
    Role: JKFIT
    Keyword: DF_BASIS_SCF
    atoms 1-11  entry C          line   161 file /cbio/jclab/home/chayas/anaconda/envs/py35/share/psi4/basis/aug-cc-pvtz-jkfit.gbs 
    atoms 12    entry N          line   223 file /cbio/jclab/home/chayas/anaconda/envs/py35/share/psi4/basis/aug-cc-pvtz-jkfit.gbs 
    atoms 13    entry O          line   285 file /cbio/jclab/home/chayas/anaconda/envs/py35/share/psi4/basis/aug-cc-pvtz-jkfit.gbs 
    atoms 14-22 entry H          line    69 file /cbio/jclab/home/chayas/anaconda/envs/py35/share/psi4/basis/aug-cc-pvtz-jkfit.gbs 

  Reading orbitals from file 180, no projection.

  ==> Pre-Iterations <==

   -------------------------------------------------------
    Irrep   Nso     Nmo     Nalpha   Nbeta   Ndocc  Nsocc
   -------------------------------------------------------
     A        805     805       0       0       0       0
   -------------------------------------------------------
    Total     805     805      45      45      45       0
   -------------------------------------------------------

  ==> Integral Setup <==

  ==> DFJK: Density-Fitted J/K Matrices <==

    J tasked:                  Yes
    K tasked:                  Yes
    wK tasked:                  No
    OpenMP threads:              8
    Integrals threads:           8
    Memory (MB):              3576
    Algorithm:                Disk
    Integral Cache:           NONE
    Schwarz Cutoff:          1E-12
    Fitting Condition:       1E-12

   => Auxiliary Basis Set <=

  Basis Set: (AUG-CC-PVTZ AUX)
    Blend: AUG-CC-PVTZ-JKFIT
    Number of shells: 516
    Number of basis function: 1766
    Number of Cartesian functions: 2198
    Spherical Harmonics?: true
    Max angular momentum: 4

  Minimum eigenvalue in the overlap matrix is 5.8472711055E-07.
  Using Symmetric Orthogonalization.

  SCF Guess: Orbitals guess was supplied from a previous computation.

  ==> Iterations <==

                           Total Energy        Delta E     RMS |[F,P]|

   @DF-RHF iter   0:  -551.38526599537772   -5.51385e+02   5.67542e-04 
   @DF-RHF iter   1:  -551.28857289777898    9.66931e-02   1.18652e-04 
   @DF-RHF iter   2:  -551.28913964883634   -5.66751e-04   7.54077e-05 DIIS
   @DF-RHF iter   3:  -551.28956482693786   -4.25178e-04   1.40255e-05 DIIS
   @DF-RHF iter   4:  -551.28957431130198   -9.48436e-06   4.64741e-06 DIIS
   @DF-RHF iter   5:  -551.28957630359525   -1.99229e-06   1.52924e-06 DIIS
   @DF-RHF iter   6:  -551.28957663370454   -3.30109e-07   8.96589e-07 DIIS
   @DF-RHF iter   7:  -551.28957676736195   -1.33657e-07   3.42894e-07 DIIS
   @DF-RHF iter   8:  -551.28957680988276   -4.25208e-08   1.31850e-07 DIIS
   @DF-RHF iter   9:  -551.28957681460383   -4.72107e-09   4.39668e-08 DIIS
   @DF-RHF iter  10:  -551.28957681491966   -3.15822e-10   1.56296e-08 DIIS
   @DF-RHF iter  11:  -551.28957681497843   -5.87761e-11   3.99404e-09 DIIS
   @DF-RHF iter  12:  -551.28957681498298   -4.54747e-12   2.22856e-09 DIIS
   @DF-RHF iter  13:  -551.28957681497775    5.22959e-12   9.57753e-10 DIIS
   @DF-RHF iter  14:  -551.28957681496922    8.52651e-12   4.20763e-10 DIIS
   @DF-RHF iter  15:  -551.28957681496092    8.29914e-12   1.54501e-10 DIIS
   @DF-RHF iter  16:  -551.28957681499344   -3.25144e-11   4.39126e-11 DIIS

  ==> Post-Iterations <==

    Orbital Energies (a.u.)
    -----------------------

    Doubly Occupied:                                                      

       1A    -20.598522     2A    -15.563574     3A    -11.309949  
       4A    -11.272779     5A    -11.272729     6A    -11.262860  
       7A    -11.250711     8A    -11.248828     9A    -11.243678  
      10A    -11.242366    11A    -11.236918    12A    -11.236873  
      13A    -11.236501    14A     -1.416103    15A     -1.256528  
      16A     -1.172400    17A     -1.104453    18A     -1.033945  
      19A     -1.032178    20A     -1.011840    21A     -0.878883  
      22A     -0.857840    23A     -0.857099    24A     -0.811193  
      25A     -0.745447    26A     -0.724708    27A     -0.677455  
      28A     -0.667958    29A     -0.656381    30A     -0.636972  
      31A     -0.616374    32A     -0.600754    33A     -0.600357  
      34A     -0.596817    35A     -0.580362    36A     -0.538543  
      37A     -0.526913    38A     -0.524192    39A     -0.505355  
      40A     -0.488758    41A     -0.418434    42A     -0.377837  
      43A     -0.356195    44A     -0.345788    45A     -0.323768  

    Virtual:                                                              

      46A      0.022242    47A      0.030901    48A      0.034183  
      49A      0.035051    50A      0.042080    51A      0.049720  
      52A      0.050464    53A      0.051625    54A      0.061420  
      55A      0.084350    56A      0.085666    57A      0.089319  
      58A      0.089881    59A      0.099368    60A      0.099569  
      61A      0.101015    62A      0.106275    63A      0.107421  
      64A      0.108577    65A      0.109968    66A      0.115112  
      67A      0.116490    68A      0.122439    69A      0.124799  
      70A      0.126047    71A      0.126557    72A      0.132127  
      73A      0.138374    74A      0.138965    75A      0.141006  
      76A      0.142075    77A      0.142677    78A      0.152689  
      79A      0.153348    80A      0.159224    81A      0.163718  
      82A      0.166216    83A      0.166457    84A      0.176341  
      85A      0.190398    86A      0.190853    87A      0.194564  
      88A      0.201096    89A      0.204732    90A      0.219437  
      91A      0.224631    92A      0.229356    93A      0.232362  
      94A      0.235280    95A      0.239808    96A      0.243133  
      97A      0.244639    98A      0.249471    99A      0.254380  
     100A      0.256715   101A      0.259211   102A      0.260194  
     103A      0.266722   104A      0.271277   105A      0.274267  
     106A      0.281276   107A      0.283560   108A      0.283803  
     109A      0.293832   110A      0.296904   111A      0.301296  
     112A      0.306753   113A      0.307885   114A      0.310177  
     115A      0.315063   116A      0.317446   117A      0.318921  
     118A      0.326980   119A      0.329117   120A      0.338852  
     121A      0.340416   122A      0.340558   123A      0.346509  
     124A      0.348393   125A      0.363975   126A      0.366292  
     127A      0.369196   128A      0.377963   129A      0.382367  
     130A      0.387784   131A      0.392365   132A      0.397282  
     133A      0.403392   134A      0.406240   135A      0.409909  
     136A      0.418315   137A      0.418714   138A      0.421956  
     139A      0.427005   140A      0.433795   141A      0.436027  
     142A      0.438019   143A      0.444138   144A      0.446555  
     145A      0.448822   146A      0.451796   147A      0.455620  
     148A      0.461550   149A      0.463364   150A      0.469862  
     151A      0.471980   152A      0.477891   153A      0.480516  
     154A      0.484635   155A      0.488216   156A      0.494325  
     157A      0.498105   158A      0.501471   159A      0.502861  
     160A      0.508365   161A      0.509563   162A      0.509822  
     163A      0.515076   164A      0.519610   165A      0.521896  
     166A      0.522684   167A      0.528460   168A      0.534059  
     169A      0.535532   170A      0.540917   171A      0.542585  
     172A      0.545170   173A      0.547898   174A      0.553547  
     175A      0.562934   176A      0.568251   177A      0.569173  
     178A      0.582793   179A      0.583463   180A      0.587287  
     181A      0.589143   182A      0.599819   183A      0.603422  
     184A      0.611689   185A      0.617625   186A      0.618252  
     187A      0.623978   188A      0.632172   189A      0.634030  
     190A      0.636037   191A      0.636897   192A      0.653455  
     193A      0.658708   194A      0.680475   195A      0.681846  
     196A      0.688579   197A      0.692875   198A      0.694341  
     199A      0.699154   200A      0.708380   201A      0.712559  
     202A      0.725831   203A      0.727255   204A      0.731916  
     205A      0.735322   206A      0.736385   207A      0.742871  
     208A      0.743241   209A      0.751690   210A      0.757012  
     211A      0.763925   212A      0.773852   213A      0.780252  
     214A      0.782188   215A      0.784490   216A      0.788494  
     217A      0.788677   218A      0.792814   219A      0.797338  
     220A      0.799579   221A      0.811258   222A      0.814978  
     223A      0.827672   224A      0.838241   225A      0.840783  
     226A      0.845841   227A      0.848882   228A      0.863394  
     229A      0.874271   230A      0.874939   231A      0.886054  
     232A      0.887482   233A      0.891583   234A      0.896448  
     235A      0.897042   236A      0.904673   237A      0.908178  
     238A      0.909318   239A      0.915107   240A      0.919847  
     241A      0.925136   242A      0.929495   243A      0.930691  
     244A      0.937327   245A      0.937782   246A      0.949245  
     247A      0.954317   248A      0.955766   249A      0.957768  
     250A      0.963009   251A      0.963506   252A      0.966394  
     253A      0.978930   254A      0.982374   255A      0.983257  
     256A      0.990618   257A      0.993539   258A      0.996777  
     259A      0.999815   260A      1.006780   261A      1.008174  
     262A      1.023989   263A      1.024879   264A      1.028128  
     265A      1.038205   266A      1.044977   267A      1.047098  
     268A      1.048851   269A      1.050290   270A      1.051314  
     271A      1.059438   272A      1.065511   273A      1.067312  
     274A      1.077836   275A      1.080917   276A      1.082654  
     277A      1.087485   278A      1.094890   279A      1.097912  
     280A      1.100450   281A      1.103958   282A      1.105984  
     283A      1.119362   284A      1.121099   285A      1.131327  
     286A      1.132547   287A      1.142924   288A      1.144803  
     289A      1.148211   290A      1.152393   291A      1.155272  
     292A      1.164425   293A      1.168320   294A      1.172851  
     295A      1.177391   296A      1.182535   297A      1.189895  
     298A      1.192604   299A      1.198124   300A      1.204192  
     301A      1.211669   302A      1.215223   303A      1.216186  
     304A      1.221977   305A      1.226652   306A      1.237591  
     307A      1.246319   308A      1.252184   309A      1.253161  
     310A      1.260707   311A      1.263392   312A      1.270893  
     313A      1.273658   314A      1.280504   315A      1.283635  
     316A      1.289433   317A      1.293251   318A      1.304349  
     319A      1.306635   320A      1.309246   321A      1.316927  
     322A      1.321533   323A      1.330754   324A      1.333181  
     325A      1.334301   326A      1.346013   327A      1.357067  
     328A      1.363498   329A      1.363730   330A      1.383278  
     331A      1.387284   332A      1.404709   333A      1.407530  
     334A      1.418518   335A      1.421239   336A      1.429547  
     337A      1.445204   338A      1.447214   339A      1.460492  
     340A      1.461539   341A      1.470929   342A      1.477459  
     343A      1.486154   344A      1.494257   345A      1.499501  
     346A      1.504150   347A      1.506533   348A      1.512573  
     349A      1.535432   350A      1.538107   351A      1.551655  
[...]
	 R(7,12)          =         2.522588	       1.334896
	 R(7,20)          =         2.042893	       1.081052
	 R(8,12)          =         2.522577	       1.334890
	 R(8,21)          =         2.042892	       1.081052
	 R(9,10)          =         2.777856	       1.469978
	 R(11,13)         =         2.575428	       1.362858
	 R(13,22)         =         1.817691	       0.961881
	 B(1,3,11)        =         2.091642	     119.842267
	 B(1,3,16)        =         2.114967	     121.178670
	 B(1,9,2)         =         2.070188	     118.613037
	 B(1,9,10)        =         2.107375	     120.743680
	 B(2,4,11)        =         2.094019	     119.978466
	 B(2,4,17)        =         2.094959	     120.032322
	 B(2,9,10)        =         2.105623	     120.643283
	 B(3,1,9)         =         2.111190	     120.962274
	 B(3,1,14)        =         2.088514	     119.663064
	 B(3,11,4)        =         2.091741	     119.847919
	 B(3,11,13)       =         2.046204	     117.238874
	 B(4,2,9)         =         2.107590	     120.756036
	 B(4,2,15)        =         2.089394	     119.713435
	 B(4,11,13)       =         2.145240	     122.913205
	 B(5,7,12)        =         2.157499	     123.615594
	 B(5,7,20)        =         2.097306	     120.166811
	 B(5,10,6)        =         2.046193	     117.238233
	 B(5,10,9)        =         2.118482	     121.380089
	 B(6,8,12)        =         2.157504	     123.615881
	 B(6,8,21)        =         2.097300	     120.166417
	 B(6,10,9)        =         2.118510	     121.381661
	 B(7,5,10)        =         2.082945	     119.343931
	 B(7,5,18)        =         2.102215	     120.448042
	 B(7,12,8)        =         2.039289	     116.842659
	 B(8,6,10)        =         2.082940	     119.343659
	 B(8,6,19)        =         2.102194	     120.446816
	 B(9,1,14)        =         2.083481	     119.374661
	 B(9,2,15)        =         2.086201	     119.530529
	 B(10,5,18)       =         2.098026	     120.208025
	 B(10,6,19)       =         2.098052	     120.209524
	 B(11,3,16)       =         2.076576	     118.979062
	 B(11,4,17)       =         2.094207	     119.989212
	 B(11,13,22)      =         1.901611	     108.954313
	 B(12,7,20)       =         2.028379	     116.217536
	 B(12,8,21)       =         2.028381	     116.217662
	 D(1,3,11,4)      =        -0.000079	      -0.004547
	 D(1,3,11,13)     =        -3.141452	    -179.991953
	 D(1,9,2,4)       =        -0.000085	      -0.004886
	 D(1,9,2,15)      =         3.141550	     179.997546
	 D(1,9,10,5)      =        -1.570809	     -90.000734
	 D(1,9,10,6)      =         1.569916	      89.949576
	 D(2,4,11,3)      =         0.000067	       0.003822
	 D(2,4,11,13)     =         3.141427	     179.990484
	 D(2,9,1,3)       =         0.000073	       0.004156
	 D(2,9,1,14)      =        -3.141562	    -179.998224
	 D(2,9,10,5)      =         1.570700	      89.994473
	 D(2,9,10,6)      =        -1.571760	     -90.055217
	 D(3,1,9,10)      =         3.141593	     180.000000
	 D(3,11,4,17)     =        -3.141510	    -179.995244
	 D(3,11,13,22)    =         3.141408	     179.989429
	 D(4,2,9,10)      =         3.141593	     180.000000
	 D(4,11,3,16)     =         3.141518	     179.995711
	 D(4,11,13,22)    =         0.000043	       0.002441
	 D(5,7,12,8)      =        -0.000793	      -0.045444
	 D(5,10,6,8)      =        -0.001189	      -0.068100
	 D(5,10,6,19)     =         3.140267	     179.924070
	 D(6,8,12,7)      =         0.000046	       0.002622
	 D(6,10,5,7)      =         0.000504	       0.028891
	 D(6,10,5,18)     =        -3.140898	    -179.960184
	 D(7,5,10,9)      =         3.141264	     179.981178
	 D(7,12,8,21)     =        -3.140286	    -179.925115
	 D(8,6,10,9)      =         3.141237	     179.979613
	 D(8,12,7,20)     =        -3.140828	    -179.956182
	 D(9,1,3,11)      =         0.000000	       0.000000
	 D(9,1,3,16)      =         3.141593	     180.000000
	 D(9,2,4,11)      =         0.000017	       0.000948
	 D(9,2,4,17)      =         3.141593	     180.000000
	 D(9,10,5,18)     =        -0.000138	      -0.007896
	 D(9,10,6,19)     =        -0.000492	      -0.028216
	 D(10,5,7,12)     =         0.000517	       0.029614
	 D(10,5,7,20)     =         3.140493	     179.936991
	 D(10,6,8,12)     =         0.000959	       0.054965
	 D(10,6,8,21)     =         3.141243	     179.979981
	 D(10,9,1,14)     =        -0.000051	      -0.002921
	 D(10,9,2,15)     =         0.000039	       0.002239
	 D(11,3,1,14)     =        -3.141542	    -179.997088
	 D(11,4,2,15)     =         3.141567	     179.998511
	 D(12,7,5,18)     =        -3.141267	    -179.981338
	 D(12,8,6,19)     =        -3.140496	    -179.937186
	 D(13,11,3,16)    =         0.000145	       0.008305
	 D(13,11,4,17)    =        -0.000150	      -0.008582
	 D(14,1,3,16)     =         0.000046	       0.002649
	 D(15,2,4,17)     =        -0.000042	      -0.002423
	 D(18,5,7,20)     =        -0.001291	      -0.073961
	 D(19,6,8,21)     =        -0.000212	      -0.012171

	Current energy   :      -553.7215213621

	Energy change for the previous step:
		Projected    :        -0.0000037097
		Actual       :        -0.0000009325

	Performing BFGS update.
	Previous computed or guess Hessian on step 1.
	Steps to be used in Hessian update: 4 3
	Adding user-defined constraint: Fragment 1; Coordinate 63:
		Value =    -1.570809; Fixed value    =    -1.570800
		Force =     0.000005; Force constant =     0.600000
	Removing off-diagonal coupling between coordinate 63 and others.
	Taking RFO optimization step.
	Going to follow RFO solution 1.
	Using RFO vector 1.
	Norm of target step-size    0.00392
	Projected energy change by RFO approximation:        -0.0000000480

	Back-transformation to cartesian coordinates...
	Could not converge backtransformation.
	Using first guess instead.

	--- Internal Coordinate Step in ANG or DEG, aJ/ANG or AJ/DEG ---
	 ---------------------------------------------------------------------------
	   Coordinate                Previous        Force       Change         New 
	   ----------                --------       ------       ------       ------
	    1 R(1,3)          =      1.384931    -0.000138    -0.000036     1.384895
	    2 R(1,9)          =      1.392901    -0.000023     0.000002     1.392903
	    3 R(1,14)         =      1.079989    -0.000087    -0.000024     1.079965
	    4 R(2,4)          =      1.387214     0.000113     0.000025     1.387240
	    5 R(2,9)          =      1.390853    -0.000195    -0.000039     1.390813
	    6 R(2,15)         =      1.079998    -0.000104    -0.000026     1.079973
	    7 R(3,11)         =      1.387524    -0.000254    -0.000034     1.387489
	    8 R(3,16)         =      1.078977    -0.000068    -0.000015     1.078962
	    9 R(4,11)         =      1.387954    -0.000118    -0.000031     1.387924
	   10 R(4,17)         =      1.081451    -0.000073    -0.000017     1.081434
	   11 R(5,7)          =      1.386928    -0.000201    -0.000041     1.386887
	   12 R(5,10)         =      1.389822    -0.000199    -0.000012     1.389810
	   13 R(5,18)         =      1.079819    -0.000171    -0.000040     1.079779
	   14 R(6,8)          =      1.386932    -0.000212    -0.000044     1.386888
	   15 R(6,10)         =      1.389820    -0.000207    -0.000013     1.389808
	   16 R(6,19)         =      1.079821    -0.000179    -0.000043     1.079779
	   17 R(7,12)         =      1.334896     0.000118     0.000036     1.334932
	   18 R(7,20)         =      1.081052     0.000005     0.000013     1.081065
	   19 R(8,12)         =      1.334890     0.000156     0.000041     1.334932
	   20 R(8,21)         =      1.081052     0.000013     0.000013     1.081065
	   21 R(9,10)         =      1.469978     0.000435     0.000055     1.470033
	   22 R(11,13)        =      1.362858     0.000159     0.000020     1.362878
	   23 R(13,22)        =      0.961881    -0.000314    -0.000041     0.961840
	   24 B(1,3,11)       =    119.842267     0.000001     0.003517   119.845784
	   25 B(1,3,16)       =    121.178670     0.000001     0.008529   121.187199
	   26 B(1,9,2)        =    118.613037     0.000001     0.002471   118.615508
	   27 B(1,9,10)       =    120.743680    -0.000001    -0.003771   120.739909
	   28 B(2,4,11)       =    119.978466    -0.000001    -0.003762   119.974704
	   29 B(2,4,17)       =    120.032322    -0.000000    -0.000605   120.031717
	   30 B(2,9,10)       =    120.643283     0.000000     0.001300   120.644583
	   31 B(3,1,9)        =    120.962274    -0.000001    -0.004614   120.957660
	   32 B(3,1,14)       =    119.663064     0.000001     0.007183   119.670248
	   33 B(3,11,4)       =    119.847919     0.000000     0.001679   119.849599
	   34 B(3,11,13)      =    117.238874    -0.000001    -0.002576   117.236298
	   35 B(4,2,9)        =    120.756036    -0.000000     0.000710   120.756745
	   36 B(4,2,15)       =    119.713435    -0.000001    -0.003353   119.710082
	   37 B(4,11,13)      =    122.913205     0.000000     0.000898   122.914103
	   38 B(5,7,12)       =    123.615594    -0.000001    -0.004193   123.611401
	   39 B(5,7,20)       =    120.166811     0.000002     0.006552   120.173362
	   40 B(5,10,6)       =    117.238233     0.000001     0.003140   117.241373
	   41 B(5,10,9)       =    121.380089    -0.000000    -0.001180   121.378909
	   42 B(6,8,12)       =    123.615881    -0.000001    -0.004234   123.611647
	   43 B(6,8,21)       =    120.166417     0.000002     0.006747   120.173164
	   44 B(6,10,9)       =    121.381661    -0.000000    -0.001954   121.379707
	   45 B(7,5,10)       =    119.343931     0.000000     0.000416   119.344347
	   46 B(7,5,18)       =    120.448042    -0.000001    -0.007458   120.440584
	   47 B(7,12,8)       =    116.842659    -0.000000     0.004397   116.847056
	   48 B(8,6,10)       =    119.343659     0.000000     0.000489   119.344149
	   49 B(8,6,19)       =    120.446816    -0.000001    -0.006449   120.440367
	   50 B(9,1,14)       =    119.374661    -0.000000    -0.002569   119.372092
	   51 B(9,2,15)       =    119.530529     0.000001     0.002644   119.533173
	   52 B(10,5,18)      =    120.208025     0.000001     0.007043   120.215068
	   53 B(10,6,19)      =    120.209524     0.000001     0.005960   120.215483
	   54 B(11,3,16)      =    118.979062    -0.000002    -0.012045   118.967017
	   55 B(11,4,17)      =    119.989212     0.000001     0.004367   119.993579
	   56 B(11,13,22)     =    108.954313     0.000000     0.001901   108.956214
	   57 B(12,7,20)      =    116.217536    -0.000001    -0.002306   116.215230
	   58 B(12,8,21)      =    116.217662    -0.000001    -0.002481   116.215181
	   59 D(1,3,11,4)     =     -0.004547     0.000000     0.005997     0.001450
	   60 D(1,3,11,13)    =   -179.991953    -0.000000    -0.009286  -180.001239
	   61 D(1,9,2,4)      =     -0.004886     0.000000     0.003807    -0.001080
	   62 D(1,9,2,15)     =    179.997546     0.000000     0.002454   180.000000
	   63 D(1,9,10,5)     =    -90.000734     0.000000     0.000035   -90.000699
	   64 D(1,9,10,6)     =     89.949576     0.000000     0.008970    89.958546
	   65 D(2,4,11,3)     =      0.003822    -0.000000    -0.004821    -0.001000
	   66 D(2,4,11,13)    =    179.990484     0.000000     0.011365   180.001848
	   67 D(2,9,1,3)      =      0.004156    -0.000000    -0.002616     0.001540
	   68 D(2,9,1,14)     =   -179.998224    -0.000000    -0.000129  -179.998353
	   69 D(2,9,10,5)     =     89.994473     0.000000     0.000412    89.994885
	   70 D(2,9,10,6)     =    -90.055217     0.000000     0.009347   -90.045870
	   71 D(3,1,9,10)     =    180.000000    -0.000000    -0.002788   179.997212
	   72 D(3,11,4,17)    =   -179.995244    -0.000000    -0.006325  -180.001569
	   73 D(3,11,13,22)   =    179.989429     0.000000     0.012475   180.001904
	   74 D(4,2,9,10)     =    180.000000     0.000000     0.003244   180.003244
	   75 D(4,11,3,16)    =    179.995711     0.000000     0.004289   180.000000
	   76 D(4,11,13,22)   =      0.002441    -0.000000    -0.003315    -0.000874
	   77 D(5,7,12,8)     =     -0.045444     0.000000     0.035879    -0.009565
	   78 D(5,10,6,8)     =     -0.068100     0.000000     0.026852    -0.041248
	   79 D(5,10,6,19)    =    179.924070     0.000000     0.023139   179.947210
	   80 D(6,8,12,7)     =      0.002622     0.000000     0.027698     0.030320
	   81 D(6,10,5,7)     =      0.028891     0.000000     0.031364     0.060254
	   82 D(6,10,5,18)    =   -179.960184     0.000000     0.021870  -179.938314
	   83 D(7,5,10,9)     =    179.981178     0.000000     0.039941   180.021119
	   84 D(7,12,8,21)    =   -179.925115    -0.000001    -0.077182  -180.002297
	   85 D(8,6,10,9)     =    179.979613     0.000000     0.018274   179.997887
	   86 D(8,12,7,20)    =   -179.956182    -0.000001    -0.084362  -180.040544
	   87 D(9,1,3,11)     =      0.000000    -0.000000    -0.001739    -0.001739
	   88 D(9,1,3,16)     =    180.000000     0.000000     0.000000   180.000000
	   89 D(9,2,4,11)     =      0.000948    -0.000000    -0.000122     0.000826
	   90 D(9,2,4,17)     =    180.000000     0.000000     0.001395   180.001395
	   91 D(9,10,5,18)    =     -0.007896     0.000000     0.030447     0.022551
	   92 D(9,10,6,19)    =     -0.028216     0.000000     0.014562    -0.013655
	   93 D(10,5,7,12)    =      0.029614    -0.000001    -0.066105    -0.036491
	   94 D(10,5,7,20)    =    179.936991     0.000001     0.058667   179.995658
	   95 D(10,6,8,12)    =      0.054965    -0.000001    -0.059469    -0.004503
	   96 D(10,6,8,21)    =    179.979981     0.000000     0.049363   180.029344
	   97 D(10,9,1,14)    =     -0.002921     0.000000     0.000240    -0.002681
	   98 D(10,9,2,15)    =      0.002239     0.000000     0.001373     0.003611
	   99 D(11,3,1,14)    =   -179.997088    -0.000000    -0.004759  -180.001847
	  100 D(11,4,2,15)    =    179.998511     0.000000     0.001489   180.000000
	  101 D(12,7,5,18)    =   -179.981338    -0.000001    -0.056588  -180.037926
	  102 D(12,8,6,19)    =   -179.937186    -0.000000    -0.055748  -179.992935
	  103 D(13,11,3,16)   =      0.008305    -0.000000    -0.010881    -0.002577
	  104 D(13,11,4,17)   =     -0.008582     0.000000     0.009861     0.001279
	  105 D(14,1,3,16)    =      0.002649    -0.000000    -0.002649     0.000000
	  106 D(15,2,4,17)    =     -0.002423     0.000000     0.003451     0.001028
	  107 D(18,5,7,20)    =     -0.073961     0.000001     0.068185    -0.005777
	  108 D(19,6,8,21)    =     -0.012171     0.000000     0.053083     0.040913
	 ---------------------------------------------------------------------------
	Successfully symmetrized geometry.
	 Forces used to impose fixed constraints are not included.
	  Forces zeroed: 63 

  ==> Convergence Check <==

  Measures of convergence in internal coordinates in au.
  Criteria marked as inactive (o), active & met (*), and active & unmet ( ).
  ---------------------------------------------------------------------------------------------
   Step     Total Energy     Delta E     MAX Force     RMS Force      MAX Disp      RMS Disp   
  ---------------------------------------------------------------------------------------------
    Convergence Criteria    1.00e-06 *    3.00e-04 *             o    1.20e-03 *             o
  ---------------------------------------------------------------------------------------------
      5    -553.72152136   -9.32e-07 *    5.28e-05 *    1.64e-05 o    1.47e-03      3.77e-04 o  ~
  ---------------------------------------------------------------------------------------------


  **** Optimization is complete! (in 5 steps) ****

  ==> Optimization Summary <==

  Measures of convergence in internal coordinates in au.
  --------------------------------------------------------------------------------------------------------------- ~
   Step         Total Energy             Delta E       MAX Force       RMS Force        MAX Disp        RMS Disp  ~
  --------------------------------------------------------------------------------------------------------------- ~
      1    -553.718391905425   -553.718391905425      0.01985503      0.00439890      0.03847999      0.00962361  ~
      2    -553.721179513899     -0.002787608473      0.00415834      0.00121635      0.01712606      0.00519428  ~
      3    -553.721510887226     -0.000331373328      0.00084864      0.00020065      0.00340856      0.00092327  ~
      4    -553.721520429616     -0.000009542389      0.00020655      0.00005827      0.00209068      0.00060701  ~
      5    -553.721521362073     -0.000000932457      0.00005277      0.00001640      0.00147240      0.00037733  ~
  --------------------------------------------------------------------------------------------------------------- ~

	Writing optimization data to binary file.
	Final energy is   -553.7215213620731
	Final (previous) structure:
	Cartesian Geometry (in Angstrom)
	    C    -1.2712368608   0.7194075397  -0.5545686199
	    C    -0.2782159965   0.1036394324   1.5346698191
	    C    -2.3422132416   1.2885718031   0.1140838279
	    C    -1.3476365052   0.6716992262   2.2114355727
	    C     0.8936824323  -1.8176961070  -0.9552352221
	    C     2.0391565397   0.2595224046  -0.8887843132
	    C     1.9869703818  -2.3427465970  -1.6280010037
	    C     3.0851953474  -0.3520500508  -1.5635902293
	    C    -0.2262992330   0.1202051975   0.1448850340
	    C     0.9081261651  -0.4824861950  -0.5697324735
	    C    -2.3816153782   1.2653133115   1.5008529592
	    N     3.0756595657  -1.6340793463  -1.9353989607
	    O    -3.4599526768   1.8404702277   2.1039817782
	    H    -1.2435014624   0.7391855034  -1.6340198195
	    H     0.5240499337  -0.3571094673   2.0918737518
	    H    -3.1534858917   1.7536236074  -0.4242050756
	    H    -1.3760503730   0.6522139217   3.2923380384
	    H     0.0386236659  -2.4383325380  -0.7323116977
	    H     2.1007834373   1.3017638228  -0.6131950855
	    H     1.9902931728  -3.3798331105  -1.9331485404
	    H     3.9710544118   0.2126230325  -1.8186809195
	    H    -3.3657496346   1.7573856058   3.0576259507
	Saving final (previous) structure.
			--------------------------
			 OPTKING Finished Execution 
			--------------------------

    Final optimized geometry and variables:
    Molecular point group: c1
    Full point group: C1

    Geometry (in Angstrom), charge = 0, multiplicity = 1:

    C           -1.271236860799     0.719407539748    -0.554568619943
    C           -0.278215996518     0.103639432353     1.534669819143
    C           -2.342213241574     1.288571803079     0.114083827875
    C           -1.347636505191     0.671699226217     2.211435572716
    C            0.893682432309    -1.817696106990    -0.955235222074
    C            2.039156539714     0.259522404636    -0.888784313228
    C            1.986970381784    -2.342746596985    -1.628001003698
    C            3.085195347409    -0.352050050823    -1.563590229296
    C           -0.226299232989     0.120205197458     0.144885033975
    C            0.908126165079    -0.482486195024    -0.569732473528
    C           -2.381615378155     1.265313311523     1.500852959185
    N            3.075659565729    -1.634079346346    -1.935398960711
    O           -3.459952676824     1.840470227679     2.103981778219
    H           -1.243501462437     0.739185503447    -1.634019819531
    H            0.524049933689    -0.357109467261     2.091873751829
    H           -3.153485891676     1.753623607354    -0.424205075629
    H           -1.376050372969     0.652213921727     3.292338038363
    H            0.038623665887    -2.438332537957    -0.732311697671
    H            2.100783437267     1.301763822789    -0.613195085481
    H            1.990293172750    -3.379833110467    -1.933148540419
    H            3.971054411765     0.212623032532    -1.818680919471
    H           -3.365749634591     1.757385605802     3.057625950700

	Cleaning optimization helper files.

*** Psi4 exiting successfully. Buy a developer a beer!
