
    -----------------------------------------------------------------------
          Psi4: An Open-Source Ab Initio Electronic Structure Package
                               Psi4 1.1 release

                         Git: Rev {HEAD} add49b9 


    R. M. Parrish, L. A. Burns, D. G. A. Smith, A. C. Simmonett,
    A. E. DePrince III, E. G. Hohenstein, U. Bozkaya, A. Yu. Sokolov,
    R. Di Remigio, R. M. Richard, J. F. Gonthier, A. M. James,
    H. R. McAlexander, A. Kumar, M. Saitow, X. Wang, B. P. Pritchard,
    P. Verma, H. F. Schaefer III, K. Patkowski, R. A. King, E. F. Valeev,
    F. A. Evangelista, J. M. Turney, T. D. Crawford, and C. D. Sherrill,
    J. Chem. Theory Comput. in press (2017).
    (doi: 10.1021/acs.jctc.7b00174)

    -----------------------------------------------------------------------


    Psi4 started on: Sunday, 12 November 2017 12:43AM

    Process ID:   2870
    PSIDATADIR: /cbio/jclab/home/chayas/anaconda/envs/py35/share/psi4
    Memory:     500.0 MiB
    Threads:    8
    
  ==> Input File <==

--------------------------------------------------------------------------

memory 5 Gb

molecule phepyrFOH_zwitterion {
  symmetry C1
  0 1 
  C      1.885   -1.036   -0.112
  C      0.807   -0.463   0.561
  C      5.328   -1.751   0.122
  C      3.823   -3.268   -0.990
  C      1.800   -1.079   2.676
  C      6.380   -2.338   -0.566
  C      4.913   -3.817   -1.650
  C      2.921   -1.631   0.608
  C      4.038   -2.224   -0.095
  C      0.764   -0.484   1.955
  C      2.878   -1.652   2.002
  N      6.146   -3.343   -1.422
  O      -0.227   0.043   2.574
  F      3.866   -2.220   2.709
  H      1.904   -1.013   -1.200
  H      0.011   -0.007   -0.025
  H      5.525   -0.938   0.815
  H      2.827   -3.657   -1.179
  H      1.791   -1.109   3.764
  H      7.413   -2.037   -0.460
  H      4.841   -4.629   -2.360
  H      6.933   -3.759   -1.918
  units Angstrom
}

dih_string = "1 8 9 3 120"
set optking fixed_dihedral = $dih_string

optimize('MP2/aug-cc-PVTZ')
--------------------------------------------------------------------------

  Memory set to   4.657 GiB by Python driver.
gradient() will perform analytic gradient computation.

*** tstart() called on gpu-1-10.local
*** at Sun Nov 12 00:43:56 2017

    SCF Algorithm Type (re)set to DF.

*** tstart() called on gpu-1-10.local
*** at Sun Nov 12 00:43:56 2017

   => Loading Basis Set <=

    Name: AUG-CC-PVTZ
    Role: ORBITAL
    Keyword: BASIS
    atoms 1-11  entry C          line   221 file /cbio/jclab/home/chayas/anaconda/envs/py35/share/psi4/basis/aug-cc-pvtz.gbs 
    atoms 12    entry N          line   267 file /cbio/jclab/home/chayas/anaconda/envs/py35/share/psi4/basis/aug-cc-pvtz.gbs 
    atoms 13    entry O          line   313 file /cbio/jclab/home/chayas/anaconda/envs/py35/share/psi4/basis/aug-cc-pvtz.gbs 
    atoms 14    entry F          line   359 file /cbio/jclab/home/chayas/anaconda/envs/py35/share/psi4/basis/aug-cc-pvtz.gbs 
    atoms 15-22 entry H          line    34 file /cbio/jclab/home/chayas/anaconda/envs/py35/share/psi4/basis/aug-cc-pvtz.gbs 


         ---------------------------------------------------------
                                   SCF
            by Justin Turney, Rob Parrish, and Andy Simmonett
                              RHF Reference
                        8 Threads,   4768 MiB Core
         ---------------------------------------------------------

  ==> Geometry <==

    Molecular point group: c1
    Full point group: C1

    Geometry (in Angstrom), charge = 0, multiplicity = 1:

       Center              X                  Y                   Z               Mass       
    ------------   -----------------  -----------------  -----------------  -----------------
           C         -1.361676396461     0.775604610224    -0.769330055497    12.000000000000
           C         -2.439676396461     1.348604610224    -0.096330055497    12.000000000000
           C          2.081323603539     0.060604610224    -0.535330055497    12.000000000000
           C          0.576323603539    -1.456395389776    -1.647330055497    12.000000000000
           C         -1.446676396461     0.732604610224     2.018669944503    12.000000000000
           C          3.133323603539    -0.526395389776    -1.223330055497    12.000000000000
           C          1.666323603539    -2.005395389776    -2.307330055497    12.000000000000
           C         -0.325676396461     0.180604610224    -0.049330055497    12.000000000000
           C          0.791323603539    -0.412395389776    -0.752330055497    12.000000000000
           C         -2.482676396461     1.327604610224     1.297669944503    12.000000000000
           C         -0.368676396461     0.159604610224     1.344669944503    12.000000000000
           N          2.899323603539    -1.531395389776    -2.079330055497    14.003074004780
           O         -3.473676396461     1.854604610224     1.916669944503    15.994914619560
           F          0.619323603539    -0.408395389776     2.051669944503    18.998403224000
           H         -1.342676396461     0.798604610224    -1.857330055497     1.007825032070
           H         -3.235676396461     1.804604610224    -0.682330055497     1.007825032070
           H          2.278323603539     0.873604610224     0.157669944503     1.007825032070
           H         -0.419676396461    -1.845395389776    -1.836330055497     1.007825032070
           H         -1.455676396461     0.702604610224     3.106669944503     1.007825032070
           H          4.166323603539    -0.225395389776    -1.117330055497     1.007825032070
           H          1.594323603539    -2.817395389776    -3.017330055497     1.007825032070
           H          3.686323603539    -1.947395389776    -2.575330055497     1.007825032070

  Running in c1 symmetry.

  Rotational constants: A =      0.06297  B =      0.01324  C =      0.01178 [cm^-1]
  Rotational constants: A =   1887.70614  B =    396.87083  C =    353.15491 [MHz]
  Nuclear repulsion =  817.038655085406731

  Charge       = 0
  Multiplicity = 1
  Electrons    = 98
  Nalpha       = 49
  Nbeta        = 49

  ==> Algorithm <==

  SCF Algorithm Type is DF.
  DIIS enabled.
  MOM disabled.
  Fractional occupation disabled.
  Guess Type is SAD.
  Energy threshold   = 1.00e-10
  Density threshold  = 1.00e-10
  Integral threshold = 0.00e+00

  ==> Primary Basis <==

  Basis Set: AUG-CC-PVTZ
    Blend: AUG-CC-PVTZ
    Number of shells: 268
    Number of basis function: 828
    Number of Cartesian functions: 970
    Spherical Harmonics?: true
    Max angular momentum: 3

   => Loading Basis Set <=

    Name: (AUG-CC-PVTZ AUX)
    Role: JKFIT
    Keyword: DF_BASIS_SCF
    atoms 1-11  entry C          line   161 file /cbio/jclab/home/chayas/anaconda/envs/py35/share/psi4/basis/aug-cc-pvtz-jkfit.gbs 
    atoms 12    entry N          line   223 file /cbio/jclab/home/chayas/anaconda/envs/py35/share/psi4/basis/aug-cc-pvtz-jkfit.gbs 
    atoms 13    entry O          line   285 file /cbio/jclab/home/chayas/anaconda/envs/py35/share/psi4/basis/aug-cc-pvtz-jkfit.gbs 
    atoms 14    entry F          line   347 file /cbio/jclab/home/chayas/anaconda/envs/py35/share/psi4/basis/aug-cc-pvtz-jkfit.gbs 
    atoms 15-22 entry H          line    69 file /cbio/jclab/home/chayas/anaconda/envs/py35/share/psi4/basis/aug-cc-pvtz-jkfit.gbs 

  ==> Pre-Iterations <==

   -------------------------------------------------------
    Irrep   Nso     Nmo     Nalpha   Nbeta   Ndocc  Nsocc
   -------------------------------------------------------
     A        828     828       0       0       0       0
   -------------------------------------------------------
    Total     828     828      49      49      49       0
   -------------------------------------------------------

  ==> Integral Setup <==

  ==> DFJK: Density-Fitted J/K Matrices <==

    J tasked:                  Yes
    K tasked:                  Yes
    wK tasked:                  No
    OpenMP threads:              8
    Integrals threads:           8
    Memory (MB):              3576
    Algorithm:                Disk
    Integral Cache:           NONE
    Schwarz Cutoff:          1E-12
    Fitting Condition:       1E-12

   => Auxiliary Basis Set <=

  Basis Set: (AUG-CC-PVTZ AUX)
    Blend: AUG-CC-PVTZ-JKFIT
    Number of shells: 532
    Number of basis function: 1824
    Number of Cartesian functions: 2274
    Spherical Harmonics?: true
    Max angular momentum: 4

  Minimum eigenvalue in the overlap matrix is 7.8633034490E-07.
  Using Symmetric Orthogonalization.

  SCF Guess: Superposition of Atomic Densities via on-the-fly atomic UHF.

  ==> Iterations <==

                           Total Energy        Delta E     RMS |[F,P]|

   @DF-RHF iter   0:  -656.25635160665354   -6.56256e+02   1.29652e-02 
   @DF-RHF iter   1:  -649.57313532550575    6.68322e+00   2.01879e-03 
   @DF-RHF iter   2:  -649.80010623582075   -2.26971e-01   1.72948e-03 DIIS
   @DF-RHF iter   3:  -650.05291277325432   -2.52807e-01   5.64411e-04 DIIS
   @DF-RHF iter   4:  -650.08638969445485   -3.34769e-02   2.16958e-04 DIIS
   @DF-RHF iter   5:  -650.09170238071204   -5.31269e-03   9.58661e-05 DIIS
   @DF-RHF iter   6:  -650.09284689785864   -1.14452e-03   3.94293e-05 DIIS
   @DF-RHF iter   7:  -650.09315999103046   -3.13093e-04   1.89594e-05 DIIS
   @DF-RHF iter   8:  -650.09321410524842   -5.41142e-05   6.97327e-06 DIIS
   @DF-RHF iter   9:  -650.09322308270089   -8.97745e-06   2.86060e-06 DIIS
   @DF-RHF iter  10:  -650.09322481037702   -1.72768e-06   1.13634e-06 DIIS
   @DF-RHF iter  11:  -650.09322509014601   -2.79769e-07   4.17422e-07 DIIS
   @DF-RHF iter  12:  -650.09322513059215   -4.04461e-08   1.87722e-07 DIIS
   @DF-RHF iter  13:  -650.09322513791756   -7.32541e-09   8.64080e-08 DIIS
   @DF-RHF iter  14:  -650.09322514009273   -2.17517e-09   4.94321e-08 DIIS
   @DF-RHF iter  15:  -650.09322514071755   -6.24823e-10   1.78412e-08 DIIS
   @DF-RHF iter  16:  -650.09322514083442   -1.16870e-10   5.93674e-09 DIIS
   @DF-RHF iter  17:  -650.09322514083965   -5.22959e-12   3.30541e-09 DIIS
   @DF-RHF iter  18:  -650.09322514084340   -3.75167e-12   1.26962e-09 DIIS
   @DF-RHF iter  19:  -650.09322514083487    8.52651e-12   6.45140e-10 DIIS
   @DF-RHF iter  20:  -650.09322514085284   -1.79625e-11   2.57700e-10 DIIS
   @DF-RHF iter  21:  -650.09322514084863    4.20641e-12   1.08603e-10 DIIS
   @DF-RHF iter  22:  -650.09322514084590    2.72848e-12   4.20749e-11 DIIS

  ==> Post-Iterations <==

    Orbital Energies (a.u.)
    -----------------------

    Doubly Occupied:                                                      

       1A    -26.303178     2A    -20.412649     3A    -15.725847  
       4A    -11.375682     5A    -11.374046     6A    -11.324680  
       7A    -11.310114     8A    -11.302786     9A    -11.301490  
      10A    -11.234917    11A    -11.227843    12A    -11.212209  
      13A    -11.178351    14A    -11.177428    15A     -1.622459  
      16A     -1.404579    17A     -1.241524    18A     -1.191891  
      19A     -1.128174    20A     -1.110660    21A     -1.000088  
      22A     -0.988090    23A     -0.955200    24A     -0.913207  
      25A     -0.855688    26A     -0.822714    27A     -0.801297  
      28A     -0.756281    29A     -0.741374    30A     -0.706860  
      31A     -0.694939    32A     -0.692220    33A     -0.681843  
      34A     -0.674786    35A     -0.664770    36A     -0.616842  
      37A     -0.601319    38A     -0.586438    39A     -0.575730  
      40A     -0.532475    41A     -0.505943    42A     -0.490738  
      43A     -0.468519    44A     -0.461289    45A     -0.431165  
      46A     -0.396524    47A     -0.328999    48A     -0.314362  
      49A     -0.230042  

    Virtual:                                                              

      50A     -0.015128    51A      0.006812    52A      0.007890  
      53A      0.020113    54A      0.030873    55A      0.038528  
      56A      0.041089    57A      0.044520    58A      0.051106  
      59A      0.057654    60A      0.062859    61A      0.065412  
      62A      0.069729    63A      0.075531    64A      0.079266  
      65A      0.088830    66A      0.095709    67A      0.099866  
      68A      0.102527    69A      0.105356    70A      0.115380  
      71A      0.119631    72A      0.124517    73A      0.125432  
      74A      0.126183    75A      0.129989    76A      0.132004  
      77A      0.138436    78A      0.143427    79A      0.149350  
      80A      0.152126    81A      0.159052    82A      0.160697  
      83A      0.163509    84A      0.166918    85A      0.177054  
      86A      0.178159    87A      0.181197    88A      0.185768  
      89A      0.188888    90A      0.193037    91A      0.195468  
      92A      0.202958    93A      0.203329    94A      0.206140  
      95A      0.210946    96A      0.215153    97A      0.221488  
      98A      0.225867    99A      0.229869   100A      0.235490  
     101A      0.241579   102A      0.246810   103A      0.248968  
     104A      0.250040   105A      0.255015   106A      0.258649  
     107A      0.261006   108A      0.267202   109A      0.268716  
     110A      0.272521   111A      0.279827   112A      0.282200  
     113A      0.291603   114A      0.294694   115A      0.296082  
     116A      0.300946   117A      0.304210   118A      0.311615  
     119A      0.313695   120A      0.318949   121A      0.323394  
     122A      0.326664   123A      0.331213   124A      0.339271  
     125A      0.340696   126A      0.342791   127A      0.348534  
     128A      0.349304   129A      0.359846   130A      0.361725  
     131A      0.365449   132A      0.368308   133A      0.370174  
     134A      0.374263   135A      0.376503   136A      0.381327  
     137A      0.384372   138A      0.395297   139A      0.396791  
     140A      0.398731   141A      0.408972   142A      0.414603  
     143A      0.417557   144A      0.418932   145A      0.422879  
     146A      0.428479   147A      0.431864   148A      0.437200  
     149A      0.437300   150A      0.444065   151A      0.453636  
     152A      0.455677   153A      0.458330   154A      0.461742  
     155A      0.467490   156A      0.471102   157A      0.473900  
     158A      0.475181   159A      0.479560   160A      0.486758  
     161A      0.488374   162A      0.489583   163A      0.491856  
     164A      0.497188   165A      0.498538   166A      0.501629  
     167A      0.503152   168A      0.507743   169A      0.514826  
     170A      0.521345   171A      0.523206   172A      0.530818  
     173A      0.537517   174A      0.538560   175A      0.543967  
     176A      0.545813   177A      0.550421   178A      0.559918  
     179A      0.565168   180A      0.569890   181A      0.574898  
     182A      0.582186   183A      0.587215   184A      0.593738  
     185A      0.596458   186A      0.600218   187A      0.602738  
     188A      0.609743   189A      0.610847   190A      0.625623  
     191A      0.631542   192A      0.632696   193A      0.637178  
     194A      0.645320   195A      0.649060   196A      0.663621  
     197A      0.666288   198A      0.669006   199A      0.669553  
     200A      0.673265   201A      0.679004   202A      0.687495  
     203A      0.696775   204A      0.699718   205A      0.702926  
     206A      0.711809   207A      0.712562   208A      0.718908  
     209A      0.723698   210A      0.728021   211A      0.732430  
     212A      0.738571   213A      0.742472   214A      0.753677  
     215A      0.756246   216A      0.758635   217A      0.768632  
     218A      0.769625   219A      0.772114   220A      0.789575  
     221A      0.794640   222A      0.799277   223A      0.806994  
     224A      0.811911   225A      0.821981   226A      0.827238  
     227A      0.831992   228A      0.834432   229A      0.844945  
     230A      0.851183   231A      0.858850   232A      0.864956  
     233A      0.869884   234A      0.873051   235A      0.876958  
     236A      0.881760   237A      0.891252   238A      0.894271  
     239A      0.896180   240A      0.900373   241A      0.906896  
     242A      0.909702   243A      0.911922   244A      0.917408  
     245A      0.923158   246A      0.925559   247A      0.928234  
     248A      0.928677   249A      0.935719   250A      0.942503  
     251A      0.948848   252A      0.957967   253A      0.960976  
     254A      0.962674   255A      0.971063   256A      0.975900  
     257A      0.981141   258A      0.987221   259A      0.996289  
     260A      0.999464   261A      1.002417   262A      1.007287  
     263A      1.013968   264A      1.015854   265A      1.017345  
     266A      1.020863   267A      1.027545   268A      1.033120  
     269A      1.038984   270A      1.043935   271A      1.044594  
     272A      1.049999   273A      1.054254   274A      1.057207  
     275A      1.062111   276A      1.069649   277A      1.073657  
     278A      1.078597   279A      1.079739   280A      1.085066  
     281A      1.090389   282A      1.097640   283A      1.097803  
     284A      1.103545   285A      1.107019   286A      1.108695  
     287A      1.110446   288A      1.125212   289A      1.126571  
     290A      1.133410   291A      1.135162   292A      1.142924  
     293A      1.146240   294A      1.151526   295A      1.159284  
     296A      1.164846   297A      1.172917   298A      1.174328  
     299A      1.184661   300A      1.189466   301A      1.194171  
     302A      1.196760   303A      1.200839   304A      1.211178  
     305A      1.215669   306A      1.222428   307A      1.225593  
     308A      1.226214   309A      1.233478   310A      1.241223  
     311A      1.248328   312A      1.250404   313A      1.253024  
     314A      1.260219   315A      1.267650   316A      1.272331  
     317A      1.274017   318A      1.278372   319A      1.286141  
     320A      1.291715   321A      1.301861   322A      1.309546  
     323A      1.311809   324A      1.319788   325A      1.324060  
     326A      1.331423   327A      1.338544   328A      1.349027  
     329A      1.354914   330A      1.358131   331A      1.367023  
     332A      1.372427   333A      1.381969   334A      1.386621  
     335A      1.394785   336A      1.397285   337A      1.406378  
     338A      1.410203   339A      1.416973   340A      1.425437  
     341A      1.432312   342A      1.435446   343A      1.440104  
     344A      1.451706   345A      1.456641   346A      1.459654  
     347A      1.470470   348A      1.476187   349A      1.487105  
     350A      1.487955   351A      1.498965   352A      1.500967  
     353A      1.512958   354A      1.522124   355A      1.535658  
     356A      1.537554   357A      1.545420   358A      1.553081  
     359A      1.561848   360A      1.573883   361A      1.575027  
     362A      1.585181   363A      1.590648   364A      1.605588  
     365A      1.613287   366A      1.617053   367A      1.625297  
     368A      1.627775   369A      1.636904   370A      1.639938  
     371A      1.648366   372A      1.651071   373A      1.658840  
     374A      1.663799   375A      1.672922   376A      1.683904  
     377A      1.689405   378A      1.708703   379A      1.711791  
     380A      1.716965   381A      1.731159   382A      1.734870  
     383A      1.745730   384A      1.748609   385A      1.759470  
     386A      1.771377   387A      1.775939   388A      1.796343  
     389A      1.799936   390A      1.804710   391A      1.811136  
     392A      1.815053   393A      1.825843   394A      1.833533  
     395A      1.835288   396A      1.842328   397A      1.850534  
     398A      1.863841   399A      1.871649   400A      1.875555  
     401A      1.896580   402A      1.906768   403A      1.911600  
     404A      1.922291   405A      1.926223   406A      1.932331  
     407A      1.941100   408A      1.948610   409A      1.948741  
     410A      1.955825   411A      1.958071   412A      1.967152  
     413A      1.979127   414A      1.986739   415A      1.990566  
     416A      1.999154   417A      2.009263   418A      2.015698  
     419A      2.018523   420A      2.025963   421A      2.030845  
     422A      2.037140   423A      2.049534   424A      2.055727  
     425A      2.065071   426A      2.073635   427A      2.082600  
     428A      2.086360   429A      2.100998   430A      2.118352  
     431A      2.123228   432A      2.131841   433A      2.138558  
     434A      2.147708   435A      2.154458   436A      2.160999  
     437A      2.165968   438A      2.182887   439A      2.187985  
     440A      2.194272   441A      2.204016   442A      2.208052  
     443A      2.212965   444A      2.216500   445A      2.232340  
     446A      2.244731   447A      2.254946   448A      2.272455  
     449A      2.283606   450A      2.302692   451A      2.303789  
     452A      2.310085   453A      2.317616   454A      2.325184  
     455A      2.341800   456A      2.353028   457A      2.356133  
     458A      2.366460   459A      2.380869   460A      2.384096  
     461A      2.398607   462A      2.414827   463A      2.420636  
     464A      2.429347   465A      2.434776   466A      2.442176  
     467A      2.459990   468A      2.468814   469A      2.486669  
     470A      2.492531   471A      2.497080   472A      2.506580  
     473A      2.517672   474A      2.518392   475A      2.528349  
     476A      2.548984   477A      2.551041   478A      2.560071  
     479A      2.577279   480A      2.598134   481A      2.615246  
     482A      2.626666   483A      2.636525   484A      2.640352  
     485A      2.659142   486A      2.675541   487A      2.679402  
     488A      2.695957   489A      2.701684   490A      2.713094  
     491A      2.732824   492A      2.751128   493A      2.766848  
     494A      2.770733   495A      2.783982   496A      2.801453  
     497A      2.821719   498A      2.844847   499A      2.865886  
     500A      2.884037   501A      2.904717   502A      2.915600  
     503A      2.924505   504A      2.960664   505A      2.985662  
     506A      3.013944   507A      3.025603   508A      3.049493  
     509A      3.053148   510A      3.064421   511A      3.072766  
     512A      3.093825   513A      3.107770   514A      3.114095  
     515A      3.132423   516A      3.141746   517A      3.151605  
     518A      3.178454   519A      3.180473   520A      3.192736  
     521A      3.208719   522A      3.217586   523A      3.240734  
     524A      3.243130   525A      3.257877   526A      3.264331  
     527A      3.274739   528A      3.282843   529A      3.302225  
     530A      3.321609   531A      3.323492   532A      3.345196  
     533A      3.352825   534A      3.362037   535A      3.371491  
     536A      3.378921   537A      3.390178   538A      3.397439  
     539A      3.409825   540A      3.424822   541A      3.433727  
     542A      3.439844   543A      3.443623   544A      3.461602  
     545A      3.475392   546A      3.483231   547A      3.493155  
     548A      3.504103   549A      3.507360   550A      3.513057  
     551A      3.523594   552A      3.528564   553A      3.536799  
     554A      3.544020   555A      3.548728   556A      3.560427  
     557A      3.568107   558A      3.577703   559A      3.590570  
     560A      3.600331   561A      3.613848   562A      3.614388  
     563A      3.620436   564A      3.639595   565A      3.641044  
     566A      3.653124   567A      3.668457   568A      3.675936  
     569A      3.683197   570A      3.696597   571A      3.699544  
     572A      3.703038   573A      3.709117   574A      3.721856  
     575A      3.729611   576A      3.744930   577A      3.750722  
     578A      3.758776   579A      3.774175   580A      3.777889  
     581A      3.785512   582A      3.790548   583A      3.800240  
     584A      3.807855   585A      3.823035   586A      3.834002  
     587A      3.841621   588A      3.844047   589A      3.852689  
     590A      3.858215   591A      3.869281   592A      3.883587  
     593A      3.892951   594A      3.896816   595A      3.902984  
     596A      3.916462   597A      3.923729   598A      3.925460  
     599A      3.944135   600A      3.948559   601A      3.960651  
     602A      3.966714   603A      3.977817   604A      3.988867  
     605A      3.992886   606A      4.002563   607A      4.006393  
     608A      4.012183   609A      4.018099   610A      4.027135  
     611A      4.029384   612A      4.044609   613A      4.055034  
     614A      4.066679   615A      4.081929   616A      4.087440  
     617A      4.088838   618A      4.102321   619A      4.111251  
     620A      4.120060   621A      4.133661   622A      4.142685  
     623A      4.149297   624A      4.152498   625A      4.160443  
     626A      4.181943   627A      4.190511   628A      4.195723  
     629A      4.201895   630A      4.220068   631A      4.226324  
     632A      4.232168   633A      4.251484   634A      4.255432  
     635A      4.263507   636A      4.277880   637A      4.288516  
     638A      4.294133   639A      4.310420   640A      4.310861  
     641A      4.325886   642A      4.328025   643A      4.340308  
     644A      4.341751   645A      4.344833   646A      4.356372  
     647A      4.369045   648A      4.383686   649A      4.391009  
     650A      4.397828   651A      4.400953   652A      4.414706  
     653A      4.416029   654A      4.418590   655A      4.432203  
     656A      4.436743   657A      4.449496   658A      4.457764  
     659A      4.476693   660A      4.485862   661A      4.503935  
     662A      4.506244   663A      4.513748   664A      4.531005  
     665A      4.554780   666A      4.558402   667A      4.568759  
     668A      4.580022   669A      4.588331   670A      4.609478  
     671A      4.615433   672A      4.633544   673A      4.646947  
     674A      4.658862   675A      4.682076   676A      4.701213  
     677A      4.710906   678A      4.724185   679A      4.742614  
     680A      4.752016   681A      4.757541   682A      4.763866  
     683A      4.787873   684A      4.789622   685A      4.805625  
     686A      4.815845   687A      4.833684   688A      4.863801  
     689A      4.865876   690A      4.875303   691A      4.885450  
     692A      4.895363   693A      4.913822   694A      4.920735  
     695A      4.937065   696A      4.942120   697A      4.950438  
     698A      4.966939   699A      4.972690   700A      4.993566  
     701A      5.014661   702A      5.027281   703A      5.037287  
     704A      5.053281   705A      5.060332   706A      5.063559  
     707A      5.073262   708A      5.085084   709A      5.113312  
     710A      5.126176   711A      5.140853   712A      5.144326  
     713A      5.154241   714A      5.169075   715A      5.183269  
     716A      5.189200   717A      5.194026   718A      5.202441  
     719A      5.226785   720A      5.233758   721A      5.243907  
     722A      5.274119   723A      5.288067   724A      5.298277  
     725A      5.314094   726A      5.338139   727A      5.358969  
     728A      5.362415   729A      5.376636   730A      5.379923  
     731A      5.392393   732A      5.409445   733A      5.441164  
     734A      5.457105   735A      5.497310   736A      5.499203  
     737A      5.508215   738A      5.531854   739A      5.568262  
     740A      5.597708   741A      5.614052   742A      5.637909  
     743A      5.665866   744A      5.682387   745A      5.705471  
     746A      5.718225   747A      5.730259   748A      5.742593  
     749A      5.775100   750A      5.792756   751A      5.805865  
     752A      5.815398   753A      5.839331   754A      5.885102  
     755A      5.913620   756A      5.945859   757A      5.968993  
     758A      6.016282   759A      6.042959   760A      6.062399  
     761A      6.092235   762A      6.106823   763A      6.140389  
     764A      6.180195   765A      6.250293   766A      6.269980  
     767A      6.301139   768A      6.317341   769A      6.345781  
     770A      6.405299   771A      6.438141   772A      6.475390  
     773A      6.498594   774A      6.549711   775A      6.565384  
     776A      6.626418   777A      6.675498   778A      6.702910  
     779A      6.768158   780A      6.789589   781A      6.794925  
     782A      6.855372   783A      6.876503   784A      6.890545  
     785A      6.946323   786A      6.984382   787A      7.038399  
     788A      7.077649   789A      7.083201   790A      7.191638  
     791A      7.215873   792A      7.247057   793A      7.477703  
     794A      7.501234   795A      7.533588   796A      7.558300  
     797A      7.649288   798A      7.807587   799A      7.832042  
     800A      7.912729   801A      8.038892   802A      8.107540  
     803A      9.024205   804A      9.064116   805A      9.289271  
     806A      9.309615   807A      9.425118   808A      9.538073  
     809A      9.560286   810A      9.607553   811A      9.661308  
     812A      9.737794   813A     10.053114   814A     10.097498  
     815A     15.846685   816A     16.117579   817A     16.235412  
     818A     16.573938   819A     16.780373   820A     17.071613  
     821A     18.849577   822A     19.285333   823A     19.653710  
     824A     19.865290   825A     20.247163   826A     20.252115  
     827A     20.453783   828A     21.782459  

    Final Occupation by Irrep:
              A 
    DOCC [    49 ]

  Energy converged.

  @DF-RHF Final Energy:  -650.09322514084590

   => Energetics <=

    Nuclear Repulsion Energy =            817.0386550854067309
    One-Electron Energy =               -2508.9632619373778653
    Two-Electron Energy =                1041.8313817111252320
    DFT Exchange-Correlation Energy =       0.0000000000000000
    Empirical Dispersion Energy =           0.0000000000000000
    PCM Polarization Energy =               0.0000000000000000
    EFP Energy =                            0.0000000000000000
    Total Energy =                       -650.0932251408457887



Properties will be evaluated at   0.000000,   0.000000,   0.000000 Bohr

Properties computed using the SCF density matrix

  Nuclear Dipole Moment: (a.u.)
     X:     4.3326      Y:    -2.0915      Z:    -9.2528

  Electronic Dipole Moment: (a.u.)
     X:     1.9341      Y:    -1.2084      Z:     4.7098

  Dipole Moment: (a.u.)
     X:     6.2667      Y:    -3.2998      Z:    -4.5430     Total:     8.4142

  Dipole Moment: (Debye)
     X:    15.9283      Y:    -8.3873      Z:   -11.5471     Total:    21.3868


*** tstop() called on gpu-1-10.local at Sun Nov 12 00:53:52 2017
Module time:
	user time   =    1362.88 seconds =      22.71 minutes
	system time =      58.25 seconds =       0.97 minutes
	total time  =        596 seconds =       9.93 minutes
Total time:
	user time   =    1362.89 seconds =      22.71 minutes
	system time =      58.25 seconds =       0.97 minutes
	total time  =        596 seconds =       9.93 minutes

  //>>>>>>>>>>>>>>>>>>>>>>>>>>>>>>>>>>>//
  //               DFMP2               //
  //<<<<<<<<<<<<<<<<<<<<<<<<<<<<<<<<<<<//

   => Loading Basis Set <=

    Name: (AUG-CC-PVTZ AUX)
    Role: RIFIT
    Keyword: DF_BASIS_MP2
    atoms 1-11  entry C          line   147 file /cbio/jclab/home/chayas/anaconda/envs/py35/share/psi4/basis/aug-cc-pvtz-ri.gbs 
    atoms 12    entry N          line   205 file /cbio/jclab/home/chayas/anaconda/envs/py35/share/psi4/basis/aug-cc-pvtz-ri.gbs 
    atoms 13    entry O          line   263 file /cbio/jclab/home/chayas/anaconda/envs/py35/share/psi4/basis/aug-cc-pvtz-ri.gbs 
    atoms 14    entry F          line   321 file /cbio/jclab/home/chayas/anaconda/envs/py35/share/psi4/basis/aug-cc-pvtz-ri.gbs 
    atoms 15-22 entry H          line    29 file /cbio/jclab/home/chayas/anaconda/envs/py35/share/psi4/basis/aug-cc-pvtz-ri.gbs 

	 --------------------------------------------------------
	                          DF-MP2                         
	      2nd-Order Density-Fitted Moller-Plesset Theory     
	              RMP2 Wavefunction,   8 Threads             
	                                                         
	        Rob Parrish, Justin Turney, Andy Simmonett,      
	           Ed Hohenstein, and C. David Sherrill          
	 --------------------------------------------------------

   => Auxiliary Basis Set <=

  Basis Set: (AUG-CC-PVTZ AUX)
    Blend: AUG-CC-PVTZ-RI
    Number of shells: 504
    Number of basis function: 1852
    Number of Cartesian functions: 2344
    Spherical Harmonics?: true
    Max angular momentum: 4

	 --------------------------------------------------------
	                 NBF =   828, NAUX =  1852
	 --------------------------------------------------------
	   CLASS    FOCC     OCC    AOCC    AVIR     VIR    FVIR
	   PAIRS       0      49      49     779     779       0
	 --------------------------------------------------------


         ------------------------------------------------------------
                                     CPHF                           
                                  Rob Parrish                       
         ------------------------------------------------------------

  ==> Geometry <==

    Molecular point group: c1
    Full point group: C1

    Geometry (in Angstrom), charge = 0, multiplicity = 1:

       Center              X                  Y                   Z               Mass       
    ------------   -----------------  -----------------  -----------------  -----------------
           C         -1.361676396461     0.775604610224    -0.769330055497    12.000000000000
           C         -2.439676396461     1.348604610224    -0.096330055497    12.000000000000
           C          2.081323603539     0.060604610224    -0.535330055497    12.000000000000
           C          0.576323603539    -1.456395389776    -1.647330055497    12.000000000000
           C         -1.446676396461     0.732604610224     2.018669944503    12.000000000000
           C          3.133323603539    -0.526395389776    -1.223330055497    12.000000000000
           C          1.666323603539    -2.005395389776    -2.307330055497    12.000000000000
           C         -0.325676396461     0.180604610224    -0.049330055497    12.000000000000
           C          0.791323603539    -0.412395389776    -0.752330055497    12.000000000000
           C         -2.482676396461     1.327604610224     1.297669944503    12.000000000000
           C         -0.368676396461     0.159604610224     1.344669944503    12.000000000000
           N          2.899323603539    -1.531395389776    -2.079330055497    14.003074004780
           O         -3.473676396461     1.854604610224     1.916669944503    15.994914619560
           F          0.619323603539    -0.408395389776     2.051669944503    18.998403224000
           H         -1.342676396461     0.798604610224    -1.857330055497     1.007825032070
           H         -3.235676396461     1.804604610224    -0.682330055497     1.007825032070
           H          2.278323603539     0.873604610224     0.157669944503     1.007825032070
           H         -0.419676396461    -1.845395389776    -1.836330055497     1.007825032070
           H         -1.455676396461     0.702604610224     3.106669944503     1.007825032070
           H          4.166323603539    -0.225395389776    -1.117330055497     1.007825032070
           H          1.594323603539    -2.817395389776    -3.017330055497     1.007825032070
           H          3.686323603539    -1.947395389776    -2.575330055497     1.007825032070

  Nuclear repulsion =  817.038655085406731
  Reference energy  = -650.093225140845902

  ==> Basis Set <==

  Basis Set: AUG-CC-PVTZ
    Blend: AUG-CC-PVTZ
    Number of shells: 268
    Number of basis function: 828
    Number of Cartesian functions: 970
    Spherical Harmonics?: true
    Max angular momentum: 3

  ==> CGRSolver (by Rob Parrish) <==

   Number of roots    =         1
   Preconditioning    =    JACOBI
   Convergence cutoff =     1E-06
   Maximum iterations =       100

  ==> CPHFRHamiltonian (by Rob Parrish) <== 

  ==> DFJK: Density-Fitted J/K Matrices <==

    J tasked:                  Yes
    K tasked:                  Yes
    wK tasked:                  No
    OpenMP threads:              8
    Integrals threads:           8
    Memory (MB):              3576
    Algorithm:                Disk
    Integral Cache:           NONE
    Schwarz Cutoff:          1E-12
    Fitting Condition:       1E-12

   => Auxiliary Basis Set <=

  Basis Set: (AUG-CC-PVTZ AUX)
    Blend: AUG-CC-PVTZ-JKFIT
    Number of shells: 532
    Number of basis function: 1824
    Number of Cartesian functions: 2274
    Spherical Harmonics?: true
    Max angular momentum: 4

  ==> CPHF Iterations <==

  => Iterations <=

             Iter  Converged  Remaining    Residual
  CGR           1          0          1   1.557E-01
  CGR           2          0          1   6.189E-02
  CGR           3          0          1   3.197E-02
  CGR           4          0          1   9.438E-03
  CGR           5          0          1   3.506E-03
  CGR           6          0          1   1.533E-03
  CGR           7          0          1   6.878E-04
  CGR           8          0          1   3.341E-04
  CGR           9          0          1   1.465E-04
  CGR          10          0          1   5.586E-05
  CGR          11          0          1   2.355E-05
  CGR          12          0          1   7.378E-06
  CGR          13          0          1   3.010E-06
  CGR          14          0          1   1.091E-06
  CGR          15          1          0   3.812E-07

    CGRSolver converged.

  ==> DFCorrGrad: Density-Fitted Correlated Gradients <==

    OpenMP threads:              8
    Integrals threads:           8
    Memory (MB):              3576
    Schwarz Cutoff:          0E+00
    Fitting Condition:       1E-12

   => Auxiliary Basis Set <=

  Basis Set: (AUG-CC-PVTZ AUX)
    Blend: AUG-CC-PVTZ-JKFIT
    Number of shells: 532
    Number of basis function: 1824
    Number of Cartesian functions: 2274
    Spherical Harmonics?: true
    Max angular momentum: 4

	-----------------------------------------------------------
	 ==================> DF-MP2 Energies <==================== 
	-----------------------------------------------------------
	 Reference Energy          =    -650.0932251408459024 [Eh]
	 Singles Energy            =      -0.0000000000000001 [Eh]
	 Same-Spin Energy          =      -0.6786404757365256 [Eh]
	 Opposite-Spin Energy      =      -2.0244841505512965 [Eh]
	 Correlation Energy        =      -2.7031246262878224 [Eh]
	 Total Energy              =    -652.7963497671337336 [Eh]
	-----------------------------------------------------------
	 ================> DF-SCS-MP2 Energies <================== 
	-----------------------------------------------------------
	 SCS Same-Spin Scale       =       0.3333333333333333 [-]
	 SCS Opposite-Spin Scale   =       1.2000000000000000 [-]
	 SCS Same-Spin Energy      =      -0.2262134919121752 [Eh]
	 SCS Opposite-Spin Energy  =      -2.4293809806615556 [Eh]
	 SCS Correlation Energy    =      -2.6555944725737310 [Eh]
	 SCS Total Energy          =    -652.7488196134196414 [Eh]
	-----------------------------------------------------------


  -Total Gradient:
     Atom            X                  Y                   Z
    ------   -----------------  -----------------  -----------------
       1        0.037014381731    -0.003635369190    -0.005542604524
       2       -0.025837801974     0.012385345943     0.050366890634
       3       -0.030993164749     0.014589866789     0.003212476960
       4       -0.017754414083     0.009773539294     0.026499729753
       5       -0.053255685794     0.029846625557    -0.002454228082
       6        0.002035588811    -0.016427047425    -0.018318628702
       7        0.024117894338     0.002005237894     0.001969446974
       8       -0.034340812554     0.018902767328     0.015242957433
       9        0.033987636613    -0.017730664839    -0.023114755303
      10        0.061929125714    -0.033480873779    -0.038518975712
      11        0.037637788132    -0.035903788839    -0.016402494972
      12       -0.011081576472     0.006070566749     0.007194508001
      13       -0.018426114911     0.010027850144     0.010693971876
      14       -0.010757603256     0.005931163029     0.000440579798
      15       -0.003032022374     0.001365977689    -0.004700777655
      16       -0.003706583777     0.000154107647    -0.008840451524
      17        0.002285730480     0.004596942532     0.004349468639
      18       -0.005284591832    -0.002253164736    -0.002545709945
      19        0.004166513915    -0.000521926882     0.007575724816
      20        0.003022103922    -0.000991997869     0.000305527479
      21        0.000920346080    -0.001024295323    -0.002735802483
      22        0.007353262049    -0.003680861707    -0.004676853454


*** tstop() called on gpu-1-10.local at Sun Nov 12 01:30:50 2017
Module time:
	user time   =    5992.18 seconds =      99.87 minutes
	system time =     120.51 seconds =       2.01 minutes
	total time  =       2814 seconds =      46.90 minutes
Total time:
	user time   =    5992.19 seconds =      99.87 minutes
	system time =     120.51 seconds =       2.01 minutes
	total time  =       2814 seconds =      46.90 minutes

			-----------------------------------------
			 OPTKING 2.0: for geometry optimizations 
			  - R.A. King,  Bethel University        
			-----------------------------------------

	Internal coordinates to be generated automatically.
	Detected frag 1 with atoms:  1 2 3 4 5 6 7 8 9 10 11 12 13 14 15 16 17 18 19 20
	 21 22
	---Fragment 1 Bond Connectivity---
	 1 : 2 8 15
	 2 : 1 10 16
	 3 : 6 9 17
	 4 : 7 9 18
	 5 : 10 11 19
	 6 : 3 12 20
	 7 : 4 12 21
	 8 : 1 9 11
	 9 : 3 4 8
	 10 : 2 5 13
	 11 : 5 8 14
	 12 : 6 7 22
	 13 : 10
	 14 : 11
	 15 : 1
	 16 : 2
	 17 : 3
	 18 : 4
	 19 : 5
	 20 : 6
	 21 : 7
	 22 : 12

	Assuming in current code that numbering for constraints corresponds to unified fragment.
	Fixed dihedral atom list: 
	     1     8     9     3
	---Fragment 1 Geometry and Gradient---
	 C          -2.5731954709        1.4656803007       -1.4538231107
	 C          -4.6103202422        2.5484933749       -0.1820374233
	 C           3.9331316046        0.1145261157       -1.0116271956
	 C           1.0890937746       -2.7521884279       -3.1130026554
	 C          -2.7338221922        1.3844220770        3.8147333478
	 C           5.9211234964       -0.9947431243       -2.3117587750
	 C           3.1488952595       -3.7896480748       -4.3602219031
	 C          -0.6154391973        0.3412932517       -0.0932202950
	 C           1.4953848932       -0.7793143451       -1.4216977664
	 C          -4.6915784659        2.5088091261        2.4522408060
	 C          -0.6966974210        0.3016090029        2.5410579342
	 N           5.4789275813       -2.8939178878       -3.9293643448
	 O          -6.5642970636        3.5046947981        3.6219812822
	 F           1.1703519983       -0.7717554406        3.8770943102
	 H          -2.5372906744        1.5091440018       -3.5098451433
	 H          -6.1145422440        3.4102084915       -1.2894169371
	 H           4.3054076528        1.6508734618        0.2979530145
	 H          -0.7930734537       -3.4872918936       -3.4701608945
	 H          -2.7508297274        1.3277302930        5.8707553804
	 H           7.8732105917       -0.4259355583       -2.1114478049
	 H           3.0128349779       -5.3241056947       -5.7019274574
	 H           6.9661420479       -3.6800439591       -4.8666685067
	             0.0370143817       -0.0036353692       -0.0055426045
	            -0.0258378020        0.0123853459        0.0503668906
	            -0.0309931647        0.0145898668        0.0032124770
	            -0.0177544141        0.0097735393        0.0264997298
	            -0.0532556858        0.0298466256       -0.0024542281
	             0.0020355888       -0.0164270474       -0.0183186287
	             0.0241178943        0.0020052379        0.0019694470
	            -0.0343408126        0.0189027673        0.0152429574
	             0.0339876366       -0.0177306648       -0.0231147553
	             0.0619291257       -0.0334808738       -0.0385189757
	             0.0376377881       -0.0359037888       -0.0164024950
	            -0.0110815765        0.0060705667        0.0071945080
	            -0.0184261149        0.0100278501        0.0106939719
	            -0.0107576033        0.0059311630        0.0004405798
	            -0.0030320224        0.0013659777       -0.0047007777
	            -0.0037065838        0.0001541076       -0.0088404515
	             0.0022857305        0.0045969425        0.0043494686
	            -0.0052845918       -0.0022531647       -0.0025457099
	             0.0041665139       -0.0005219269        0.0075757248
	             0.0030221039       -0.0009919979        0.0003055275
	             0.0009203461       -0.0010242953       -0.0027358025
	             0.0073532620       -0.0036808617       -0.0046768535

	Previous optimization step data not found.  Starting new optimization.

	---Fragment 1 Intrafragment Coordinates---
	 - Coordinate -           - BOHR/RAD -       - ANG/DEG -
	 R(1,2)           =         2.634350	       1.394038
	 R(1,8)           =         2.635962	       1.394891
	 R(1,15)          =         2.056795	       1.088409
	 R(2,10)          =         2.635830	       1.394821
	 R(2,16)          =         2.057067	       1.088553
	 R(3,6)           =         2.621628	       1.387306
	 R(3,9)           =         2.628634	       1.391013
	 R(3,17)          =         2.052792	       1.086290
	 R(4,7)           =         2.621957	       1.387480
	 R(4,9)           =         2.630174	       1.391828
	 R(4,18)          =         2.051948	       1.085844
	 R(5,10)          =         2.636938	       1.395407
	 R(5,11)          =         2.635263	       1.394521
	 R(5,19)          =         2.056874	       1.088451
	 R(6,12)          =         2.533584	       1.340715
	 R(6,20)          =         2.043113	       1.081169
	 R(7,12)          =         2.533184	       1.340503
	 R(7,21)          =         2.042853	       1.081031
	 R(8,9)           =         2.734263	       1.446909
	 R(8,11)          =         2.635830	       1.394821
	 R(10,13)         =         2.422221	       1.281784
	 R(11,14)         =         2.534359	       1.341125
	 R(12,22)         =         1.925705	       1.019039
	 B(1,2,10)        =         2.094553	     120.009056
	 B(1,2,16)        =         2.068903	     118.539404
	 B(1,8,9)         =         2.091392	     119.827938
	 B(1,8,11)        =         2.093692	     119.959722
	 B(2,1,8)         =         2.094940	     120.031219
	 B(2,1,15)        =         2.079908	     119.169966
	 B(2,10,5)        =         2.094306	     119.994870
	 B(2,10,13)       =         2.094719	     120.018581
	 B(3,6,12)        =         2.096075	     120.096234
	 B(3,6,20)        =         2.162891	     123.924517
	 B(3,9,4)         =         2.092816	     119.909524
	 B(3,9,8)         =         2.095287	     120.051123
	 B(4,7,12)        =         2.096447	     120.117568
	 B(4,7,21)        =         2.161934	     123.869681
	 B(4,9,8)         =         2.095082	     120.039340
	 B(5,10,13)       =         2.094160	     119.986548
	 B(5,11,8)        =         2.095181	     120.045019
	 B(5,11,14)       =         2.081414	     119.256220
	 B(6,3,9)         =         2.073725	     118.815713
	 B(6,3,17)        =         2.089240	     119.704657
	 B(6,12,7)        =         2.134343	     122.288849
	 B(6,12,22)       =         2.073707	     118.814656
	 B(7,4,9)         =         2.072964	     118.772074
	 B(7,4,18)        =         2.089837	     119.738850
	 B(7,12,22)       =         2.075132	     118.896309
	 B(8,1,15)        =         2.108336	     120.798746
	 B(8,11,14)       =         2.106591	     120.698759
	 B(9,3,17)        =         2.120219	     121.479608
	 B(9,4,18)        =         2.120384	     121.489074
	 B(9,8,11)        =         2.098101	     120.212327
	 B(10,2,16)       =         2.119728	     121.451467
	 B(10,5,11)       =         2.093699	     119.960108
	 B(10,5,19)       =         2.120101	     121.472852
	 B(11,5,19)       =         2.069385	     118.567038
	 B(12,6,20)       =         2.024219	     115.979190
	 B(12,7,21)       =         2.024804	     116.012721
	 D(1,2,10,5)      =        -0.000325	      -0.018609
	 D(1,2,10,13)     =         3.141392	     179.988520
	 D(1,8,9,3)       =         2.093957	     119.974903
	 D(1,8,9,4)       =        -1.046915	     -59.983822
	 D(1,8,11,5)      =         0.000325	       0.018608
	 D(1,8,11,14)     =        -3.141528	    -179.996269
	 D(2,1,8,9)       =        -3.141211	    -179.978157
	 D(2,1,8,11)      =        -0.000348	      -0.019945
	 D(2,10,5,11)     =         0.000301	       0.017261
	 D(2,10,5,19)     =        -3.141543	    -179.997173
	 D(3,6,12,7)      =         0.001216	       0.069673
	 D(3,6,12,22)     =         3.140043	     179.911193
	 D(3,9,4,7)       =         0.000485	       0.027772
	 D(3,9,4,18)      =        -3.141370	    -179.987243
	 D(3,9,8,11)      =        -1.046904	     -59.983203
	 D(4,7,12,6)      =        -0.001094	      -0.062695
	 D(4,7,12,22)     =        -3.139919	    -179.904090
	 D(4,9,3,6)       =        -0.000367	      -0.021054
	 D(4,9,3,17)      =        -3.141028	    -179.967626
	 D(4,9,8,11)      =         2.095409	     120.058072
	 D(5,10,2,16)     =         3.139529	     179.881752
	 D(5,11,8,9)      =         3.141185	     179.976658
	 D(6,3,9,8)       =        -3.141241	    -179.979833
	 D(6,12,7,21)     =         3.141545	     179.997270
	 D(7,4,9,8)       =         3.141358	     179.986556
	 D(7,12,6,20)     =         3.141325	     179.984657
	 D(8,1,2,10)      =         0.000348	       0.019955
	 D(8,1,2,16)      =        -3.139556	    -179.883288
	 D(8,9,3,17)      =         0.001284	       0.073594
	 D(8,9,4,18)      =        -0.000497	      -0.028459
	 D(8,11,5,10)     =        -0.000301	      -0.017270
	 D(8,11,5,19)     =         3.141536	     179.996748
	 D(9,3,6,12)      =        -0.000464	      -0.026568
	 D(9,3,6,20)      =        -3.140449	    -179.934463
	 D(9,4,7,12)      =         0.000225	       0.012878
	 D(9,4,7,21)      =         3.140685	     179.947974
	 D(9,8,1,15)      =         0.002066	       0.118384
	 D(9,8,11,14)     =        -0.000667	      -0.038219
	 D(10,2,1,15)     =         3.140283	     179.924984
	 D(10,5,11,14)    =         3.141547	     179.997392
	 D(11,5,10,13)    =        -3.141416	    -179.989865
	 D(11,8,1,15)     =        -3.140256	    -179.923403
	 D(12,6,3,17)     =         3.140213	     179.920975
	 D(12,7,4,18)     =        -3.141111	    -179.972376
	 D(13,10,2,16)    =        -0.001939	      -0.111119
	 D(13,10,5,19)    =        -0.000075	      -0.004300
	 D(14,11,5,19)    =         0.000199	       0.011410
	 D(15,1,2,16)     =         0.000379	       0.021741
	 D(17,3,6,20)     =         0.000228	       0.013079
	 D(18,4,7,21)     =        -0.000651	      -0.037281
	 D(20,6,12,22)    =        -0.003034	      -0.173824
	 D(21,7,12,22)    =         0.002721	       0.155875
	 R(3,14)          =         5.684896	       3.008317

	Current energy   :      -652.7963497671

	Generating empirical Hessian (Schlegel '84) for each fragment.
	Adding user-defined constraint: Fragment 1; Coordinate 62:
		Value =     2.093957; Fixed value    =     2.094395
		Force =     0.000219; Force constant =     0.500000
	Removing off-diagonal coupling between coordinate 62 and others.
	Taking RFO optimization step.
	Going to follow RFO solution 1.
	Using RFO vector 1.

	Determining step-restricting scale parameter for RS-RFO.
	Maximum step size allowed    0.10000

	 Iter      |step|        alpha        rfo_root  
	------------------------------------------------
	    0     0.44309       1.00000           1
	    1     0.28633       2.96807           1
	    2     0.20018       7.92468           1
	    3     0.14749      19.47394           1
	    4     0.11676      37.71517           1
	    5     0.10323      52.55373           1
	    6     0.10016      56.90645           1
	    7     0.10000      57.14577           1
	------------------------------------------------
	Norm of target step-size    0.10000
	Projected energy change by RFO approximation:        -0.0083952705

	Back-transformation to cartesian coordinates...
	Could not converge backtransformation.
	Using first guess instead.

	--- Internal Coordinate Step in ANG or DEG, aJ/ANG or AJ/DEG ---
	 ---------------------------------------------------------------------------
	   Coordinate                Previous        Force       Change         New 
	   ----------                --------       ------       ------       ------
	    1 R(1,2)          =      1.394038    -0.149952    -0.010093     1.383945
	    2 R(1,8)          =      1.394891     0.104400     0.006914     1.401805
	    3 R(1,15)         =      1.088409    -0.038518    -0.002940     1.085469
	    4 R(2,10)         =      1.394821     0.265774     0.018431     1.413252
	    5 R(2,16)         =      1.088553    -0.062074    -0.004792     1.083761
	    6 R(3,6)          =      1.387306    -0.142203    -0.009510     1.377796
	    7 R(3,9)          =      1.391013     0.127783     0.008687     1.399700
	    8 R(3,17)         =      1.086290    -0.054623    -0.004189     1.082101
	    9 R(4,7)          =      1.387480    -0.139828    -0.009361     1.378119
	   10 R(4,9)          =      1.391828     0.111927     0.007614     1.399442
	   11 R(4,18)         =      1.085844    -0.050234    -0.003854     1.081991
	   12 R(5,10)         =      1.395407     0.249900     0.017274     1.412681
	   13 R(5,11)         =      1.394521    -0.211059    -0.014356     1.380165
	   14 R(5,19)         =      1.088451    -0.062220    -0.004796     1.083655
	   15 R(6,12)         =      1.340715     0.089895     0.005545     1.346260
	   16 R(6,20)         =      1.081169    -0.021762    -0.001658     1.079511
	   17 R(7,12)         =      1.340503     0.086660     0.005322     1.345826
	   18 R(7,21)         =      1.081031    -0.020635    -0.001548     1.079483
	   19 R(8,9)          =      1.446909    -0.091145    -0.006698     1.440211
	   20 R(8,11)         =      1.394821     0.069697     0.004637     1.399458
	   21 R(10,13)        =      1.281784    -0.193884    -0.010322     1.271462
	   22 R(11,14)        =      1.341125     0.086777     0.005354     1.346480
	   23 R(12,22)        =      1.019039    -0.077921    -0.005401     1.013639
	   24 B(1,2,10)       =    120.009056     0.000408     0.465997   120.475053
	   25 B(1,2,16)       =    118.539404     0.000236     0.279003   118.818407
	   26 B(1,8,9)        =    119.827938     0.000228     0.261118   120.089056
	   27 B(1,8,11)       =    119.959722    -0.000643    -0.736282   119.223439
	   28 B(2,1,8)        =    120.031219     0.000422     0.425519   120.456738
	   29 B(2,1,15)       =    119.169966     0.000050     0.093225   119.263191
	   30 B(2,10,5)       =    119.994870    -0.001368    -1.332797   118.662073
	   31 B(2,10,13)      =    120.018581     0.000755     0.738698   120.757280
	   32 B(3,6,12)       =    120.096234    -0.000202    -0.217986   119.878248
	   33 B(3,6,20)       =    123.924517    -0.000001    -0.010712   123.913805
	   34 B(3,9,4)        =    119.909524    -0.000851    -0.884980   119.024544
	   35 B(3,9,8)        =    120.051123     0.000608     0.637231   120.688354
	   36 B(4,7,12)       =    120.117568    -0.000196    -0.217883   119.899685
	   37 B(4,7,21)       =    123.869681     0.000001    -0.004926   123.864756
	   38 B(4,9,8)        =    120.039340     0.000243     0.246749   120.286089
	   39 B(5,10,13)      =    119.986548     0.000613     0.594099   120.580647
	   40 B(5,11,8)       =    120.045019     0.000895     0.865604   120.910623
	   41 B(5,11,14)      =    119.256220     0.000032     0.047784   119.304004
	   42 B(6,3,9)        =    118.815713     0.000552     0.583705   119.399418
	   43 B(6,3,17)       =    119.704657    -0.000194    -0.197672   119.506985
	   44 B(6,12,7)       =    122.288849     0.000121     0.129711   122.418560
	   45 B(6,12,22)      =    118.814656    -0.000052    -0.053907   118.760749
	   46 B(7,4,9)        =    118.772074     0.000575     0.607189   119.379263
	   47 B(7,4,18)       =    119.738850    -0.000200    -0.203460   119.535390
	   48 B(7,12,22)      =    118.896309    -0.000069    -0.075881   118.820428
	   49 B(8,1,15)       =    120.798746    -0.000472    -0.518702   120.280044
	   50 B(8,11,14)      =    120.698759    -0.000927    -0.913694   119.785065
	   51 B(9,3,17)       =    121.479608    -0.000359    -0.386025   121.093583
	   52 B(9,4,18)       =    121.489074    -0.000375    -0.403774   121.085300
	   53 B(9,8,11)       =    120.212327     0.000415     0.474551   120.686878
	   54 B(10,2,16)      =    121.451467    -0.000644    -0.744989   120.706478
	   55 B(10,5,11)      =    119.960108     0.000286     0.311474   120.271582
	   56 B(10,5,19)      =    121.472852    -0.000444    -0.506636   120.966216
	   57 B(11,5,19)      =    118.567038     0.000159     0.195153   118.762191
	   58 B(12,6,20)      =    115.979190     0.000203     0.228754   116.207944
	   59 B(12,7,21)      =    116.012721     0.000195     0.222683   116.235404
	   60 D(1,2,10,5)     =     -0.018609     0.000014     0.105714     0.087106
	   61 D(1,2,10,13)    =    179.988520     0.000015     0.096224   180.084744
	   62 D(1,8,9,3)      =    119.974903     0.000113     0.535372   120.510274
	   63 D(1,8,9,4)      =    -59.983822     0.000151     0.863826   -59.119997
	   64 D(1,8,11,5)     =      0.018608     0.000022     0.187925     0.206533
	   65 D(1,8,11,14)    =   -179.996269    -0.000005    -0.000817  -179.997086
	   66 D(2,1,8,9)      =   -179.978157     0.000030     0.246761  -179.731397
	   67 D(2,1,8,11)     =     -0.019945     0.000006     0.002666    -0.017278
	   68 D(2,10,5,11)    =      0.017261     0.000013     0.082645     0.099907
	   69 D(2,10,5,19)    =   -179.997173     0.000011     0.058725  -179.938448
	   70 D(3,6,12,7)     =      0.069673     0.000001     0.016947     0.086620
	   71 D(3,6,12,22)    =    179.911193    -0.000002    -0.013681   179.897511
	   72 D(3,9,4,7)      =      0.027772     0.000013     0.123419     0.151191
	   73 D(3,9,4,18)     =   -179.987243     0.000004     0.058976  -179.928267
	   74 D(3,9,8,11)     =    -59.983203     0.000138     0.783599   -59.199604
	   75 D(4,7,12,6)     =     -0.062695    -0.000006    -0.047675    -0.110370
	   76 D(4,7,12,22)    =   -179.904090    -0.000003    -0.017063  -179.921153
	   77 D(4,9,3,6)      =     -0.021054    -0.000018    -0.153265    -0.174319
	   78 D(4,9,3,17)     =   -179.967626    -0.000021    -0.164219  -180.131845
	   79 D(4,9,8,11)     =    120.058072     0.000176     1.112053   121.170124
	   80 D(5,10,2,16)    =    179.881752     0.000016     0.114011   179.995763
	   81 D(5,11,8,9)     =    179.976658    -0.000003    -0.057761   179.918897
	   82 D(6,3,9,8)      =   -179.979833     0.000019     0.170636  -179.809196
	   83 D(6,12,7,21)    =    179.997270     0.000007     0.030168   180.027438
	   84 D(7,4,9,8)      =    179.986556    -0.000024    -0.198981   179.787574
	   85 D(7,12,6,20)    =    179.984657     0.000016     0.120544   180.105201
	   86 D(8,1,2,10)     =      0.019955    -0.000024    -0.147803    -0.127848
	   87 D(8,1,2,16)     =   -179.883288    -0.000025    -0.154923  -180.038211
	   88 D(8,9,3,17)     =      0.073594     0.000017     0.159683     0.233277
	   89 D(8,9,4,18)     =     -0.028459    -0.000033    -0.263424    -0.291883
	   90 D(8,11,5,10)    =     -0.017270    -0.000032    -0.230686    -0.247956
	   91 D(8,11,5,19)    =    179.996748    -0.000030    -0.207187   179.789561
	   92 D(9,3,6,12)     =     -0.026568     0.000011     0.085055     0.058487
	   93 D(9,3,6,20)     =   -179.934463    -0.000006    -0.027138  -179.961602
	   94 D(9,4,7,12)     =      0.012878    -0.000001    -0.024679    -0.011801
	   95 D(9,4,7,21)     =    179.947974    -0.000015    -0.108641   179.839333
	   96 D(9,8,1,15)     =      0.118384     0.000006     0.089847     0.208231
	   97 D(9,8,11,14)    =     -0.038219    -0.000030    -0.246504    -0.284722
	   98 D(10,2,1,15)    =    179.924984     0.000000     0.006930   179.931914
	   99 D(10,5,11,14)   =    179.997392    -0.000005    -0.042696   179.954696
	  100 D(11,5,10,13)   =   -179.989865     0.000013     0.092129  -179.897736
	  101 D(11,8,1,15)    =   -179.923403    -0.000019    -0.154247  -180.077650
	  102 D(12,6,3,17)    =    179.920975     0.000013     0.095720   180.016695
	  103 D(12,7,4,18)    =   -179.972376     0.000008     0.038786  -179.933591
	  104 D(13,10,2,16)   =     -0.111119     0.000016     0.104520    -0.006599
	  105 D(13,10,5,19)   =     -0.004300     0.000011     0.068209     0.063909
	  106 D(14,11,5,19)   =      0.011410    -0.000003    -0.019196    -0.007787
	  107 D(15,1,2,16)    =      0.021741    -0.000001    -0.000190     0.021551
	  108 D(17,3,6,20)    =      0.013079    -0.000003    -0.016473    -0.003393
	  109 D(18,4,7,21)    =     -0.037281    -0.000006    -0.045176    -0.082456
	  110 D(20,6,12,22)   =     -0.173824     0.000014     0.089916    -0.083908
	  111 D(21,7,12,22)   =      0.155875     0.000010     0.060780     0.216655
	  112 R(3,14)         =      3.008317    -0.016732    -0.002161     3.006156
	 ---------------------------------------------------------------------------
	Successfully symmetrized geometry.
	 Forces used to impose fixed constraints are not included.
	  Forces zeroed: 62 

  ==> Convergence Check <==

  Measures of convergence in internal coordinates in au.
  Criteria marked as inactive (o), active & met (*), and active & unmet ( ).
  --------------------------------------------------------------------------------------------- ~
   Step     Total Energy     Delta E     MAX Force     RMS Force      MAX Disp      RMS Disp    ~
  --------------------------------------------------------------------------------------------- ~
    Convergence Criteria    1.00e-06 *    3.00e-04 *             o    1.20e-03 *             o  ~
  --------------------------------------------------------------------------------------------- ~
      1    -652.79634977   -6.53e+02      3.23e-02      8.09e-03 o    3.48e-02      9.44e-03 o  ~
  ---------------------------------------------------------------------------------------------

	Writing optimization data to binary file.
	Structure for next step:
	Cartesian Geometry (in Angstrom)
	    C    -1.3708397425   0.7687758883  -0.7689366596
	    C    -2.4423785701   1.3417490544  -0.1065091505
	    C     2.0927581474   0.0518730147  -0.5313021737
	    C     0.5814934557  -1.4548307266  -1.6557040114
	    C    -1.4395093498   0.7359538716   2.0231397856
	    C     3.1385184269  -0.5281399052  -1.2156204761
	    C     1.6605344329  -2.0016532837  -2.3159077411
	    C    -0.3243208558   0.1766044258  -0.0483884540
	    C     0.7897696133  -0.4122502250  -0.7457122529
	    C    -2.4983230256   1.3357458326   1.3056226965
	    C    -0.3749248260   0.1715128988   1.3501455379
	    N     2.8993456236  -1.5308476099  -2.0815250753
	    O    -3.4809712028   1.8591707291   1.9196629467
	    F     0.6242120555  -0.3941437036   2.0535414725
	    H    -1.3485121468   0.7834856260  -1.8540764095
	    H    -3.2365968993   1.7927502829  -0.6899075710
	    H     2.2918192072   0.8575942578   0.1630548040
	    H    -0.4117450920  -1.8385911091  -1.8478204224
	    H    -1.4446949580   0.7094997866   3.1064591251
	    H     4.1698488486  -0.2286280599  -1.1061007602
	    H     1.5835876343  -2.8081066483  -3.0293470936
	    H     3.6810485011  -1.9442229725  -2.5770293378
			--------------------------
			 OPTKING Finished Execution 
			--------------------------

    Structure for next step:
    Molecular point group: c1
    Full point group: C1

    Geometry (in Angstrom), charge = 0, multiplicity = 1:

    C           -1.370101282128     0.766979975295    -0.769809162002
    C           -2.441640109776     1.339953141352    -0.107381652852
    C            2.093496607800     0.050077101650    -0.532174676142
    C            0.582231916025    -1.456626639635    -1.656576513769
    C           -1.438770889466     0.734157958592     2.022267283156
    C            3.139256887239    -0.529935818250    -1.216492978460
    C            1.661272893291    -2.003449196703    -2.316780243488
    C           -0.323582395435     0.174808512740    -0.049260956431
    C            0.790508073616    -0.414046138045    -0.746584755274
    C           -2.497584565204     1.333949919571     1.304750194086
    C           -0.374186365612     0.169716985804     1.349273035469
    N            2.900084083957    -1.532643522967    -2.082397577664
    O           -3.480232742406     1.857374816043     1.918790444261
    F            0.624950515861    -0.395939616617     2.052668970071
    H           -1.347773686468     0.781689712925    -1.854948911874
    H           -3.235858438967     1.790954369813    -0.690780073438
    H            2.292557667542     0.855798344777     0.162182301612
    H           -0.411006631665    -1.840387022144    -1.848692924772
    H           -1.443956497689     0.707703873596     3.105586622728
    H            4.170587308919    -0.230423972903    -1.106973262569
    H            1.584326094699    -2.809902561352    -3.030219596041
    H            3.681786961421    -1.946018885565    -2.577901840235

gradient() will perform analytic gradient computation.

*** tstart() called on gpu-1-10.local
*** at Sun Nov 12 01:30:51 2017

    SCF Algorithm Type (re)set to DF.

*** tstart() called on gpu-1-10.local
*** at Sun Nov 12 01:30:51 2017

   => Loading Basis Set <=

    Name: AUG-CC-PVTZ
    Role: ORBITAL
    Keyword: BASIS
    atoms 1-11  entry C          line   221 file /cbio/jclab/home/chayas/anaconda/envs/py35/share/psi4/basis/aug-cc-pvtz.gbs 
    atoms 12    entry N          line   267 file /cbio/jclab/home/chayas/anaconda/envs/py35/share/psi4/basis/aug-cc-pvtz.gbs 
    atoms 13    entry O          line   313 file /cbio/jclab/home/chayas/anaconda/envs/py35/share/psi4/basis/aug-cc-pvtz.gbs 
    atoms 14    entry F          line   359 file /cbio/jclab/home/chayas/anaconda/envs/py35/share/psi4/basis/aug-cc-pvtz.gbs 
    atoms 15-22 entry H          line    34 file /cbio/jclab/home/chayas/anaconda/envs/py35/share/psi4/basis/aug-cc-pvtz.gbs 


         ---------------------------------------------------------
                                   SCF
            by Justin Turney, Rob Parrish, and Andy Simmonett
                              RHF Reference
                        8 Threads,   4768 MiB Core
         ---------------------------------------------------------

  ==> Geometry <==

    Molecular point group: c1
    Full point group: C1

    Geometry (in Angstrom), charge = 0, multiplicity = 1:

       Center              X                  Y                   Z               Mass       
    ------------   -----------------  -----------------  -----------------  -----------------
           C         -1.370101282128     0.766979975295    -0.769809162002    12.000000000000
           C         -2.441640109776     1.339953141352    -0.107381652852    12.000000000000
           C          2.093496607800     0.050077101650    -0.532174676142    12.000000000000
           C          0.582231916025    -1.456626639635    -1.656576513769    12.000000000000
           C         -1.438770889466     0.734157958592     2.022267283156    12.000000000000
           C          3.139256887239    -0.529935818250    -1.216492978460    12.000000000000
           C          1.661272893291    -2.003449196703    -2.316780243488    12.000000000000
           C         -0.323582395435     0.174808512740    -0.049260956431    12.000000000000
           C          0.790508073616    -0.414046138045    -0.746584755274    12.000000000000
           C         -2.497584565204     1.333949919571     1.304750194086    12.000000000000
           C         -0.374186365612     0.169716985804     1.349273035469    12.000000000000
           N          2.900084083957    -1.532643522967    -2.082397577664    14.003074004780
           O         -3.480232742406     1.857374816043     1.918790444261    15.994914619560
           F          0.624950515861    -0.395939616617     2.052668970071    18.998403224000
           H         -1.347773686468     0.781689712925    -1.854948911874     1.007825032070
           H         -3.235858438967     1.790954369813    -0.690780073438     1.007825032070
           H          2.292557667542     0.855798344777     0.162182301612     1.007825032070
           H         -0.411006631665    -1.840387022144    -1.848692924772     1.007825032070
           H         -1.443956497689     0.707703873596     3.105586622728     1.007825032070
           H          4.170587308919    -0.230423972903    -1.106973262569     1.007825032070
           H          1.584326094699    -2.809902561352    -3.030219596041     1.007825032070
           H          3.681786961421    -1.946018885565    -2.577901840235     1.007825032070

  Running in c1 symmetry.

  Rotational constants: A =      0.06276  B =      0.01321  C =      0.01174 [cm^-1]
  Rotational constants: A =   1881.37350  B =    396.13917  C =    351.91214 [MHz]
  Nuclear repulsion =  816.195760933381052

  Charge       = 0
  Multiplicity = 1
  Electrons    = 98
  Nalpha       = 49
  Nbeta        = 49

  ==> Algorithm <==

  SCF Algorithm Type is DF.
  DIIS enabled.
  MOM disabled.
  Fractional occupation disabled.
  Guess Type is READ.
  Energy threshold   = 1.00e-10
  Density threshold  = 1.00e-10
  Integral threshold = 0.00e+00

  ==> Primary Basis <==

  Basis Set: AUG-CC-PVTZ
    Blend: AUG-CC-PVTZ
    Number of shells: 268
    Number of basis function: 828
    Number of Cartesian functions: 970
    Spherical Harmonics?: true
    Max angular momentum: 3

   => Loading Basis Set <=

    Name: (AUG-CC-PVTZ AUX)
    Role: JKFIT
    Keyword: DF_BASIS_SCF
    atoms 1-11  entry C          line   161 file /cbio/jclab/home/chayas/anaconda/envs/py35/share/psi4/basis/aug-cc-pvtz-jkfit.gbs 
    atoms 12    entry N          line   223 file /cbio/jclab/home/chayas/anaconda/envs/py35/share/psi4/basis/aug-cc-pvtz-jkfit.gbs 
    atoms 13    entry O          line   285 file /cbio/jclab/home/chayas/anaconda/envs/py35/share/psi4/basis/aug-cc-pvtz-jkfit.gbs 
    atoms 14    entry F          line   347 file /cbio/jclab/home/chayas/anaconda/envs/py35/share/psi4/basis/aug-cc-pvtz-jkfit.gbs 
    atoms 15-22 entry H          line    69 file /cbio/jclab/home/chayas/anaconda/envs/py35/share/psi4/basis/aug-cc-pvtz-jkfit.gbs 

  Reading orbitals from file 180, no projection.

  ==> Pre-Iterations <==

   -------------------------------------------------------
    Irrep   Nso     Nmo     Nalpha   Nbeta   Ndocc  Nsocc
   -------------------------------------------------------
     A        828     828       0       0       0       0
   -------------------------------------------------------
    Total     828     828      49      49      49       0
   -------------------------------------------------------

  ==> Integral Setup <==

  ==> DFJK: Density-Fitted J/K Matrices <==

    J tasked:                  Yes
    K tasked:                  Yes
    wK tasked:                  No
    OpenMP threads:              8
    Integrals threads:           8
    Memory (MB):              3576
    Algorithm:                Disk
    Integral Cache:           NONE
    Schwarz Cutoff:          1E-12
    Fitting Condition:       1E-12

   => Auxiliary Basis Set <=

  Basis Set: (AUG-CC-PVTZ AUX)
    Blend: AUG-CC-PVTZ-JKFIT
    Number of shells: 532
    Number of basis function: 1824
    Number of Cartesian functions: 2274
    Spherical Harmonics?: true
    Max angular momentum: 4

  Minimum eigenvalue in the overlap matrix is 7.8884761136E-07.
  Using Symmetric Orthogonalization.

  SCF Guess: Orbitals guess was supplied from a previous computation.

  ==> Iterations <==

                           Total Energy        Delta E     RMS |[F,P]|

   @DF-RHF iter   0:  -650.15276943407082   -6.50153e+02   4.93952e-04 
   @DF-RHF iter   1:  -650.10149175554795    5.12777e-02   1.07202e-04 
   @DF-RHF iter   2:  -650.10185488961008   -3.63134e-04   6.97715e-05 DIIS
   @DF-RHF iter   3:  -650.10205005616979   -1.95167e-04   1.09422e-05 DIIS
   @DF-RHF iter   4:  -650.10207029191167   -2.02357e-05   6.40515e-06 DIIS
   @DF-RHF iter   5:  -650.10208032936828   -1.00375e-05   4.03590e-06 DIIS
   @DF-RHF iter   6:  -650.10208455247277   -4.22310e-06   1.90926e-06 DIIS
   @DF-RHF iter   7:  -650.10208570083796   -1.14837e-06   5.66820e-07 DIIS
   @DF-RHF iter   8:  -650.10208581774612   -1.16908e-07   1.45803e-07 DIIS
   @DF-RHF iter   9:  -650.10208582629741   -8.55130e-09   7.93067e-08 DIIS
   @DF-RHF iter  10:  -650.10208582783775   -1.54034e-09   3.90129e-08 DIIS
   @DF-RHF iter  11:  -650.10208582814721   -3.09456e-10   1.73443e-08 DIIS
   @DF-RHF iter  12:  -650.10208582818075   -3.35376e-11   7.34042e-09 DIIS
   @DF-RHF iter  13:  -650.10208582821099   -3.02407e-11   2.85510e-09 DIIS
   @DF-RHF iter  14:  -650.10208582823145   -2.04636e-11   7.83762e-10 DIIS
   @DF-RHF iter  15:  -650.10208582820235    2.91038e-11   3.13432e-10 DIIS
   @DF-RHF iter  16:  -650.10208582822190   -1.95541e-11   1.57205e-10 DIIS
   @DF-RHF iter  17:  -650.10208582821951    2.38742e-12   5.69916e-11 DIIS

  ==> Post-Iterations <==

    Orbital Energies (a.u.)
    -----------------------

    Doubly Occupied:                                                      

       1A    -26.301592     2A    -20.423985     3A    -15.718624  
       4A    -11.371125     5A    -11.369249     6A    -11.324441  
       7A    -11.310832     8A    -11.297820     9A    -11.296650  
      10A    -11.244685    11A    -11.229087    12A    -11.212405  
      13A    -11.180586    14A    -11.179196    15A     -1.619395  
      16A     -1.396822    17A     -1.254010    18A     -1.187846  
      19A     -1.125607    20A     -1.111144    21A     -1.001332  
      22A     -0.991288    23A     -0.948988    24A     -0.911191  
      25A     -0.851317    26A     -0.821277    27A     -0.801726  
      28A     -0.752019    29A     -0.740068    30A     -0.703953  
      31A     -0.693434    32A     -0.690691    33A     -0.680193  
      34A     -0.672278    35A     -0.661385    36A     -0.618309  
      37A     -0.596800    38A     -0.589478    39A     -0.576038  
      40A     -0.537953    41A     -0.506620    42A     -0.492724  
      43A     -0.479207    44A     -0.459638    45A     -0.430463  
      46A     -0.400026    47A     -0.336980    48A     -0.319666  
      49A     -0.232022  

    Virtual:                                                              

      50A     -0.013078    51A      0.008081    52A      0.009218  
      53A      0.021277    54A      0.031850    55A      0.039226  
      56A      0.042444    57A      0.048909    58A      0.051937  
      59A      0.058180    60A      0.063007    61A      0.066793  
      62A      0.070479    63A      0.076670    64A      0.080406  
      65A      0.089707    66A      0.096374    67A      0.101012  
      68A      0.103531    69A      0.105989    70A      0.116111  
      71A      0.119901    72A      0.124842    73A      0.125508  
      74A      0.126818    75A      0.130161    76A      0.132982  
      77A      0.139097    78A      0.143692    79A      0.149234  
      80A      0.152180    81A      0.158944    82A      0.161623  
      83A      0.163400    84A      0.166322    85A      0.176667  
      86A      0.177379    87A      0.180716    88A      0.185794  
      89A      0.189291    90A      0.192854    91A      0.195347  
      92A      0.203439    93A      0.203832    94A      0.206103  
      95A      0.212188    96A      0.215619    97A      0.222636  
      98A      0.226606    99A      0.230286   100A      0.235050  
     101A      0.241134   102A      0.248234   103A      0.250115  
     104A      0.251470   105A      0.255661   106A      0.257782  
     107A      0.261479   108A      0.263302   109A      0.270275  
     110A      0.273415   111A      0.281269   112A      0.284196  
     113A      0.292035   114A      0.295600   115A      0.297211  
     116A      0.301541   117A      0.303644   118A      0.312401  
     119A      0.314622   120A      0.320259   121A      0.323085  
     122A      0.327622   123A      0.331154   124A      0.338782  
     125A      0.341063   126A      0.343054   127A      0.348411  
     128A      0.349633   129A      0.360143   130A      0.361214  
     131A      0.365364   132A      0.368533   133A      0.369618  
     134A      0.375156   135A      0.376785   136A      0.381214  
     137A      0.385402   138A      0.396245   139A      0.398251  
     140A      0.399734   141A      0.409486   142A      0.415426  
     143A      0.418514   144A      0.420383   145A      0.424347  
     146A      0.429257   147A      0.433465   148A      0.438063  
     149A      0.438845   150A      0.444340   151A      0.454906  
     152A      0.456420   153A      0.459238   154A      0.462238  
     155A      0.467966   156A      0.470451   157A      0.474717  
     158A      0.476005   159A      0.480063   160A      0.488129  
     161A      0.488633   162A      0.490188   163A      0.491341  
     164A      0.495425   165A      0.498643   166A      0.501914  
     167A      0.503693   168A      0.508879   169A      0.514777  
     170A      0.521434   171A      0.523424   172A      0.530896  
     173A      0.536482   174A      0.538359   175A      0.544474  
     176A      0.546922   177A      0.550236   178A      0.560535  
     179A      0.564797   180A      0.570486   181A      0.574768  
     182A      0.580854   183A      0.587299   184A      0.594696  
     185A      0.596974   186A      0.599470   187A      0.601819  
     188A      0.609202   189A      0.610615   190A      0.626405  
     191A      0.629876   192A      0.633773   193A      0.637183  
     194A      0.645646   195A      0.649621   196A      0.663511  
     197A      0.666799   198A      0.669194   199A      0.671026  
     200A      0.674301   201A      0.679033   202A      0.689198  
     203A      0.695167   204A      0.700603   205A      0.703868  
     206A      0.712381   207A      0.713187   208A      0.718135  
     209A      0.723109   210A      0.728218   211A      0.733181  
     212A      0.737319   213A      0.743082   214A      0.753224  
     215A      0.754871   216A      0.756729   217A      0.766370  
     218A      0.768633   219A      0.772607   220A      0.790737  
     221A      0.795141   222A      0.799608   223A      0.809023  
     224A      0.811836   225A      0.821628   226A      0.825770  
     227A      0.832780   228A      0.835797   229A      0.846270  
     230A      0.851720   231A      0.861016   232A      0.867527  
     233A      0.870270   234A      0.872769   235A      0.877551  
     236A      0.883824   237A      0.891478   238A      0.895272  
     239A      0.895594   240A      0.901006   241A      0.906685  
     242A      0.909627   243A      0.912430   244A      0.917484  
     245A      0.921780   246A      0.925780   247A      0.926191  
     248A      0.929079   249A      0.934180   250A      0.942133  
     251A      0.948555   252A      0.958121   253A      0.960235  
     254A      0.961782   255A      0.974391   256A      0.977207  
[...]
	                          DF-MP2                         
	      2nd-Order Density-Fitted Moller-Plesset Theory     
	              RMP2 Wavefunction,   8 Threads             
	                                                         
	        Rob Parrish, Justin Turney, Andy Simmonett,      
	           Ed Hohenstein, and C. David Sherrill          
	 --------------------------------------------------------

   => Auxiliary Basis Set <=

  Basis Set: (AUG-CC-PVTZ AUX)
    Blend: AUG-CC-PVTZ-RI
    Number of shells: 504
    Number of basis function: 1852
    Number of Cartesian functions: 2344
    Spherical Harmonics?: true
    Max angular momentum: 4

	 --------------------------------------------------------
	                 NBF =   828, NAUX =  1852
	 --------------------------------------------------------
	   CLASS    FOCC     OCC    AOCC    AVIR     VIR    FVIR
	   PAIRS       0      49      49     779     779       0
	 --------------------------------------------------------


         ------------------------------------------------------------
                                     CPHF                           
                                  Rob Parrish                       
         ------------------------------------------------------------

  ==> Geometry <==

    Molecular point group: c1
    Full point group: C1

    Geometry (in Angstrom), charge = 0, multiplicity = 1:

       Center              X                  Y                   Z               Mass       
    ------------   -----------------  -----------------  -----------------  -----------------
           C         -1.476116266987     0.412114638817    -0.723371837966    12.000000000000
           C         -2.429561174267     1.199346389194    -0.163831355796    12.000000000000
           C          2.049355520351    -0.201109299973    -0.345568277162    12.000000000000
           C          0.591833679753    -1.471424899104    -1.764898526841    12.000000000000
           C         -1.351888994062     0.942786175330     2.015660418991    12.000000000000
           C          3.097877621370    -0.573491261833    -1.127089237517    12.000000000000
           C          1.663565559096    -1.832026840098    -2.520575404897    12.000000000000
           C         -0.410133993942    -0.151486671666     0.036818691618    12.000000000000
           C          0.728926341762    -0.664761095003    -0.598465212084    12.000000000000
           C         -2.453800237030     1.499453028680     1.255899588149    12.000000000000
           C         -0.392657452513     0.213083483174     1.406243457374    12.000000000000
           N          2.905028415297    -1.389851512534    -2.197542633209    14.003074004780
           O         -3.338929886802     2.190230093040     1.781052993871    15.994914619560
           F          0.633541598566    -0.278560102675     2.150553146094    18.998403224000
           H         -1.485282309785     0.235458506556    -1.790679865987     1.007825032070
           H         -3.195461183519     1.653704563950    -0.773266418895     1.007825032070
           H          2.232804638495     0.465647005252     0.480860482084     1.007825032070
           H         -0.380314813626    -1.850353168673    -2.037042228645     1.007825032070
           H         -1.315746323297     1.119569827319     3.078913285873     1.007825032070
           H          4.102360655184    -0.217588284755    -0.970191137348     1.007825032070
           H          1.591277079397    -2.476911630680    -3.381202725199     1.007825032070
           H          3.690839934842    -1.656147293482    -2.765932465287     1.007825032070

  Nuclear repulsion =  815.817126309779837
  Reference energy  = -650.123450900400599

  ==> Basis Set <==

  Basis Set: AUG-CC-PVTZ
    Blend: AUG-CC-PVTZ
    Number of shells: 268
    Number of basis function: 828
    Number of Cartesian functions: 970
    Spherical Harmonics?: true
    Max angular momentum: 3

  ==> CGRSolver (by Rob Parrish) <==

   Number of roots    =         1
   Preconditioning    =    JACOBI
   Convergence cutoff =     1E-06
   Maximum iterations =       100

  ==> CPHFRHamiltonian (by Rob Parrish) <== 

  ==> DFJK: Density-Fitted J/K Matrices <==

    J tasked:                  Yes
    K tasked:                  Yes
    wK tasked:                  No
    OpenMP threads:              8
    Integrals threads:           8
    Memory (MB):              3576
    Algorithm:                Disk
    Integral Cache:           NONE
    Schwarz Cutoff:          1E-12
    Fitting Condition:       1E-12

   => Auxiliary Basis Set <=

  Basis Set: (AUG-CC-PVTZ AUX)
    Blend: AUG-CC-PVTZ-JKFIT
    Number of shells: 532
    Number of basis function: 1824
    Number of Cartesian functions: 2274
    Spherical Harmonics?: true
    Max angular momentum: 4

  ==> CPHF Iterations <==

  => Iterations <=

             Iter  Converged  Remaining    Residual
  CGR           1          0          1   1.535E-01
  CGR           2          0          1   5.659E-02
  CGR           3          0          1   2.843E-02
  CGR           4          0          1   8.390E-03
  CGR           5          0          1   2.805E-03
  CGR           6          0          1   1.145E-03
  CGR           7          0          1   5.257E-04
  CGR           8          0          1   2.210E-04
  CGR           9          0          1   1.038E-04
  CGR          10          0          1   4.144E-05
  CGR          11          0          1   1.702E-05
  CGR          12          0          1   5.114E-06
  CGR          13          0          1   2.287E-06
  CGR          14          1          0   7.778E-07

    CGRSolver converged.

  ==> DFCorrGrad: Density-Fitted Correlated Gradients <==

    OpenMP threads:              8
    Integrals threads:           8
    Memory (MB):              3576
    Schwarz Cutoff:          0E+00
    Fitting Condition:       1E-12

   => Auxiliary Basis Set <=

  Basis Set: (AUG-CC-PVTZ AUX)
    Blend: AUG-CC-PVTZ-JKFIT
    Number of shells: 532
    Number of basis function: 1824
    Number of Cartesian functions: 2274
    Spherical Harmonics?: true
    Max angular momentum: 4

	-----------------------------------------------------------
	 ==================> DF-MP2 Energies <==================== 
	-----------------------------------------------------------
	 Reference Energy          =    -650.1234509004005986 [Eh]
	 Singles Energy            =      -0.0000000000000010 [Eh]
	 Same-Spin Energy          =      -0.6742783710112519 [Eh]
	 Opposite-Spin Energy      =      -2.0237922292119759 [Eh]
	 Correlation Energy        =      -2.6980706002232289 [Eh]
	 Total Energy              =    -652.8215215006238168 [Eh]
	-----------------------------------------------------------
	 ================> DF-SCS-MP2 Energies <================== 
	-----------------------------------------------------------
	 SCS Same-Spin Scale       =       0.3333333333333333 [-]
	 SCS Opposite-Spin Scale   =       1.2000000000000000 [-]
	 SCS Same-Spin Energy      =      -0.2247594570037506 [Eh]
	 SCS Opposite-Spin Energy  =      -2.4285506750543711 [Eh]
	 SCS Correlation Energy    =      -2.6533101320581225 [Eh]
	 SCS Total Energy          =    -652.7767610324586940 [Eh]
	-----------------------------------------------------------


  -Total Gradient:
     Atom            X                  Y                   Z
    ------   -----------------  -----------------  -----------------
       1        0.006152068519     0.013867157247     0.000508842838
       2        0.000761670605    -0.000172280102    -0.000600996470
       3       -0.000750549356     0.010356979509    -0.012160896627
       4       -0.000287079050    -0.000497349738    -0.000379181587
       5        0.000401621940    -0.000248616640    -0.000216992545
       6        0.000309850473     0.000568965679     0.000523427356
       7       -0.000042533777    -0.000017620531    -0.000198766881
       8       -0.010045324710    -0.013542503789    -0.008116491663
       9        0.005154571565    -0.008419617918     0.019107529526
      10       -0.000972970216     0.000543422202     0.000381661491
      11       -0.000063212345    -0.000924861332    -0.000056832916
      12       -0.000055596191    -0.000253744711    -0.000550425313
      13       -0.000151462132     0.000329510903     0.000267920185
      14       -0.000159548254    -0.000143427290     0.000667119250
      15       -0.000108945073    -0.000504547332     0.000029250181
      16       -0.000088880112    -0.000256964025     0.000159938987
      17       -0.000171306260    -0.000071359484     0.000390492731
      18        0.000062269662    -0.000155672198     0.000319079363
      19       -0.000213435339     0.000031665180     0.000320969995
      20        0.000051718191    -0.000183281933    -0.000014630215
      21        0.000114515647    -0.000303590304    -0.000226246193
      22        0.000102556205    -0.000002263397    -0.000154771471


*** tstop() called on gpu-1-10.local at Sun Nov 12 13:41:36 2017
Module time:
	user time   =    5796.62 seconds =      96.61 minutes
	system time =     105.48 seconds =       1.76 minutes
	total time  =       2717 seconds =      45.28 minutes
Total time:
	user time   =  100262.88 seconds =    1671.05 minutes
	system time =    1829.12 seconds =      30.49 minutes
	total time  =      46660 seconds =     777.67 minutes

			-----------------------------------------
			 OPTKING 2.0: for geometry optimizations 
			  - R.A. King,  Bethel University        
			-----------------------------------------

	Previous internal coordinate definitions found.
	---Fragment 1 Geometry and Gradient---
	 C          -2.7894554849        0.7787838027       -1.3669746660
	 C          -4.5912052425        2.2664362140       -0.3095963944
	 C           3.8727206824       -0.3800414997       -0.6530294040
	 C           1.1184035710       -2.7805900844       -3.3351748681
	 C          -2.5546999608        1.7816076732        3.8090461688
	 C           5.8541402976       -1.0837414245       -2.1298899862
	 C           3.1436833108       -3.4620289959       -4.7631972125
	 C          -0.7750409263       -0.2862683222        0.0695772437
	 C           1.3774711570       -1.2562164134       -1.1309353509
	 C          -4.6370104328        2.8335555733        2.3733062720
	 C          -0.7420150493        0.4026694266        2.6574150106
	 N           5.4897081132       -2.6264387241       -4.1527537421
	 O          -6.3096630630        4.1389350439        3.3657023866
	 F           1.1972201151       -0.5264023056        4.0639564803
	 H          -2.8067767955        0.4449520930       -3.3838945384
	 H          -6.0385465051        3.1250487306       -1.4612617595
	 H           4.2193892750        0.8799453145        0.9086946193
	 H          -0.7186908420       -3.4966607379       -3.8494519333
	 H          -2.4864002114        2.1156803603        5.8183028972
	 H           7.7523381366       -0.4111822679       -1.8333955461
	 H           3.0070778816       -4.6806846373       -6.3895471504
	 H           6.9746766772       -3.1296648204       -5.2268548615
	             0.0061520685        0.0138671572        0.0005088428
	             0.0007616706       -0.0001722801       -0.0006009965
	            -0.0007505494        0.0103569795       -0.0121608966
	            -0.0002870790       -0.0004973497       -0.0003791816
	             0.0004016219       -0.0002486166       -0.0002169925
	             0.0003098505        0.0005689657        0.0005234274
	            -0.0000425338       -0.0000176205       -0.0001987669
	            -0.0100453247       -0.0135425038       -0.0081164917
	             0.0051545716       -0.0084196179        0.0191075295
	            -0.0009729702        0.0005434222        0.0003816615
	            -0.0000632123       -0.0009248613       -0.0000568329
	            -0.0000555962       -0.0002537447       -0.0005504253
	            -0.0001514621        0.0003295109        0.0002679202
	            -0.0001595483       -0.0001434273        0.0006671193
	            -0.0001089451       -0.0005045473        0.0000292502
	            -0.0000888801       -0.0002569640        0.0001599390
	            -0.0001713063       -0.0000713595        0.0003904927
	             0.0000622697       -0.0001556722        0.0003190794
	            -0.0002134353        0.0000316652        0.0003209700
	             0.0000517182       -0.0001832819       -0.0000146302
	             0.0001145156       -0.0003035903       -0.0002262462
	             0.0001025562       -0.0000022634       -0.0001547715

	---Fragment 1 Intrafragment Coordinates---
	 - Coordinate -           - BOHR/RAD -       - ANG/DEG -
	 R(1,2)           =         2.564656	       1.357158
	 R(1,8)           =         2.693675	       1.425431
	 R(1,15)          =         2.044434	       1.081868
	 R(2,10)          =         2.742570	       1.451305
	 R(2,16)          =         2.039202	       1.079099
	 R(3,6)           =         2.569501	       1.359721
	 R(3,9)           =         2.687442	       1.422133
	 R(3,17)          =         2.036352	       1.077591
	 R(4,7)           =         2.570090	       1.360033
	 R(4,9)           =         2.692490	       1.424804
	 R(4,18)          =         2.037683	       1.078296
	 R(5,10)          =         2.739336	       1.449594
	 R(5,11)          =         2.552166	       1.350548
	 R(5,19)          =         2.037985	       1.078455
	 R(6,12)          =         2.569962	       1.359965
	 R(6,20)          =         2.035534	       1.077158
	 R(7,12)          =         2.564115	       1.356871
	 R(7,21)          =         2.036860	       1.077860
	 R(8,9)           =         2.648648	       1.401604
	 R(8,11)          =         2.678177	       1.417230
	 R(10,13)         =         2.342356	       1.239522
	 R(11,14)         =         2.569468	       1.359704
	 R(12,22)         =         1.900542	       1.005724
	 B(1,2,10)        =         2.135303	     122.343850
	 B(1,2,16)        =         2.106002	     120.665018
	 B(1,8,9)         =         2.106935	     120.718497
	 B(1,8,11)        =         2.007360	     115.013238
	 B(2,1,8)         =         2.135125	     122.333631
	 B(2,1,15)        =         2.089212	     119.703030
	 B(2,10,5)        =         2.004917	     114.873296
	 B(2,10,13)       =         2.143162	     122.794164
	 B(3,6,12)        =         2.103025	     120.494476
	 B(3,6,20)        =         2.147060	     123.017456
	 B(3,9,4)         =         2.003692	     114.803114
	 B(3,9,8)         =         2.158642	     123.681096
	 B(4,7,12)        =         2.097064	     120.152941
	 B(4,7,21)        =         2.152483	     123.328191
	 B(4,9,8)         =         2.094623	     120.013033
	 B(5,10,13)       =         2.135032	     122.328303
	 B(5,11,8)        =         2.172740	     124.488804
	 B(5,11,14)       =         2.076471	     118.973005
	 B(6,3,9)         =         2.122907	     121.633586
	 B(6,3,17)        =         2.070286	     118.618643
	 B(6,12,7)        =         2.109184	     120.847351
	 B(6,12,22)       =         2.086318	     119.537213
	 B(7,4,9)         =         2.128412	     121.949004
	 B(7,4,18)        =         2.068080	     118.492250
	 B(7,12,22)       =         2.087537	     119.607064
	 B(8,1,15)        =         2.057712	     117.898190
	 B(8,11,14)       =         2.032232	     116.438315
	 B(9,3,17)        =         2.089983	     119.747194
	 B(9,4,18)        =         2.085548	     119.493126
	 B(9,8,11)        =         2.120163	     121.476399
	 B(10,2,16)       =         2.041546	     116.971979
	 B(10,5,11)       =         2.107007	     120.722622
	 B(10,5,19)       =         2.070605	     118.636939
	 B(11,5,19)       =         2.105564	     120.639907
	 B(12,6,20)       =         2.032223	     116.437811
	 B(12,7,21)       =         2.033564	     116.514654
	 D(1,2,10,5)      =         0.044637	       2.557503
	 D(1,2,10,13)     =        -3.109756	    -178.175916
	 D(1,8,9,3)       =         2.125847	     121.802080
	 D(1,8,9,4)       =        -0.758766	     -43.474073
	 D(1,8,11,5)      =         0.095101	       5.448913
	 D(1,8,11,14)     =        -3.110772	    -178.234111
	 D(2,1,8,9)       =        -2.856230	    -163.649951
	 D(2,1,8,11)      =        -0.040192	      -2.302839
	 D(2,10,5,11)     =         0.006823	       0.390915
	 D(2,10,5,19)     =        -3.130169	    -179.345479
	 D(3,6,12,7)      =         0.018294	       1.048169
	 D(3,6,12,22)     =         3.141443	     179.991435
	 D(3,9,4,7)       =         0.069309	       3.971130
	 D(3,9,4,18)      =        -3.124490	    -179.020087
	 D(3,9,8,11)      =        -0.668995	     -38.330616
	 D(4,7,12,6)      =        -0.010747	      -0.615756
	 D(4,7,12,22)     =        -3.133883	    -179.558290
	 D(4,9,3,6)       =        -0.061574	      -3.527941
	 D(4,9,3,17)      =         3.075127	     176.191827
	 D(4,9,8,11)      =         2.729577	     156.393232
	 D(5,10,2,16)     =        -3.069320	    -175.859071
	 D(5,11,8,9)      =         2.908434	     166.641015
	 D(6,3,9,8)       =        -2.958282	    -169.497052
	 D(6,12,7,21)     =        -3.139736	    -179.893600
	 D(7,4,9,8)       =         2.975752	     170.498048
	 D(7,12,6,20)     =        -3.079638	    -176.450280
	 D(8,1,2,10)      =        -0.027008	      -1.547432
	 D(8,1,2,16)      =         3.085951	     176.811941
	 D(8,9,3,17)      =         0.178420	      10.222716
	 D(8,9,4,18)      =        -0.218047	     -12.493169
	 D(8,11,5,10)     =        -0.079564	      -4.558701
	 D(8,11,5,19)     =         3.057335	     175.172398
	 D(9,3,6,12)      =         0.020503	       1.174740
	 D(9,3,6,20)      =         3.115470	     178.503277
	 D(9,4,7,12)      =        -0.035644	      -2.042247
	 D(9,4,7,21)      =         3.092450	     177.184356
	 D(9,8,1,15)      =         0.233933	      13.403377
	 D(9,8,11,14)     =        -0.297439	     -17.042009
	 D(10,2,1,15)     =        -3.116272	    -178.549233
	 D(10,5,11,14)    =         3.127822	     179.211028
	 D(11,5,10,13)    =        -3.122036	    -178.879464
	 D(11,8,1,15)     =         3.049971	     174.750488
	 D(12,6,3,17)     =        -3.116252	    -178.548094
	 D(12,7,4,18)     =        -3.125533	    -179.079872
	 D(13,10,2,16)    =         0.059472	       3.407509
	 D(13,10,5,19)    =         0.024158	       1.384142
	 D(14,11,5,19)    =        -0.018463	      -1.057874
	 D(15,1,2,16)     =        -0.003314	      -0.189860
	 D(17,3,6,20)     =        -0.021285	      -1.219557
	 D(18,4,7,21)     =         0.002561	       0.146730
	 D(20,6,12,22)    =         0.043511	       2.492986
	 D(21,7,12,22)    =         0.020313	       1.163866
	 R(3,14)          =         5.424913	       2.870740

	Current energy   :      -652.8215215006

	Energy change for the previous step:
		Projected    :        -0.0003895195
		Actual       :        -0.0002621205

	Performing BFGS update.
	Previous computed or guess Hessian on step 1.
	Steps to be used in Hessian update: 16 15
	Adding user-defined constraint: Fragment 1; Coordinate 62:
		Value =     2.125847; Fixed value    =     2.094400
		Force =    -0.028303; Force constant =     0.900000
	Removing off-diagonal coupling between coordinate 62 and others.
	Taking RFO optimization step.
	Going to follow RFO solution 1.
	Rejecting RFO root 1 because normalization gives large value.
	Using RFO vector 2.
	Norm of target step-size    0.03081
	Projected energy change by RFO approximation:        -0.0001029008

	Back-transformation to cartesian coordinates...
	The INTCO_EXCEPTion handler:
	TORS::compute_val: unable to compute torsion value
	Dynamic level is 0.
	exc.g_really_quit() is 0.

  **** Optimization has failed! (in 17 steps) ****
			--------------------------
			 OPTKING Finished Execution 
			--------------------------
	Cleaning optimization helper files.

*** Psi4 exiting successfully. Buy a developer a beer!
