
    -----------------------------------------------------------------------
          Psi4: An Open-Source Ab Initio Electronic Structure Package
                               Psi4 1.1 release

                         Git: Rev {HEAD} add49b9 


    R. M. Parrish, L. A. Burns, D. G. A. Smith, A. C. Simmonett,
    A. E. DePrince III, E. G. Hohenstein, U. Bozkaya, A. Yu. Sokolov,
    R. Di Remigio, R. M. Richard, J. F. Gonthier, A. M. James,
    H. R. McAlexander, A. Kumar, M. Saitow, X. Wang, B. P. Pritchard,
    P. Verma, H. F. Schaefer III, K. Patkowski, R. A. King, E. F. Valeev,
    F. A. Evangelista, J. M. Turney, T. D. Crawford, and C. D. Sherrill,
    J. Chem. Theory Comput. in press (2017).
    (doi: 10.1021/acs.jctc.7b00174)

    -----------------------------------------------------------------------


    Psi4 started on: Sunday, 12 November 2017 03:53AM

    Process ID:  12233
    PSIDATADIR: /cbio/jclab/home/chayas/anaconda/envs/py35/share/psi4
    Memory:     500.0 MiB
    Threads:    8
    
  ==> Input File <==

--------------------------------------------------------------------------

memory 5 Gb

molecule phepyrOH_anion {
  symmetry C1
  -1 1 
  C      1.885   -1.036   -0.112
  C      2.878   -1.652   2.002
  C      0.807   -0.463   0.561
  C      1.800   -1.079   2.676
  C      4.717   -3.304   0.468
  C      4.441   -1.722   -1.322
  C      5.781   -3.839   -0.241
  C      5.517   -2.327   -1.951
  C      2.921   -1.631   0.608
  C      4.040   -2.226   -0.090
  C      0.764   -0.484   1.955
  N      6.200   -3.377   -1.441
  O      -0.227   0.042   2.574
  H      1.904   -1.011   -1.199
  H      3.678   -2.112   2.577
  H      0.011   -0.006   -0.025
  H      1.791   -1.108   3.764
  H      4.433   -3.726   1.427
  H      3.937   -0.882   -1.788
  H      6.341   -4.682   0.150
  H      5.869   -1.972   -2.914
  units Angstrom
}

dih_string = "1 9 10 5 210"
set optking fixed_dihedral = $dih_string

optimize('MP2/aug-cc-PVTZ')
--------------------------------------------------------------------------

  Memory set to   4.657 GiB by Python driver.
gradient() will perform analytic gradient computation.

*** tstart() called on gpu-1-14.local
*** at Sun Nov 12 03:53:32 2017

    SCF Algorithm Type (re)set to DF.

*** tstart() called on gpu-1-14.local
*** at Sun Nov 12 03:53:32 2017

   => Loading Basis Set <=

    Name: AUG-CC-PVTZ
    Role: ORBITAL
    Keyword: BASIS
    atoms 1-11  entry C          line   221 file /cbio/jclab/home/chayas/anaconda/envs/py35/share/psi4/basis/aug-cc-pvtz.gbs 
    atoms 12    entry N          line   267 file /cbio/jclab/home/chayas/anaconda/envs/py35/share/psi4/basis/aug-cc-pvtz.gbs 
    atoms 13    entry O          line   313 file /cbio/jclab/home/chayas/anaconda/envs/py35/share/psi4/basis/aug-cc-pvtz.gbs 
    atoms 14-21 entry H          line    34 file /cbio/jclab/home/chayas/anaconda/envs/py35/share/psi4/basis/aug-cc-pvtz.gbs 


         ---------------------------------------------------------
                                   SCF
            by Justin Turney, Rob Parrish, and Andy Simmonett
                              RHF Reference
                        8 Threads,   4768 MiB Core
         ---------------------------------------------------------

  ==> Geometry <==

    Molecular point group: c1
    Full point group: C1

    Geometry (in Angstrom), charge = -1, multiplicity = 1:

       Center              X                  Y                   Z               Mass       
    ------------   -----------------  -----------------  -----------------  -----------------
           C         -1.278478592824     0.724507103041    -0.568590610233    12.000000000000
           C         -0.285478592824     0.108507103041     1.545409389767    12.000000000000
           C         -2.356478592824     1.297507103041     0.104409389767    12.000000000000
           C         -1.363478592824     0.681507103041     2.219409389767    12.000000000000
           C          1.553521407176    -1.543492896959     0.011409389767    12.000000000000
           C          1.277521407176     0.038507103041    -1.778590610233    12.000000000000
           C          2.617521407176    -2.078492896959    -0.697590610233    12.000000000000
           C          2.353521407176    -0.566492896959    -2.407590610233    12.000000000000
           C         -0.242478592824     0.129507103041     0.151409389767    12.000000000000
           C          0.876521407176    -0.465492896959    -0.546590610233    12.000000000000
           C         -2.399478592824     1.276507103041     1.498409389767    12.000000000000
           N          3.036521407176    -1.616492896959    -1.897590610233    14.003074004780
           O         -3.390478592824     1.802507103041     2.117409389767    15.994914619560
           H         -1.259478592824     0.749507103041    -1.655590610233     1.007825032070
           H          0.514521407176    -0.351492896959     2.120409389767     1.007825032070
           H         -3.152478592824     1.754507103041    -0.481590610233     1.007825032070
           H         -1.372478592824     0.652507103041     3.307409389767     1.007825032070
           H          1.269521407176    -1.965492896959     0.970409389767     1.007825032070
           H          0.773521407176     0.878507103041    -2.244590610233     1.007825032070
           H          3.177521407176    -2.921492896959    -0.306590610233     1.007825032070
           H          2.705521407176    -0.211492896959    -3.370590610233     1.007825032070

  Running in c1 symmetry.

  Rotational constants: A =      0.09733  B =      0.01393  C =      0.01240 [cm^-1]
  Rotational constants: A =   2917.99694  B =    417.71412  C =    371.62230 [MHz]
  Nuclear repulsion =  686.984639488250650

  Charge       = -1
  Multiplicity = 1
  Electrons    = 90
  Nalpha       = 45
  Nbeta        = 45

  ==> Algorithm <==

  SCF Algorithm Type is DF.
  DIIS enabled.
  MOM disabled.
  Fractional occupation disabled.
  Guess Type is SAD.
  Energy threshold   = 1.00e-10
  Density threshold  = 1.00e-10
  Integral threshold = 0.00e+00

  ==> Primary Basis <==

  Basis Set: AUG-CC-PVTZ
    Blend: AUG-CC-PVTZ
    Number of shells: 254
    Number of basis function: 782
    Number of Cartesian functions: 915
    Spherical Harmonics?: true
    Max angular momentum: 3

   => Loading Basis Set <=

    Name: (AUG-CC-PVTZ AUX)
    Role: JKFIT
    Keyword: DF_BASIS_SCF
    atoms 1-11  entry C          line   161 file /cbio/jclab/home/chayas/anaconda/envs/py35/share/psi4/basis/aug-cc-pvtz-jkfit.gbs 
    atoms 12    entry N          line   223 file /cbio/jclab/home/chayas/anaconda/envs/py35/share/psi4/basis/aug-cc-pvtz-jkfit.gbs 
    atoms 13    entry O          line   285 file /cbio/jclab/home/chayas/anaconda/envs/py35/share/psi4/basis/aug-cc-pvtz-jkfit.gbs 
    atoms 14-21 entry H          line    69 file /cbio/jclab/home/chayas/anaconda/envs/py35/share/psi4/basis/aug-cc-pvtz-jkfit.gbs 

  ==> Pre-Iterations <==

   -------------------------------------------------------
    Irrep   Nso     Nmo     Nalpha   Nbeta   Ndocc  Nsocc
   -------------------------------------------------------
     A        782     782       0       0       0       0
   -------------------------------------------------------
    Total     782     782      45      45      45       0
   -------------------------------------------------------

  ==> Integral Setup <==

  ==> DFJK: Density-Fitted J/K Matrices <==

    J tasked:                  Yes
    K tasked:                  Yes
    wK tasked:                  No
    OpenMP threads:              8
    Integrals threads:           8
    Memory (MB):              3576
    Algorithm:                Disk
    Integral Cache:           NONE
    Schwarz Cutoff:          1E-12
    Fitting Condition:       1E-12

   => Auxiliary Basis Set <=

  Basis Set: (AUG-CC-PVTZ AUX)
    Blend: AUG-CC-PVTZ-JKFIT
    Number of shells: 502
    Number of basis function: 1720
    Number of Cartesian functions: 2143
    Spherical Harmonics?: true
    Max angular momentum: 4

  Minimum eigenvalue in the overlap matrix is 6.7756930179E-07.
  Using Symmetric Orthogonalization.

  SCF Guess: Superposition of Atomic Densities via on-the-fly atomic UHF.

  ==> Iterations <==

                           Total Energy        Delta E     RMS |[F,P]|

   @DF-RHF iter   0:  -564.20179036290961   -5.64202e+02   2.48408e-02 
   @DF-RHF iter   1:  -549.49074032930764    1.47111e+01   3.46544e-03 
   @DF-RHF iter   2:  -549.85650087587942   -3.65761e-01   3.23866e-03 DIIS
   @DF-RHF iter   3:  -550.66147265066422   -8.04972e-01   6.70853e-04 DIIS
   @DF-RHF iter   4:  -550.70497196556698   -4.34993e-02   4.21100e-04 DIIS
   @DF-RHF iter   5:  -550.71458030150779   -9.60834e-03   7.19644e-05 DIIS
   @DF-RHF iter   6:  -550.71562012435993   -1.03982e-03   3.31951e-05 DIIS
   @DF-RHF iter   7:  -550.71578658481155   -1.66460e-04   1.38515e-05 DIIS
   @DF-RHF iter   8:  -550.71582061034212   -3.40255e-05   4.92820e-06 DIIS
   @DF-RHF iter   9:  -550.71582511458678   -4.50424e-06   2.04480e-06 DIIS
   @DF-RHF iter  10:  -550.71582596739609   -8.52809e-07   9.83713e-07 DIIS
   @DF-RHF iter  11:  -550.71582614688998   -1.79494e-07   4.14309e-07 DIIS
   @DF-RHF iter  12:  -550.71582619069864   -4.38087e-08   1.49380e-07 DIIS
   @DF-RHF iter  13:  -550.71582620002073   -9.32209e-09   8.59654e-08 DIIS
   @DF-RHF iter  14:  -550.71582620163963   -1.61890e-09   2.82521e-08 DIIS
   @DF-RHF iter  15:  -550.71582620182767   -1.88038e-10   1.36100e-08 DIIS
   @DF-RHF iter  16:  -550.71582620185859   -3.09228e-11   5.23747e-09 DIIS
   @DF-RHF iter  17:  -550.71582620186086   -2.27374e-12   1.84329e-09 DIIS
   @DF-RHF iter  18:  -550.71582620185700    3.86535e-12   1.04805e-09 DIIS
   @DF-RHF iter  19:  -550.71582620186314   -6.13909e-12   4.38338e-10 DIIS
   @DF-RHF iter  20:  -550.71582620188326   -2.01226e-11   1.75225e-10 DIIS
   @DF-RHF iter  21:  -550.71582620187428    8.98126e-12   8.48078e-11 DIIS

  ==> Post-Iterations <==

    Orbital Energies (a.u.)
    -----------------------

    Doubly Occupied:                                                      

       1A    -20.298545     2A    -15.447719     3A    -11.166641  
       4A    -11.166557     5A    -11.142868     6A    -11.117458  
       7A    -11.117337     8A    -11.116567     9A    -11.100687  
      10A    -11.100649    11A    -11.075405    12A    -11.061802  
      13A    -11.061769    14A     -1.137011    15A     -1.129923  
      16A     -1.019720    17A     -0.957169    18A     -0.922642  
      19A     -0.868648    20A     -0.837899    21A     -0.747034  
      22A     -0.732213    23A     -0.679913    24A     -0.648356  
      25A     -0.597129    26A     -0.549907    27A     -0.543728  
      28A     -0.500870    29A     -0.491516    30A     -0.482873  
      31A     -0.482356    32A     -0.442882    33A     -0.429466  
      34A     -0.408954    35A     -0.408072    36A     -0.380236  
      37A     -0.356593    38A     -0.351438    39A     -0.310540  
      40A     -0.306755    41A     -0.244965    42A     -0.241841  
      43A     -0.215653    44A     -0.199100    45A     -0.106079  

    Virtual:                                                              

      46A      0.098993    47A      0.099690    48A      0.116720  
      49A      0.116764    50A      0.125553    51A      0.128344  
      52A      0.133454    53A      0.134208    54A      0.163551  
      55A      0.166058    56A      0.177354    57A      0.184029  
      58A      0.186181    59A      0.189218    60A      0.189498  
      61A      0.197764    62A      0.199158    63A      0.206665  
      64A      0.207932    65A      0.212314    66A      0.213494  
      67A      0.213899    68A      0.221004    69A      0.226308  
      70A      0.231491    71A      0.232599    72A      0.237554  
      73A      0.238803    74A      0.239971    75A      0.247558  
      76A      0.251001    77A      0.252003    78A      0.260055  
      79A      0.263901    80A      0.267563    81A      0.269588  
      82A      0.277334    83A      0.281840    84A      0.291614  
      85A      0.293071    86A      0.300700    87A      0.315799  
      88A      0.317006    89A      0.318853    90A      0.323867  
      91A      0.324228    92A      0.327374    93A      0.331962  
      94A      0.334840    95A      0.337298    96A      0.344226  
      97A      0.347805    98A      0.351674    99A      0.366154  
     100A      0.366633   101A      0.375024   102A      0.376782  
     103A      0.381213   104A      0.384115   105A      0.391001  
     106A      0.391185   107A      0.398068   108A      0.400508  
     109A      0.405432   110A      0.413719   111A      0.417527  
     112A      0.422237   113A      0.424034   114A      0.428663  
     115A      0.430651   116A      0.432642   117A      0.441894  
     118A      0.442080   119A      0.451078   120A      0.463051  
     121A      0.463321   122A      0.471131   123A      0.474770  
     124A      0.479773   125A      0.483146   126A      0.489299  
     127A      0.489725   128A      0.506741   129A      0.510492  
     130A      0.515199   131A      0.516212   132A      0.520326  
     133A      0.533559   134A      0.538565   135A      0.545320  
     136A      0.546070   137A      0.555404   138A      0.560017  
     139A      0.560125   140A      0.562183   141A      0.566703  
     142A      0.574852   143A      0.575026   144A      0.578804  
     145A      0.581581   146A      0.583210   147A      0.589893  
     148A      0.590578   149A      0.598071   150A      0.599423  
     151A      0.602360   152A      0.603913   153A      0.609583  
     154A      0.615097   155A      0.615712   156A      0.625355  
     157A      0.626192   158A      0.629969   159A      0.630345  
     160A      0.636333   161A      0.637523   162A      0.644755  
     163A      0.645947   164A      0.650253   165A      0.654740  
     166A      0.658549   167A      0.664371   168A      0.668261  
     169A      0.672618   170A      0.672952   171A      0.682743  
     172A      0.690623   173A      0.699347   174A      0.701806  
     175A      0.702517   176A      0.704741   177A      0.719673  
     178A      0.720473   179A      0.730446   180A      0.735473  
     181A      0.742787   182A      0.746923   183A      0.750402  
     184A      0.760534   185A      0.766961   186A      0.777900  
     187A      0.787650   188A      0.796052   189A      0.802510  
     190A      0.805621   191A      0.808985   192A      0.809550  
     193A      0.813196   194A      0.831698   195A      0.832255  
     196A      0.838653   197A      0.839773   198A      0.843881  
     199A      0.844196   200A      0.859430   201A      0.860304  
     202A      0.863655   203A      0.868334   204A      0.869712  
     205A      0.877158   206A      0.885798   207A      0.894402  
     208A      0.901332   209A      0.906661   210A      0.915484  
     211A      0.920715   212A      0.921420   213A      0.939408  
     214A      0.949942   215A      0.955277   216A      0.961902  
     217A      0.963254   218A      0.975917   219A      0.979424  
     220A      0.984081   221A      0.989050   222A      0.991556  
     223A      0.998459   224A      1.001097   225A      1.001903  
     226A      1.010048   227A      1.013162   228A      1.020141  
     229A      1.020496   230A      1.022475   231A      1.031682  
     232A      1.035162   233A      1.042806   234A      1.049356  
     235A      1.055543   236A      1.059028   237A      1.068108  
     238A      1.068837   239A      1.072750   240A      1.074247  
     241A      1.081484   242A      1.090430   243A      1.093221  
     244A      1.097156   245A      1.102709   246A      1.105069  
     247A      1.112186   248A      1.112242   249A      1.121591  
     250A      1.122536   251A      1.127364   252A      1.133700  
     253A      1.138663   254A      1.139006   255A      1.145662  
     256A      1.146666   257A      1.147786   258A      1.155325  
     259A      1.161628   260A      1.170520   261A      1.173064  
     262A      1.177815   263A      1.179048   264A      1.182764  
     265A      1.186197   266A      1.194038   267A      1.199219  
     268A      1.205043   269A      1.208847   270A      1.213358  
     271A      1.219746   272A      1.222725   273A      1.230558  
     274A      1.236871   275A      1.239809   276A      1.242012  
     277A      1.255956   278A      1.258620   279A      1.263792  
     280A      1.267972   281A      1.271836   282A      1.281130  
     283A      1.292332   284A      1.296421   285A      1.297716  
     286A      1.299669   287A      1.304257   288A      1.306530  
     289A      1.315460   290A      1.318240   291A      1.321101  
     292A      1.321342   293A      1.331912   294A      1.335471  
     295A      1.340592   296A      1.345450   297A      1.349189  
     298A      1.351890   299A      1.360167   300A      1.361236  
     301A      1.367143   302A      1.380756   303A      1.384817  
     304A      1.389032   305A      1.394573   306A      1.403403  
     307A      1.406031   308A      1.419585   309A      1.422825  
     310A      1.437622   311A      1.439251   312A      1.445078  
     313A      1.461721   314A      1.462060   315A      1.475055  
     316A      1.478723   317A      1.486104   318A      1.487204  
     319A      1.489289   320A      1.502467   321A      1.506696  
     322A      1.519065   323A      1.532317   324A      1.537474  
     325A      1.559263   326A      1.561936   327A      1.572000  
     328A      1.577860   329A      1.579056   330A      1.586266  
     331A      1.596103   332A      1.605579   333A      1.616683  
     334A      1.630673   335A      1.631428   336A      1.642988  
     337A      1.644164   338A      1.654724   339A      1.663818  
     340A      1.669831   341A      1.670571   342A      1.678774  
     343A      1.705488   344A      1.707869   345A      1.710177  
     346A      1.719001   347A      1.736286   348A      1.738214  
     349A      1.749094   350A      1.763961   351A      1.766936  
     352A      1.770483   353A      1.782892   354A      1.795297  
     355A      1.796711   356A      1.811536   357A      1.818416  
     358A      1.825897   359A      1.830004   360A      1.830176  
     361A      1.839695   362A      1.848874   363A      1.857007  
     364A      1.858117   365A      1.861721   366A      1.877832  
     367A      1.879449   368A      1.892674   369A      1.910778  
     370A      1.913775   371A      1.922385   372A      1.936490  
     373A      1.937264   374A      1.947007   375A      1.949122  
     376A      1.962390   377A      1.971112   378A      1.979799  
     379A      1.985644   380A      1.989443   381A      1.997461  
     382A      2.010667   383A      2.026789   384A      2.036820  
     385A      2.039276   386A      2.046548   387A      2.052440  
     388A      2.058096   389A      2.073304   390A      2.084754  
     391A      2.095207   392A      2.102398   393A      2.103392  
     394A      2.105509   395A      2.115617   396A      2.120539  
     397A      2.121902   398A      2.137458   399A      2.146473  
     400A      2.153852   401A      2.158903   402A      2.166943  
     403A      2.167413   404A      2.176142   405A      2.181557  
     406A      2.184796   407A      2.200264   408A      2.202313  
     409A      2.213629   410A      2.220184   411A      2.234651  
     412A      2.237297   413A      2.237453   414A      2.247481  
     415A      2.257230   416A      2.258843   417A      2.271744  
     418A      2.275541   419A      2.296722   420A      2.304423  
     421A      2.308176   422A      2.323252   423A      2.324475  
     424A      2.329935   425A      2.332076   426A      2.352606  
     427A      2.360119   428A      2.365893   429A      2.376539  
     430A      2.383586   431A      2.406900   432A      2.416159  
     433A      2.433776   434A      2.434642   435A      2.439711  
     436A      2.458823   437A      2.465624   438A      2.476701  
     439A      2.495158   440A      2.495697   441A      2.503204  
     442A      2.509957   443A      2.518229   444A      2.520441  
     445A      2.533333   446A      2.548442   447A      2.550046  
     448A      2.558773   449A      2.563080   450A      2.589971  
     451A      2.598090   452A      2.618621   453A      2.622403  
     454A      2.628325   455A      2.652138   456A      2.659105  
     457A      2.679094   458A      2.682046   459A      2.685695  
     460A      2.691720   461A      2.708543   462A      2.711679  
     463A      2.724634   464A      2.726497   465A      2.759635  
     466A      2.762721   467A      2.774659   468A      2.791412  
     469A      2.827114   470A      2.835455   471A      2.838924  
     472A      2.872795   473A      2.896543   474A      2.905335  
     475A      2.917511   476A      2.927227   477A      2.929215  
     478A      2.945231   479A      2.975148   480A      2.980611  
     481A      3.001277   482A      3.007877   483A      3.039844  
     484A      3.055148   485A      3.077576   486A      3.105285  
     487A      3.114782   488A      3.135144   489A      3.151925  
     490A      3.172173   491A      3.186828   492A      3.204386  
     493A      3.250206   494A      3.258829   495A      3.271767  
     496A      3.309317   497A      3.319998   498A      3.324568  
     499A      3.350285   500A      3.355385   501A      3.372103  
     502A      3.390669   503A      3.393951   504A      3.429824  
     505A      3.446019   506A      3.449570   507A      3.468149  
     508A      3.480557   509A      3.490094   510A      3.493581  
     511A      3.502107   512A      3.512520   513A      3.526095  
     514A      3.537611   515A      3.542481   516A      3.548046  
     517A      3.558351   518A      3.561293   519A      3.584141  
     520A      3.591465   521A      3.593837   522A      3.617841  
     523A      3.636116   524A      3.650978   525A      3.662134  
     526A      3.667544   527A      3.667731   528A      3.669284  
     529A      3.675915   530A      3.676073   531A      3.691433  
     532A      3.696305   533A      3.696833   534A      3.709709  
     535A      3.723618   536A      3.739924   537A      3.740587  
     538A      3.746599   539A      3.759336   540A      3.760477  
     541A      3.782595   542A      3.787013   543A      3.798632  
     544A      3.809982   545A      3.820817   546A      3.825963  
     547A      3.834673   548A      3.835315   549A      3.861481  
     550A      3.865121   551A      3.893129   552A      3.903218  
     553A      3.910282   554A      3.917085   555A      3.917477  
     556A      3.928580   557A      3.942486   558A      3.947709  
     559A      3.948278   560A      3.959183   561A      3.963047  
     562A      3.969959   563A      3.992296   564A      4.004080  
     565A      4.014189   566A      4.031356   567A      4.033643  
     568A      4.035387   569A      4.040727   570A      4.054952  
     571A      4.066523   572A      4.071156   573A      4.079143  
     574A      4.089628   575A      4.094839   576A      4.107618  
     577A      4.126311   578A      4.131922   579A      4.139807  
     580A      4.151059   581A      4.151542   582A      4.159650  
     583A      4.160202   584A      4.169798   585A      4.176650  
     586A      4.176936   587A      4.195549   588A      4.210012  
     589A      4.222143   590A      4.231782   591A      4.245056  
     592A      4.245264   593A      4.254339   594A      4.270941  
     595A      4.273125   596A      4.288805   597A      4.298222  
     598A      4.306752   599A      4.317491   600A      4.338035  
     601A      4.351517   602A      4.357298   603A      4.364977  
     604A      4.369973   605A      4.380015   606A      4.383095  
     607A      4.391530   608A      4.409938   609A      4.426971  
     610A      4.433591   611A      4.442296   612A      4.445200  
     613A      4.465294   614A      4.465764   615A      4.479447  
     616A      4.486045   617A      4.494008   618A      4.502951  
     619A      4.515539   620A      4.517292   621A      4.530391  
     622A      4.532380   623A      4.542170   624A      4.545771  
     625A      4.561309   626A      4.574248   627A      4.575402  
     628A      4.586935   629A      4.597319   630A      4.601984  
     631A      4.616125   632A      4.631143   633A      4.638153  
     634A      4.652250   635A      4.654963   636A      4.669534  
     637A      4.687951   638A      4.688359   639A      4.708865  
     640A      4.738914   641A      4.762544   642A      4.766098  
     643A      4.769455   644A      4.779823   645A      4.793513  
     646A      4.828954   647A      4.833945   648A      4.840450  
     649A      4.863380   650A      4.884300   651A      4.895767  
     652A      4.898116   653A      4.912337   654A      4.936417  
     655A      4.941156   656A      4.970676   657A      4.984543  
     658A      4.999846   659A      5.012383   660A      5.020909  
     661A      5.035781   662A      5.046310   663A      5.062981  
     664A      5.067784   665A      5.081234   666A      5.098738  
     667A      5.104298   668A      5.121723   669A      5.137350  
     670A      5.160725   671A      5.170257   672A      5.178216  
     673A      5.183341   674A      5.202347   675A      5.212766  
     676A      5.223580   677A      5.238540   678A      5.247626  
     679A      5.266623   680A      5.267963   681A      5.275884  
     682A      5.284377   683A      5.285870   684A      5.293061  
     685A      5.307408   686A      5.316003   687A      5.327099  
     688A      5.336068   689A      5.365776   690A      5.381984  
     691A      5.389337   692A      5.413393   693A      5.440233  
     694A      5.452689   695A      5.463642   696A      5.472744  
     697A      5.485177   698A      5.495030   699A      5.515104  
     700A      5.552509   701A      5.553647   702A      5.563749  
     703A      5.568192   704A      5.605307   705A      5.607576  
     706A      5.628952   707A      5.652213   708A      5.672034  
     709A      5.682432   710A      5.703803   711A      5.730466  
     712A      5.755290   713A      5.819857   714A      5.827282  
     715A      5.830752   716A      5.874742   717A      5.884335  
     718A      5.911114   719A      5.915018   720A      5.946379  
     721A      5.952608   722A      5.969808   723A      5.986951  
     724A      5.995444   725A      6.024618   726A      6.072203  
     727A      6.108272   728A      6.196814   729A      6.257990  
     730A      6.259388   731A      6.300923   732A      6.306205  
     733A      6.346974   734A      6.385932   735A      6.418560  
     736A      6.438018   737A      6.522111   738A      6.569382  
     739A      6.594079   740A      6.604282   741A      6.622185  
     742A      6.650924   743A      6.743803   744A      6.747855  
     745A      6.821740   746A      6.835809   747A      6.850517  
     748A      6.867723   749A      6.899165   750A      6.987592  
     751A      6.997139   752A      7.051098   753A      7.058961  
     754A      7.073347   755A      7.115708   756A      7.188303  
     757A      7.209120   758A      7.247250   759A      7.311642  
     760A      7.359372   761A      7.363557   762A      7.545017  
     763A      7.615946   764A      7.644575   765A      7.935015  
     766A      7.945099   767A      8.027073   768A      8.147346  
     769A      8.221348   770A     15.759940   771A     16.107188  
     772A     16.518083   773A     16.869427   774A     17.086596  
     775A     18.539036   776A     18.982923   777A     19.295846  
     778A     19.910795   779A     20.148996   780A     20.321623  
     781A     20.704112   782A     21.838857  

    Final Occupation by Irrep:
              A 
    DOCC [    45 ]

  Energy converged.

  @DF-RHF Final Energy:  -550.71582620187428

   => Energetics <=

    Nuclear Repulsion Energy =            686.9846394882506502
    One-Electron Energy =               -2123.9899620029764264
    Two-Electron Energy =                 886.2894963128514974
    DFT Exchange-Correlation Energy =       0.0000000000000000
    Empirical Dispersion Energy =           0.0000000000000000
    PCM Polarization Energy =               0.0000000000000000
    EFP Energy =                            0.0000000000000000
    Total Energy =                       -550.7158262018742789



Properties will be evaluated at   0.000000,   0.000000,   0.000000 Bohr

Properties computed using the SCF density matrix

  Nuclear Dipole Moment: (a.u.)
     X:     2.4650      Y:    -1.3131      Z:    -1.5412

  Electronic Dipole Moment: (a.u.)
     X:     0.2534      Y:    -0.1320      Z:    -0.1566

  Dipole Moment: (a.u.)
     X:     2.7184      Y:    -1.4451      Z:    -1.6978     Total:     3.5157

  Dipole Moment: (Debye)
     X:     6.9095      Y:    -3.6731      Z:    -4.3153     Total:     8.9361


*** tstop() called on gpu-1-14.local at Sun Nov 12 04:00:56 2017
Module time:
	user time   =    1100.17 seconds =      18.34 minutes
	system time =      50.47 seconds =       0.84 minutes
	total time  =        444 seconds =       7.40 minutes
Total time:
	user time   =    1100.18 seconds =      18.34 minutes
	system time =      50.47 seconds =       0.84 minutes
	total time  =        444 seconds =       7.40 minutes

  //>>>>>>>>>>>>>>>>>>>>>>>>>>>>>>>>>>>//
  //               DFMP2               //
  //<<<<<<<<<<<<<<<<<<<<<<<<<<<<<<<<<<<//

   => Loading Basis Set <=

    Name: (AUG-CC-PVTZ AUX)
    Role: RIFIT
    Keyword: DF_BASIS_MP2
    atoms 1-11  entry C          line   147 file /cbio/jclab/home/chayas/anaconda/envs/py35/share/psi4/basis/aug-cc-pvtz-ri.gbs 
    atoms 12    entry N          line   205 file /cbio/jclab/home/chayas/anaconda/envs/py35/share/psi4/basis/aug-cc-pvtz-ri.gbs 
    atoms 13    entry O          line   263 file /cbio/jclab/home/chayas/anaconda/envs/py35/share/psi4/basis/aug-cc-pvtz-ri.gbs 
    atoms 14-21 entry H          line    29 file /cbio/jclab/home/chayas/anaconda/envs/py35/share/psi4/basis/aug-cc-pvtz-ri.gbs 

	 --------------------------------------------------------
	                          DF-MP2                         
	      2nd-Order Density-Fitted Moller-Plesset Theory     
	              RMP2 Wavefunction,   8 Threads             
	                                                         
	        Rob Parrish, Justin Turney, Andy Simmonett,      
	           Ed Hohenstein, and C. David Sherrill          
	 --------------------------------------------------------

   => Auxiliary Basis Set <=

  Basis Set: (AUG-CC-PVTZ AUX)
    Blend: AUG-CC-PVTZ-RI
    Number of shells: 476
    Number of basis function: 1746
    Number of Cartesian functions: 2208
    Spherical Harmonics?: true
    Max angular momentum: 4

	 --------------------------------------------------------
	                 NBF =   782, NAUX =  1746
	 --------------------------------------------------------
	   CLASS    FOCC     OCC    AOCC    AVIR     VIR    FVIR
	   PAIRS       0      45      45     737     737       0
	 --------------------------------------------------------


         ------------------------------------------------------------
                                     CPHF                           
                                  Rob Parrish                       
         ------------------------------------------------------------

  ==> Geometry <==

    Molecular point group: c1
    Full point group: C1

    Geometry (in Angstrom), charge = -1, multiplicity = 1:

       Center              X                  Y                   Z               Mass       
    ------------   -----------------  -----------------  -----------------  -----------------
           C         -1.278478592824     0.724507103041    -0.568590610233    12.000000000000
           C         -0.285478592824     0.108507103041     1.545409389767    12.000000000000
           C         -2.356478592824     1.297507103041     0.104409389767    12.000000000000
           C         -1.363478592824     0.681507103041     2.219409389767    12.000000000000
           C          1.553521407176    -1.543492896959     0.011409389767    12.000000000000
           C          1.277521407176     0.038507103041    -1.778590610233    12.000000000000
           C          2.617521407176    -2.078492896959    -0.697590610233    12.000000000000
           C          2.353521407176    -0.566492896959    -2.407590610233    12.000000000000
           C         -0.242478592824     0.129507103041     0.151409389767    12.000000000000
           C          0.876521407176    -0.465492896959    -0.546590610233    12.000000000000
           C         -2.399478592824     1.276507103041     1.498409389767    12.000000000000
           N          3.036521407176    -1.616492896959    -1.897590610233    14.003074004780
           O         -3.390478592824     1.802507103041     2.117409389767    15.994914619560
           H         -1.259478592824     0.749507103041    -1.655590610233     1.007825032070
           H          0.514521407176    -0.351492896959     2.120409389767     1.007825032070
           H         -3.152478592824     1.754507103041    -0.481590610233     1.007825032070
           H         -1.372478592824     0.652507103041     3.307409389767     1.007825032070
           H          1.269521407176    -1.965492896959     0.970409389767     1.007825032070
           H          0.773521407176     0.878507103041    -2.244590610233     1.007825032070
           H          3.177521407176    -2.921492896959    -0.306590610233     1.007825032070
           H          2.705521407176    -0.211492896959    -3.370590610233     1.007825032070

  Nuclear repulsion =  686.984639488250650
  Reference energy  = -550.715826201874279

  ==> Basis Set <==

  Basis Set: AUG-CC-PVTZ
    Blend: AUG-CC-PVTZ
    Number of shells: 254
    Number of basis function: 782
    Number of Cartesian functions: 915
    Spherical Harmonics?: true
    Max angular momentum: 3

  ==> CGRSolver (by Rob Parrish) <==

   Number of roots    =         1
   Preconditioning    =    JACOBI
   Convergence cutoff =     1E-06
   Maximum iterations =       100

  ==> CPHFRHamiltonian (by Rob Parrish) <== 

  ==> DFJK: Density-Fitted J/K Matrices <==

    J tasked:                  Yes
    K tasked:                  Yes
    wK tasked:                  No
    OpenMP threads:              8
    Integrals threads:           8
    Memory (MB):              3576
    Algorithm:                Disk
    Integral Cache:           NONE
    Schwarz Cutoff:          1E-12
    Fitting Condition:       1E-12

   => Auxiliary Basis Set <=

  Basis Set: (AUG-CC-PVTZ AUX)
    Blend: AUG-CC-PVTZ-JKFIT
    Number of shells: 502
    Number of basis function: 1720
    Number of Cartesian functions: 2143
    Spherical Harmonics?: true
    Max angular momentum: 4

  ==> CPHF Iterations <==

  => Iterations <=

             Iter  Converged  Remaining    Residual
  CGR           1          0          1   1.392E-01
  CGR           2          0          1   5.443E-02
  CGR           3          0          1   3.207E-02
  CGR           4          0          1   1.142E-02
  CGR           5          0          1   5.502E-03
  CGR           6          0          1   3.015E-03
  CGR           7          0          1   8.802E-04
  CGR           8          0          1   2.861E-04
  CGR           9          0          1   1.108E-04
  CGR          10          0          1   3.320E-05
  CGR          11          0          1   1.268E-05
  CGR          12          0          1   5.013E-06
  CGR          13          0          1   2.253E-06
  CGR          14          1          0   9.557E-07

    CGRSolver converged.

  ==> DFCorrGrad: Density-Fitted Correlated Gradients <==

    OpenMP threads:              8
    Integrals threads:           8
    Memory (MB):              3576
    Schwarz Cutoff:          0E+00
    Fitting Condition:       1E-12

   => Auxiliary Basis Set <=

  Basis Set: (AUG-CC-PVTZ AUX)
    Blend: AUG-CC-PVTZ-JKFIT
    Number of shells: 502
    Number of basis function: 1720
    Number of Cartesian functions: 2143
    Spherical Harmonics?: true
    Max angular momentum: 4

	-----------------------------------------------------------
	 ==================> DF-MP2 Energies <==================== 
	-----------------------------------------------------------
	 Reference Energy          =    -550.7158262018742789 [Eh]
	 Singles Energy            =      -0.0000000000000004 [Eh]
	 Same-Spin Energy          =      -0.6140537858567849 [Eh]
	 Opposite-Spin Energy      =      -1.8386777588902028 [Eh]
	 Correlation Energy        =      -2.4527315447469884 [Eh]
	 Total Energy              =    -553.1685577466212180 [Eh]
	-----------------------------------------------------------
	 ================> DF-SCS-MP2 Energies <================== 
	-----------------------------------------------------------
	 SCS Same-Spin Scale       =       0.3333333333333333 [-]
	 SCS Opposite-Spin Scale   =       1.2000000000000000 [-]
	 SCS Same-Spin Energy      =      -0.2046845952855950 [Eh]
	 SCS Opposite-Spin Energy  =      -2.2064133106682431 [Eh]
	 SCS Correlation Energy    =      -2.4110979059538384 [Eh]
	 SCS Total Energy          =    -553.1269241078281311 [Eh]
	-----------------------------------------------------------


  -Total Gradient:
     Atom            X                  Y                   Z
    ------   -----------------  -----------------  -----------------
       1        0.015166052370    -0.013071251348    -0.007616847790
       2        0.017344962009    -0.004198958495    -0.012718911223
       3       -0.023509370102     0.011506891683     0.039223582688
       4       -0.041265286745     0.022777441962     0.002105562364
       5       -0.016449860992     0.006015138636     0.008251145855
       6       -0.012994262648     0.010016758809     0.009576796580
       7       -0.003848333176    -0.004112022838     0.008071488458
       8       -0.004344442381     0.008613767539    -0.002632959181
       9       -0.014663015898     0.007744232874     0.009075553912
      10        0.023410099789    -0.012479844872    -0.014382663051
      11        0.049897973991    -0.026342256615    -0.031685117016
      12        0.006931691493    -0.003735872447    -0.004472213479
      13       -0.000353588129     0.000121893455     0.000299310639
      14       -0.000549699291     0.002356882644    -0.003948107976
      15        0.001312094352    -0.002730116614     0.003349308833
      16       -0.001563021446     0.001919148101    -0.008926632927
      17        0.005118392162    -0.003794896239     0.006360372086
      18        0.000848829992    -0.002322143286     0.005679776442
      19       -0.002470953498     0.002855644397    -0.004273593997
      20        0.001319671818    -0.000930398373     0.000212438917
      21        0.000662066327    -0.000210038974    -0.001548290128


*** tstop() called on gpu-1-14.local at Sun Nov 12 04:31:19 2017
Module time:
	user time   =    4918.37 seconds =      81.97 minutes
	system time =     103.14 seconds =       1.72 minutes
	total time  =       2267 seconds =      37.78 minutes
Total time:
	user time   =    4918.38 seconds =      81.97 minutes
	system time =     103.14 seconds =       1.72 minutes
	total time  =       2267 seconds =      37.78 minutes

			-----------------------------------------
			 OPTKING 2.0: for geometry optimizations 
			  - R.A. King,  Bethel University        
			-----------------------------------------

	Internal coordinates to be generated automatically.
	Detected frag 1 with atoms:  1 2 3 4 5 6 7 8 9 10 11 12 13 14 15 16 17 18 19 20
	 21
	---Fragment 1 Bond Connectivity---
	 1 : 3 9 14
	 2 : 4 9 15
	 3 : 1 11 16
	 4 : 2 11 17
	 5 : 7 10 18
	 6 : 8 10 19
	 7 : 5 12 20
	 8 : 6 12 21
	 9 : 1 2 10
	 10 : 5 6 9
	 11 : 3 4 13
	 12 : 7 8
	 13 : 11
	 14 : 1
	 15 : 2
	 16 : 3
	 17 : 4
	 18 : 5
	 19 : 6
	 20 : 7
	 21 : 8

	Assuming in current code that numbering for constraints corresponds to unified fragment.
	Fixed dihedral atom list: 
	     1     9    10     5
	---Fragment 1 Geometry and Gradient---
	 C          -2.4159744072        1.3691200061       -1.0744805351
	 C          -0.5394763572        0.2050487082        2.9204005098
	 C          -4.4530991784        2.4519330802        0.1973051524
	 C          -2.5766011285        1.2878617824        4.1940759234
	 C           2.9357300011       -2.9167788633        0.0215606220
	 C           2.4141655885        0.0727678789       -3.3610491559
	 C           4.9463986065       -3.9277823444       -1.3182552062
	 C           4.4475109074       -1.0705164315       -4.5496868934
	 C          -0.4582181335        0.2447329570        0.2861222806
	 C           1.6563854092       -0.8796540921       -1.0329065601
	 C          -4.5343574022        2.4122488314        2.8315833816
	 N           5.7381938562       -3.0547288710       -3.5859265657
	 O          -6.4070759998        3.4062447773        4.0013238579
	 H          -2.3800696107        1.4163631594       -3.1286128415
	 H           0.9723045491       -0.6642253129        4.0069930363
	 H          -5.9573211802        3.3155379230       -0.9100743615
	 H          -2.5936086637        1.2330597245        6.2500979560
	 H           2.3990477794       -3.7142432914        1.8338079834
	 H           1.4617436175        1.6601378305       -4.2416615338
	 H           6.0046452409       -5.5208214744       -0.5793722883
	 H           5.1126945062       -0.3996636543       -6.3694931594
	             0.0151660524       -0.0130712513       -0.0076168478
	             0.0173449620       -0.0041989585       -0.0127189112
	            -0.0235093701        0.0115068917        0.0392235827
	            -0.0412652867        0.0227774420        0.0021055624
	            -0.0164498610        0.0060151386        0.0082511459
	            -0.0129942626        0.0100167588        0.0095767966
	            -0.0038483332       -0.0041120228        0.0080714885
	            -0.0043444424        0.0086137675       -0.0026329592
	            -0.0146630159        0.0077442329        0.0090755539
	             0.0234100998       -0.0124798449       -0.0143826631
	             0.0498979740       -0.0263422566       -0.0316851170
	             0.0069316915       -0.0037358724       -0.0044722135
	            -0.0003535881        0.0001218935        0.0002993106
	            -0.0005496993        0.0023568826       -0.0039481080
	             0.0013120944       -0.0027301166        0.0033493088
	            -0.0015630214        0.0019191481       -0.0089266329
	             0.0051183922       -0.0037948962        0.0063603721
	             0.0008488300       -0.0023221433        0.0056797764
	            -0.0024709535        0.0028556444       -0.0042735940
	             0.0013196718       -0.0009303984        0.0002124389
	             0.0006620663       -0.0002100390       -0.0015482901

	Previous optimization step data not found.  Starting new optimization.

	---Fragment 1 Intrafragment Coordinates---
	 - Coordinate -           - BOHR/RAD -       - ANG/DEG -
	 R(1,3)           =         2.634350	       1.394038
	 R(1,9)           =         2.635962	       1.394891
	 R(1,14)          =         2.054989	       1.087453
	 R(2,4)           =         2.635263	       1.394521
	 R(2,9)           =         2.635830	       1.394821
	 R(2,15)          =         2.054702	       1.087302
	 R(3,11)          =         2.635830	       1.394821
	 R(3,16)          =         2.057860	       1.088972
	 R(4,11)          =         2.636938	       1.395407
	 R(4,17)          =         2.056823	       1.088424
	 R(5,7)           =         2.619165	       1.386002
	 R(5,10)          =         2.626500	       1.389884
	 R(5,18)          =         2.051394	       1.085551
	 R(6,8)           =         2.618101	       1.385439
	 R(6,10)          =         2.627087	       1.390195
	 R(6,19)          =         2.049958	       1.084791
	 R(7,12)          =         2.555679	       1.352407
	 R(7,20)          =         2.050270	       1.084956
	 R(8,12)          =         2.555738	       1.352438
	 R(8,21)          =         2.050416	       1.085034
	 R(9,10)          =         2.734160	       1.446855
	 R(11,13)         =         2.421445	       1.281373
	 B(1,3,11)        =         2.094553	     120.009056
	 B(1,3,16)        =         2.069123	     118.552025
	 B(1,9,2)         =         2.093692	     119.959722
	 B(1,9,10)        =         2.095337	     120.053983
	 B(2,4,11)        =         2.093699	     119.960108
	 B(2,4,17)        =         2.069829	     118.592446
	 B(2,9,10)        =         2.094156	     119.986294
	 B(3,1,9)         =         2.094940	     120.031219
	 B(3,1,14)        =         2.079025	     119.119344
	 B(3,11,4)        =         2.094306	     119.994870
	 B(3,11,13)       =         2.094918	     120.029973
	 B(4,2,9)         =         2.095181	     120.045019
	 B(4,2,15)        =         2.079455	     119.143974
	 B(4,11,13)       =         2.093961	     119.975136
	 B(5,7,12)        =         2.165028	     124.046946
	 B(5,7,20)        =         2.108080	     120.784063
	 B(5,10,6)        =         2.090328	     119.766977
	 B(5,10,9)        =         2.096698	     120.131971
	 B(6,8,12)        =         2.165236	     124.058908
	 B(6,8,21)        =         2.108340	     120.798956
	 B(6,10,9)        =         2.096158	     120.101025
	 B(7,5,10)        =         2.057758	     117.900823
	 B(7,5,18)        =         2.097505	     120.178202
	 B(7,12,8)        =         2.030138	     116.318345
	 B(8,6,10)        =         2.057882	     117.907980
	 B(8,6,19)        =         2.098960	     120.261557
	 B(9,1,14)        =         2.109221	     120.849435
	 B(9,2,15)        =         2.108550	     120.811005
	 B(10,5,18)       =         2.127921	     121.920920
	 B(10,6,19)       =         2.126343	     121.830461
	 B(11,3,16)       =         2.119509	     121.438903
	 B(11,4,17)       =         2.119657	     121.447411
	 B(12,7,20)       =         2.010076	     115.168888
	 B(12,8,21)       =         2.009609	     115.142106
	 D(1,3,11,4)      =        -0.000325	      -0.018609
	 D(1,3,11,13)     =        -3.141004	    -179.966279
	 D(1,9,2,4)       =         0.000325	       0.018608
	 D(1,9,2,15)      =        -3.141527	    -179.996257
	 D(1,9,10,5)      =        -2.618336	    -150.019581
	 D(1,9,10,6)      =         0.522232	      29.921707
	 D(2,4,11,3)      =         0.000301	       0.017261
	 D(2,4,11,13)     =         3.140981	     179.964960
	 D(2,9,1,3)       =        -0.000348	      -0.019945
	 D(2,9,1,14)      =         3.141027	     179.967567
	 D(2,9,10,5)      =         0.523474	      29.992859
	 D(2,9,10,6)      =        -2.619143	    -150.065853
	 D(3,1,9,10)      =         3.141462	     179.992491
	 D(3,11,4,17)     =         3.140700	     179.948827
	 D(4,2,9,10)      =        -3.141485	    -179.993820
	 D(4,11,3,16)     =         3.140472	     179.935781
	 D(5,7,12,8)      =         0.000788	       0.045145
	 D(5,10,6,8)      =         0.000039	       0.002214
	 D(5,10,6,19)     =        -3.141265	    -179.981225
	 D(6,8,12,7)      =        -0.001002	      -0.057409
	 D(6,10,5,7)      =        -0.000230	      -0.013193
	 D(6,10,5,18)     =        -3.140339	    -179.928179
	 D(7,5,10,9)      =         3.140341	     179.928292
	 D(7,12,8,21)     =        -3.141504	    -179.994914
	 D(8,6,10,9)      =        -3.140533	    -179.939289
	 D(8,12,7,20)     =         3.140343	     179.928401
	 D(9,1,3,11)      =         0.000348	       0.019955
	 D(9,1,3,16)      =        -3.140471	    -179.935743
	 D(9,2,4,11)      =        -0.000301	      -0.017270
	 D(9,2,4,17)      =        -3.140734	    -179.950778
	 D(9,10,5,18)     =         0.000232	       0.013305
	 D(9,10,6,19)     =         0.001349	       0.077272
	 D(10,5,7,12)     =        -0.000198	      -0.011355
	 D(10,5,7,20)     =        -3.139644	    -179.888366
	 D(10,6,8,12)     =         0.000612	       0.035054
	 D(10,6,8,21)     =         3.141055	     179.969192
	 D(10,9,1,14)     =        -0.000349	      -0.019997
	 D(10,9,2,15)     =        -0.000152	      -0.008685
	 D(11,3,1,14)     =        -3.141030	    -179.967773
	 D(11,4,2,15)     =         3.141546	     179.997347
	 D(12,7,5,18)     =         3.139938	     179.905174
	 D(12,8,6,19)     =        -3.141265	    -179.981236
	 D(13,11,3,16)    =        -0.000207	      -0.011889
	 D(13,11,4,17)    =        -0.001806	      -0.103475
	 D(14,1,3,16)     =         0.001336	       0.076530
	 D(15,2,4,17)     =         0.001114	       0.063839
	 D(18,5,7,20)     =         0.000492	       0.028163
	 D(19,6,8,21)     =        -0.000822	      -0.047098

	Current energy   :      -553.1685577466

	Generating empirical Hessian (Schlegel '84) for each fragment.
	Adding user-defined constraint: Fragment 1; Coordinate 61:
		Value =    -2.618336; Fixed value    =    -2.617994
		Force =     0.000171; Force constant =     0.500000
	Removing off-diagonal coupling between coordinate 61 and others.
	Taking RFO optimization step.
	Going to follow RFO solution 1.
	Using RFO vector 1.

	Determining step-restricting scale parameter for RS-RFO.
	Maximum step size allowed    0.10000

	 Iter      |step|        alpha        rfo_root  
	------------------------------------------------
	    0     0.25928       1.00000           1
	    1     0.19487       6.04102           1
	    2     0.14312      20.03524           1
	    3     0.11415      39.85428           1
	    4     0.10237      53.89548           1
	    5     0.10009      57.27226           1
	    6     0.10000      57.40530           1
	------------------------------------------------
	Norm of target step-size    0.10000
	Projected energy change by RFO approximation:        -0.0070826375

	Back-transformation to cartesian coordinates...
	Could not converge backtransformation.
	Using first guess instead.

	--- Internal Coordinate Step in ANG or DEG, aJ/ANG or AJ/DEG ---
	 ---------------------------------------------------------------------------
	   Coordinate                Previous        Force       Change         New 
	   ----------                --------       ------       ------       ------
	    1 R(1,3)          =      1.394038    -0.060810    -0.004469     1.389569
	    2 R(1,9)          =      1.394891     0.056701     0.003997     1.398889
	    3 R(1,14)         =      1.087453    -0.032880    -0.002791     1.084663
	    4 R(2,4)          =      1.394521    -0.063861    -0.004711     1.389810
	    5 R(2,9)          =      1.394821     0.057723     0.004069     1.398891
	    6 R(2,15)         =      1.087302    -0.032063    -0.002721     1.084581
	    7 R(3,11)         =      1.394821     0.214524     0.016331     1.411152
	    8 R(3,16)         =      1.088972    -0.055623    -0.004733     1.084239
	    9 R(4,11)         =      1.395407     0.211177     0.016098     1.411506
	   10 R(4,17)         =      1.088424    -0.052866    -0.004495     1.083929
	   11 R(5,7)          =      1.386002    -0.006091    -0.000456     1.385546
	   12 R(5,10)         =      1.389884     0.057977     0.004665     1.394549
	   13 R(5,18)         =      1.085551    -0.046946    -0.003958     1.081593
	   14 R(6,8)          =      1.385439    -0.003075    -0.000230     1.385210
	   15 R(6,10)         =      1.390195     0.056777     0.004583     1.394778
	   16 R(6,19)         =      1.084791    -0.042801    -0.003601     1.081190
	   17 R(7,12)         =      1.352407    -0.104020    -0.007247     1.345160
	   18 R(7,20)         =      1.084956    -0.012198    -0.001028     1.083928
	   19 R(8,12)         =      1.352438    -0.103656    -0.007220     1.345218
	   20 R(8,21)         =      1.085034    -0.012525    -0.001056     1.083977
	   21 R(9,10)         =      1.446855     0.074579     0.006049     1.452904
	   22 R(11,13)        =      1.281373    -0.003856    -0.000219     1.281155
	   23 B(1,3,11)       =    120.009056     0.000727     0.877130   120.886186
	   24 B(1,3,16)       =    118.552025     0.000130     0.213366   118.765391
	   25 B(1,9,2)        =    119.959722    -0.000881    -1.108210   118.851512
	   26 B(1,9,10)       =    120.053983     0.000431     0.543629   120.597612
	   27 B(2,4,11)       =    119.960108     0.000742     0.891941   120.852049
	   28 B(2,4,17)       =    118.592446     0.000121     0.202872   118.795318
	   29 B(2,9,10)       =    119.986294     0.000450     0.564582   120.550876
	   30 B(3,1,9)        =    120.031219     0.000656     0.725493   120.756712
	   31 B(3,1,14)       =    119.119344    -0.000200    -0.193517   118.925827
	   32 B(3,11,4)       =    119.994870    -0.001903    -2.112210   117.882661
	   33 B(3,11,13)      =    120.029973     0.000944     1.047004   121.076977
	   34 B(4,2,9)        =    120.045019     0.000659     0.725781   120.770800
	   35 B(4,2,15)       =    119.143974    -0.000206    -0.199916   118.944058
	   36 B(4,11,13)      =    119.975136     0.000959     1.065209   121.040345
	   37 B(5,7,12)       =    124.046946     0.000223     0.220666   124.267611
	   38 B(5,7,20)       =    120.784063    -0.000157    -0.171191   120.612872
	   39 B(5,10,6)       =    119.766977    -0.001676    -1.857124   117.909853
	   40 B(5,10,9)       =    120.131971     0.000836     0.925944   121.057916
	   41 B(6,8,12)       =    124.058908     0.000216     0.213629   124.272537
	   42 B(6,8,21)       =    120.798956    -0.000156    -0.170664   120.628292
	   43 B(6,10,9)       =    120.101025     0.000840     0.931172   121.032197
	   44 B(7,5,10)       =    117.900823     0.000722     0.892929   118.793752
	   45 B(7,5,18)       =    120.178202    -0.000225    -0.267823   119.910380
	   46 B(7,12,8)       =    116.318345    -0.000204    -0.360174   115.958171
	   47 B(8,6,10)       =    117.907980     0.000718     0.890074   118.798054
	   48 B(8,6,19)       =    120.261557    -0.000233    -0.280156   119.981401
	   49 B(9,1,14)       =    120.849435    -0.000456    -0.532150   120.317285
	   50 B(9,2,15)       =    120.811005    -0.000453    -0.526036   120.284968
	   51 B(10,5,18)      =    121.920920    -0.000497    -0.625301   121.295619
	   52 B(10,6,19)      =    121.830461    -0.000485    -0.610024   121.220437
	   53 B(11,3,16)      =    121.438903    -0.000857    -1.090515   120.348389
	   54 B(11,4,17)      =    121.447411    -0.000862    -1.094836   120.352576
	   55 B(12,7,20)      =    115.168888    -0.000066    -0.049675   115.119213
	   56 B(12,8,21)      =    115.142106    -0.000060    -0.042944   115.099163
	   57 D(1,3,11,4)     =     -0.018609    -0.000005    -0.038862    -0.057471
	   58 D(1,3,11,13)    =   -179.966279    -0.000006    -0.043223  -180.009502
	   59 D(1,9,2,4)      =      0.018608    -0.000006    -0.046498    -0.027891
	   60 D(1,9,2,15)     =   -179.996257     0.000016     0.121467  -179.874790
	   61 D(1,9,10,5)     =   -150.019581    -0.000002    -0.010618  -150.030198
	   62 D(1,9,10,6)     =     29.921707    -0.000003    -0.020095    29.901612
	   63 D(2,4,11,3)     =      0.017261    -0.000005    -0.041881    -0.024620
	   64 D(2,4,11,13)    =    179.964960    -0.000005    -0.037531   179.927429
	   65 D(2,9,1,3)      =     -0.019945    -0.000004    -0.034470    -0.054415
	   66 D(2,9,1,14)     =    179.967567     0.000017     0.132021   180.099588
	   67 D(2,9,10,5)     =     29.992859    -0.000003    -0.022580    29.970279
	   68 D(2,9,10,6)     =   -150.065853    -0.000004    -0.032058  -150.097911
	   69 D(3,1,9,10)     =    179.992491    -0.000006    -0.046438   179.946054
	   70 D(3,11,4,17)    =    179.948827    -0.000008    -0.061047   179.887779
	   71 D(4,2,9,10)     =   -179.993820    -0.000005    -0.034539  -180.028359
	   72 D(4,11,3,16)    =    179.935781    -0.000008    -0.060844   179.874937
	   73 D(5,7,12,8)     =      0.045145     0.000002     0.012223     0.057368
	   74 D(5,10,6,8)     =      0.002214     0.000001     0.010433     0.012647
	   75 D(5,10,6,19)    =   -179.981225     0.000015     0.113539  -179.867686
	   76 D(6,8,12,7)     =     -0.057409     0.000003     0.022634    -0.034774
	   77 D(6,10,5,7)     =     -0.013193     0.000003     0.020885     0.007692
	   78 D(6,10,5,18)    =   -179.928179     0.000015     0.117537  -179.810643
	   79 D(7,5,10,9)     =    179.928292     0.000002     0.013279   179.941571
	   80 D(7,12,8,21)    =   -179.994914    -0.000010    -0.073485  -180.068400
	   81 D(8,6,10,9)     =   -179.939289     0.000002     0.018040  -179.921250
	   82 D(8,12,7,20)    =    179.928401    -0.000009    -0.071302   179.857100
	   83 D(9,1,3,11)     =      0.019955     0.000010     0.078030     0.097984
	   84 D(9,1,3,16)     =   -179.935743     0.000013     0.100269  -179.835474
	   85 D(9,2,4,11)     =     -0.017270     0.000011     0.084802     0.067532
	   86 D(9,2,4,17)     =   -179.950778     0.000013     0.104570  -179.846208
	   87 D(9,10,5,18)    =      0.013305     0.000014     0.109931     0.123236
	   88 D(9,10,6,19)    =      0.077272     0.000016     0.121145     0.198417
	   89 D(10,5,7,12)    =     -0.011355    -0.000004    -0.033890    -0.045245
	   90 D(10,5,7,20)    =   -179.888366     0.000007     0.053814  -179.834552
	   91 D(10,6,8,12)    =      0.035054    -0.000004    -0.033964     0.001091
	   92 D(10,6,8,21)    =    179.969192     0.000009     0.067285   180.036478
	   93 D(10,9,1,14)    =     -0.019997     0.000016     0.120054     0.100057
	   94 D(10,9,2,15)    =     -0.008685     0.000017     0.133425     0.124741
	   95 D(11,3,1,14)    =   -179.967773    -0.000011    -0.086135  -180.053907
	   96 D(11,4,2,15)    =    179.997347    -0.000011    -0.080892   179.916455
	   97 D(12,7,5,18)    =    179.905174    -0.000017    -0.129505   179.775669
	   98 D(12,8,6,19)    =   -179.981236    -0.000018    -0.135819  -180.117055
	   99 D(13,11,3,16)   =     -0.011889    -0.000008    -0.065205    -0.077094
	  100 D(13,11,4,17)   =     -0.103475    -0.000007    -0.056697    -0.160171
	  101 D(14,1,3,16)    =      0.076530    -0.000008    -0.063895     0.012634
	  102 D(15,2,4,17)    =      0.063839    -0.000008    -0.061124     0.002715
	  103 D(18,5,7,20)    =      0.028163    -0.000005    -0.041801    -0.013638
	  104 D(19,6,8,21)    =     -0.047098    -0.000004    -0.034570    -0.081668
	 ---------------------------------------------------------------------------
	Successfully symmetrized geometry.
	 Forces used to impose fixed constraints are not included.
	  Forces zeroed: 61 

  ==> Convergence Check <==

  Measures of convergence in internal coordinates in au.
  Criteria marked as inactive (o), active & met (*), and active & unmet ( ).
  --------------------------------------------------------------------------------------------- ~
   Step     Total Energy     Delta E     MAX Force     RMS Force      MAX Disp      RMS Disp    ~
  --------------------------------------------------------------------------------------------- ~
    Convergence Criteria    1.00e-06 *    3.00e-04 *             o    1.20e-03 *             o  ~
  --------------------------------------------------------------------------------------------- ~
      1    -553.16855775   -5.53e+02      2.60e-02      7.00e-03 o    3.69e-02      9.79e-03 o  ~
  ---------------------------------------------------------------------------------------------

	Writing optimization data to binary file.
	Structure for next step:
	Cartesian Geometry (in Angstrom)
	    C    -1.2906778865   0.7315276904  -0.5569040877
	    C    -0.3011297893   0.1164327862   1.5513651463
	    C    -2.3674324811   1.3029651270   0.1101500751
	    C    -1.3734647585   0.6871225694   2.2266307658
	    C     1.5707539900  -1.5482310122  -0.0055634405
	    C     1.2965026050   0.0240207118  -1.7842988390
	    C     2.6344115826  -2.0823222776  -0.7148711270
	    C     2.3721173910  -0.5817477060  -2.4127119292
	    C    -0.2457431471   0.1314355922   0.1536520165
	    C     0.8778692350  -0.4660488993  -0.5473743265
	    C    -2.4335235043   1.2945043258   1.5197283145
	    N     3.0540916970  -1.6259854052  -1.9086383877
	    O    -3.4244316549   1.8204352899   2.1384809583
	    H    -1.2728010204   0.7551578025  -1.6411619873
	    H     0.4973665930  -0.3408107623   2.1255151035
	    H    -3.1609338746   1.7569975348  -0.4727602912
	    H    -1.3824515791   0.6596405615   3.3101736963
	    H     1.2908540680  -1.9737282230   0.9486125812
	    H     0.7991809466   0.8621392004  -2.2524874805
	    H     3.1917555231  -2.9251913686  -0.3226478857
	    H     2.7226356151  -0.2246643738  -3.3742916906
			--------------------------
			 OPTKING Finished Execution 
			--------------------------

    Structure for next step:
    Molecular point group: c1
    Full point group: C1

    Geometry (in Angstrom), charge = -1, multiplicity = 1:

    C           -1.288184658538     0.730215411376    -0.558453300369
    C           -0.298636561291     0.115120507188     1.549815933686
    C           -2.364939253085     1.301652848015     0.108600862466
    C           -1.370971530508     0.685810290348     2.225081553182
    C            1.573247218015    -1.549543291213    -0.007112653186
    C            1.298995832957     0.022708432748    -1.785848051625
    C            2.636904810616    -2.083634556664    -0.716420339616
    C            2.374610619018    -0.583059985022    -2.414261141847
    C           -0.243249919098     0.130123313155     0.152102803864
    C            0.880362462966    -0.467361178314    -0.548923539119
    C           -2.431030276292     1.293192046805     1.518179101884
    N            3.056584925035    -1.627297684246    -1.910187600326
    O           -3.421938426904     1.819123010878     2.136931745625
    H           -1.270307792453     0.753845523517    -1.642711199920
    H            0.499859821033    -0.342123041358     2.123965890889
    H           -3.158440646660     1.755685255747    -0.474309503842
    H           -1.379958351096     0.658328282521     3.308624483690
    H            1.293347295948    -1.975040502050     0.947063368560
    H            0.801674174596     0.860826921378    -2.254036693132
    H            3.194248751092    -2.926503647658    -0.324197098381
    H            2.725128843051    -0.225976652843    -3.375840903223

gradient() will perform analytic gradient computation.

*** tstart() called on gpu-1-14.local
*** at Sun Nov 12 04:31:20 2017

    SCF Algorithm Type (re)set to DF.

*** tstart() called on gpu-1-14.local
*** at Sun Nov 12 04:31:20 2017

   => Loading Basis Set <=

    Name: AUG-CC-PVTZ
    Role: ORBITAL
    Keyword: BASIS
    atoms 1-11  entry C          line   221 file /cbio/jclab/home/chayas/anaconda/envs/py35/share/psi4/basis/aug-cc-pvtz.gbs 
    atoms 12    entry N          line   267 file /cbio/jclab/home/chayas/anaconda/envs/py35/share/psi4/basis/aug-cc-pvtz.gbs 
    atoms 13    entry O          line   313 file /cbio/jclab/home/chayas/anaconda/envs/py35/share/psi4/basis/aug-cc-pvtz.gbs 
    atoms 14-21 entry H          line    34 file /cbio/jclab/home/chayas/anaconda/envs/py35/share/psi4/basis/aug-cc-pvtz.gbs 


         ---------------------------------------------------------
                                   SCF
            by Justin Turney, Rob Parrish, and Andy Simmonett
                              RHF Reference
                        8 Threads,   4768 MiB Core
         ---------------------------------------------------------

  ==> Geometry <==

    Molecular point group: c1
    Full point group: C1

    Geometry (in Angstrom), charge = -1, multiplicity = 1:

       Center              X                  Y                   Z               Mass       
    ------------   -----------------  -----------------  -----------------  -----------------
           C         -1.288184658538     0.730215411376    -0.558453300369    12.000000000000
           C         -0.298636561291     0.115120507188     1.549815933686    12.000000000000
           C         -2.364939253085     1.301652848015     0.108600862466    12.000000000000
           C         -1.370971530508     0.685810290348     2.225081553182    12.000000000000
           C          1.573247218015    -1.549543291213    -0.007112653186    12.000000000000
           C          1.298995832957     0.022708432748    -1.785848051625    12.000000000000
           C          2.636904810616    -2.083634556664    -0.716420339616    12.000000000000
           C          2.374610619018    -0.583059985022    -2.414261141847    12.000000000000
           C         -0.243249919098     0.130123313155     0.152102803864    12.000000000000
           C          0.880362462966    -0.467361178314    -0.548923539119    12.000000000000
           C         -2.431030276292     1.293192046805     1.518179101884    12.000000000000
           N          3.056584925035    -1.627297684246    -1.910187600326    14.003074004780
           O         -3.421938426904     1.819123010878     2.136931745625    15.994914619560
           H         -1.270307792453     0.753845523517    -1.642711199920     1.007825032070
           H          0.499859821033    -0.342123041358     2.123965890889     1.007825032070
           H         -3.158440646660     1.755685255747    -0.474309503842     1.007825032070
           H         -1.379958351096     0.658328282521     3.308624483690     1.007825032070
           H          1.293347295948    -1.975040502050     0.947063368560     1.007825032070
           H          0.801674174596     0.860826921378    -2.254036693132     1.007825032070
           H          3.194248751092    -2.926503647658    -0.324197098381     1.007825032070
           H          2.725128843051    -0.225976652843    -3.375840903223     1.007825032070

  Running in c1 symmetry.

  Rotational constants: A =      0.09804  B =      0.01370  C =      0.01222 [cm^-1]
  Rotational constants: A =   2939.23492  B =    410.67440  C =    366.32933 [MHz]
  Nuclear repulsion =  684.515842645708972

  Charge       = -1
  Multiplicity = 1
  Electrons    = 90
  Nalpha       = 45
  Nbeta        = 45

  ==> Algorithm <==

  SCF Algorithm Type is DF.
  DIIS enabled.
  MOM disabled.
  Fractional occupation disabled.
  Guess Type is READ.
  Energy threshold   = 1.00e-10
  Density threshold  = 1.00e-10
  Integral threshold = 0.00e+00

  ==> Primary Basis <==

  Basis Set: AUG-CC-PVTZ
    Blend: AUG-CC-PVTZ
    Number of shells: 254
    Number of basis function: 782
    Number of Cartesian functions: 915
    Spherical Harmonics?: true
    Max angular momentum: 3

   => Loading Basis Set <=

    Name: (AUG-CC-PVTZ AUX)
    Role: JKFIT
    Keyword: DF_BASIS_SCF
    atoms 1-11  entry C          line   161 file /cbio/jclab/home/chayas/anaconda/envs/py35/share/psi4/basis/aug-cc-pvtz-jkfit.gbs 
    atoms 12    entry N          line   223 file /cbio/jclab/home/chayas/anaconda/envs/py35/share/psi4/basis/aug-cc-pvtz-jkfit.gbs 
    atoms 13    entry O          line   285 file /cbio/jclab/home/chayas/anaconda/envs/py35/share/psi4/basis/aug-cc-pvtz-jkfit.gbs 
    atoms 14-21 entry H          line    69 file /cbio/jclab/home/chayas/anaconda/envs/py35/share/psi4/basis/aug-cc-pvtz-jkfit.gbs 

  Reading orbitals from file 180, no projection.

  ==> Pre-Iterations <==

   -------------------------------------------------------
    Irrep   Nso     Nmo     Nalpha   Nbeta   Ndocc  Nsocc
   -------------------------------------------------------
     A        782     782       0       0       0       0
   -------------------------------------------------------
    Total     782     782      45      45      45       0
   -------------------------------------------------------

  ==> Integral Setup <==

  ==> DFJK: Density-Fitted J/K Matrices <==

    J tasked:                  Yes
    K tasked:                  Yes
    wK tasked:                  No
    OpenMP threads:              8
    Integrals threads:           8
    Memory (MB):              3576
    Algorithm:                Disk
    Integral Cache:           NONE
    Schwarz Cutoff:          1E-12
    Fitting Condition:       1E-12

   => Auxiliary Basis Set <=

  Basis Set: (AUG-CC-PVTZ AUX)
    Blend: AUG-CC-PVTZ-JKFIT
    Number of shells: 502
    Number of basis function: 1720
    Number of Cartesian functions: 2143
    Spherical Harmonics?: true
    Max angular momentum: 4

  Minimum eigenvalue in the overlap matrix is 6.9515066665E-07.
  Using Symmetric Orthogonalization.

  SCF Guess: Orbitals guess was supplied from a previous computation.

  ==> Iterations <==

                           Total Energy        Delta E     RMS |[F,P]|

   @DF-RHF iter   0:  -550.83233579048624   -5.50832e+02   5.95771e-04 
   @DF-RHF iter   1:  -550.72215472325092    1.10181e-01   1.07547e-04 
   @DF-RHF iter   2:  -550.72270783935971   -5.53116e-04   1.02688e-04 DIIS
   @DF-RHF iter   3:  -550.72315480165662   -4.46962e-04   1.20473e-05 DIIS
   @DF-RHF iter   4:  -550.72316349409220   -8.69244e-06   4.37866e-06 DIIS
   @DF-RHF iter   5:  -550.72316538216648   -1.88807e-06   1.41535e-06 DIIS
   @DF-RHF iter   6:  -550.72316572943498   -3.47268e-07   8.84449e-07 DIIS
   @DF-RHF iter   7:  -550.72316584477812   -1.15343e-07   3.37478e-07 DIIS
   @DF-RHF iter   8:  -550.72316588396438   -3.91863e-08   1.28229e-07 DIIS
   @DF-RHF iter   9:  -550.72316588942442   -5.46004e-09   4.51633e-08 DIIS
   @DF-RHF iter  10:  -550.72316589016793   -7.43512e-10   1.52086e-08 DIIS
   @DF-RHF iter  11:  -550.72316589029515   -1.27216e-10   7.01166e-09 DIIS
   @DF-RHF iter  12:  -550.72316589032016   -2.50111e-11   3.73842e-09 DIIS
   @DF-RHF iter  13:  -550.72316589031470    5.45697e-12   1.60753e-09 DIIS
   @DF-RHF iter  14:  -550.72316589033062   -1.59162e-11   6.90206e-10 DIIS
   @DF-RHF iter  15:  -550.72316589032221    8.41283e-12   3.52256e-10 DIIS
   @DF-RHF iter  16:  -550.72316589032653   -4.32010e-12   5.70766e-11 DIIS

  ==> Post-Iterations <==

    Orbital Energies (a.u.)
    -----------------------

    Doubly Occupied:                                                      

       1A    -20.305321     2A    -15.447086     3A    -11.165387  
       4A    -11.165344     5A    -11.145467     6A    -11.123646  
       7A    -11.117376     8A    -11.117309     9A    -11.101302  
      10A    -11.101270    11A    -11.077509    12A    -11.062863  
      13A    -11.062840    14A     -1.140996    15A     -1.132510  
      16A     -1.017805    17A     -0.957493    18A     -0.921873  
      19A     -0.868654    20A     -0.837656    21A     -0.746840  
      22A     -0.732977    23A     -0.678311    24A     -0.649531  
      25A     -0.597600    26A     -0.550235    27A     -0.542866  
      28A     -0.504862    29A     -0.489333    30A     -0.483299  
      31A     -0.481431    32A     -0.442480    33A     -0.431122  
      34A     -0.411997    35A     -0.406638    36A     -0.379366  
      37A     -0.358158    38A     -0.354265    39A     -0.311652  
      40A     -0.307863    41A     -0.246987    42A     -0.241154  
      43A     -0.219217    44A     -0.200244    45A     -0.107146  

    Virtual:                                                              

      46A      0.098999    47A      0.099797    48A      0.116718  
      49A      0.116802    50A      0.125738    51A      0.128336  
      52A      0.133664    53A      0.134199    54A      0.163441  
      55A      0.166100    56A      0.177269    57A      0.183786  
      58A      0.186156    59A      0.189140    60A      0.189684  
      61A      0.197495    62A      0.199014    63A      0.206851  
      64A      0.208047    65A      0.212418    66A      0.213685  
      67A      0.214043    68A      0.221141    69A      0.226413  
      70A      0.231000    71A      0.232067    72A      0.237421  
      73A      0.239059    74A      0.239757    75A      0.247266  
      76A      0.250848    77A      0.251187    78A      0.260264  
      79A      0.263173    80A      0.267376    81A      0.268933  
      82A      0.277051    83A      0.281412    84A      0.292340  
      85A      0.292520    86A      0.300704    87A      0.313918  
      88A      0.317667    89A      0.319890    90A      0.323081  
      91A      0.323466    92A      0.327270    93A      0.330193  
      94A      0.332800    95A      0.338148    96A      0.343852  
      97A      0.346808    98A      0.351513    99A      0.366111  
     100A      0.366595   101A      0.374252   102A      0.377130  
     103A      0.383196   104A      0.383922   105A      0.389765  
     106A      0.391191   107A      0.397763   108A      0.400511  
     109A      0.405142   110A      0.413793   111A      0.416467  
     112A      0.421907   113A      0.423516   114A      0.428457  
     115A      0.430517   116A      0.432765   117A      0.441018  
     118A      0.443039   119A      0.450736   120A      0.462385  
     121A      0.463112   122A      0.471815   123A      0.474661  
     124A      0.478056   125A      0.483371   126A      0.489627  
     127A      0.489797   128A      0.505838   129A      0.510059  
     130A      0.514190   131A      0.515779   132A      0.520243  
     133A      0.533795   134A      0.538566   135A      0.545578  
     136A      0.545768   137A      0.554841   138A      0.558070  
     139A      0.560087   140A      0.561592   141A      0.567673  
     142A      0.573370   143A      0.575229   144A      0.577612  
     145A      0.581351   146A      0.583132   147A      0.589994  
     148A      0.591201   149A      0.598196   150A      0.598917  
     151A      0.602586   152A      0.603953   153A      0.608847  
     154A      0.615289   155A      0.615576   156A      0.624849  
     157A      0.625995   158A      0.630087   159A      0.630865  
     160A      0.637199   161A      0.637417   162A      0.643248  
     163A      0.645882   164A      0.649938   165A      0.653576  
     166A      0.657979   167A      0.664288   168A      0.667215  
     169A      0.671523   170A      0.671971   171A      0.681725  
     172A      0.688270   173A      0.694526   174A      0.701250  
     175A      0.701878   176A      0.704016   177A      0.717461  
     178A      0.720050   179A      0.729254   180A      0.735892  
     181A      0.740753   182A      0.745447   183A      0.745731  
     184A      0.759180   185A      0.765086   186A      0.777230  
     187A      0.784988   188A      0.794227   189A      0.803132  
     190A      0.805166   191A      0.807668   192A      0.808073  
     193A      0.812204   194A      0.830188   195A      0.830933  
     196A      0.833913   197A      0.839154   198A      0.841816  
     199A      0.843413   200A      0.856094   201A      0.860058  
     202A      0.863000   203A      0.869209   204A      0.870036  
     205A      0.876180   206A      0.883880   207A      0.894760  
     208A      0.900964   209A      0.904293   210A      0.914077  
     211A      0.919931   212A      0.920496   213A      0.937193  
     214A      0.951597   215A      0.951713   216A      0.961650  
     217A      0.962234   218A      0.975891   219A      0.978542  
     220A      0.985344   221A      0.988642   222A      0.990400  
     223A      0.998707   224A      1.002594   225A      1.004104  
     226A      1.009577   227A      1.015291   228A      1.018255  
     229A      1.019415   230A      1.021723   231A      1.029976  
     232A      1.037259   233A      1.042086   234A      1.047040  
     235A      1.056657   236A      1.057428   237A      1.066163  
     238A      1.067770   239A      1.071029   240A      1.073771  
     241A      1.079603   242A      1.088870   243A      1.091185  
     244A      1.095949   245A      1.100144   246A      1.103809  
     247A      1.110885   248A      1.111098   249A      1.118947  
     250A      1.123390   251A      1.129072   252A      1.131297  
     253A      1.135496   254A      1.136610   255A      1.144394  
     256A      1.146009   257A      1.146326   258A      1.154724  
     259A      1.156982   260A      1.167870   261A      1.170900  
     262A      1.175751   263A      1.177677   264A      1.182547  
     265A      1.185078   266A      1.191599   267A      1.198515  
     268A      1.203951   269A      1.207836   270A      1.211831  
     271A      1.217487   272A      1.222120   273A      1.227775  
     274A      1.235626   275A      1.239711   276A      1.240264  
     277A      1.256087   278A      1.256433   279A      1.262783  
     280A      1.264218   281A      1.269293   282A      1.279880  
     283A      1.289666   284A      1.294689   285A      1.297531  
     286A      1.299960   287A      1.302359   288A      1.304596  
     289A      1.313617   290A      1.316869   291A      1.317865  
     292A      1.319783   293A      1.327722   294A      1.332099  
     295A      1.338792   296A      1.341384   297A      1.348232  
     298A      1.351421   299A      1.358453   300A      1.359482  
     301A      1.363860   302A      1.379038   303A      1.386441  
     304A      1.389912   305A      1.393375   306A      1.404667  
     307A      1.405634   308A      1.417236   309A      1.423900  
     310A      1.435893   311A      1.436447   312A      1.444160  
     313A      1.456650   314A      1.457815   315A      1.471479  
     316A      1.476108   317A      1.480939   318A      1.483369  
     319A      1.487399   320A      1.499754   321A      1.502412  
     322A      1.516725   323A      1.530904   324A      1.535177  
     325A      1.556027   326A      1.559224   327A      1.571884  
     328A      1.575774   329A      1.580255   330A      1.585230  
     331A      1.588536   332A      1.602655   333A      1.615698  
     334A      1.624858   335A      1.626240   336A      1.638084  
     337A      1.639053   338A      1.653968   339A      1.662618  
     340A      1.668779   341A      1.671049   342A      1.671388  
     343A      1.702028   344A      1.707175   345A      1.707345  
     346A      1.718299   347A      1.736179   348A      1.736862  
     349A      1.743087   350A      1.761564   351A      1.764383  
     352A      1.765214   353A      1.780591   354A      1.794916  
     355A      1.796638   356A      1.810995   357A      1.816898  
     358A      1.821353   359A      1.828900   360A      1.830239  
     361A      1.841499   362A      1.849435   363A      1.856045  
     364A      1.857446   365A      1.858936   366A      1.877886  
     367A      1.878819   368A      1.889516   369A      1.911946  
     370A      1.912653   371A      1.920931   372A      1.930092  
     373A      1.937761   374A      1.947492   375A      1.950428  
     376A      1.962390   377A      1.966519   378A      1.977399  
     379A      1.981602   380A      1.990105   381A      1.992298  
     382A      2.017344   383A      2.022914   384A      2.036744  
     385A      2.037635   386A      2.042424   387A      2.049408  
     388A      2.059703   389A      2.073516   390A      2.078958  
     391A      2.088746   392A      2.097613   393A      2.099294  
     394A      2.102725   395A      2.112096   396A      2.116758  
     397A      2.123662   398A      2.139297   399A      2.146715  
     400A      2.152131   401A      2.158323   402A      2.164590  
     403A      2.166157   404A      2.176414   405A      2.182964  
     406A      2.183167   407A      2.195976   408A      2.203757  
     409A      2.209491   410A      2.216070   411A      2.233109  
     412A      2.234370   413A      2.235126   414A      2.244431  
     415A      2.256865   416A      2.258730   417A      2.271159  
[...]
	 R(4,11)          =         2.713985	       1.436179
	 R(4,17)          =         2.044451	       1.081877
	 R(5,7)           =         2.613012	       1.382746
	 R(5,10)          =         2.650019	       1.402330
	 R(5,18)          =         2.040423	       1.079745
	 R(6,8)           =         2.612853	       1.382662
	 R(6,10)          =         2.649962	       1.402299
	 R(6,19)          =         2.040624	       1.079851
	 R(7,12)          =         2.531338	       1.339526
	 R(7,20)          =         2.046528	       1.082976
	 R(8,12)          =         2.531333	       1.339524
	 R(8,21)          =         2.046539	       1.082982
	 R(9,10)          =         2.720640	       1.439701
	 R(11,13)         =         2.386371	       1.262813
	 B(1,3,11)        =         2.146080	     122.961299
	 B(1,3,16)        =         2.096087	     120.096915
	 B(1,9,2)         =         2.032154	     116.433841
	 B(1,9,10)        =         2.124775	     121.740646
	 B(2,4,11)        =         2.145736	     122.941641
	 B(2,4,17)        =         2.096340	     120.111428
	 B(2,9,10)        =         2.125386	     121.775647
	 B(3,1,9)         =         2.130480	     122.067524
	 B(3,1,14)        =         2.073147	     118.782549
	 B(3,11,4)        =         1.980904	     113.497423
	 B(3,11,13)       =         2.151198	     123.254577
	 B(4,2,9)         =         2.130782	     122.084819
	 B(4,2,15)        =         2.072975	     118.772745
	 B(4,11,13)       =         2.151080	     123.247798
	 B(5,7,12)        =         2.171987	     124.445688
	 B(5,7,20)        =         2.086548	     119.550374
	 B(5,10,6)        =         1.996697	     114.402313
	 B(5,10,9)        =         2.143514	     122.814316
	 B(6,8,12)        =         2.171886	     124.439927
	 B(6,8,21)        =         2.086630	     119.555084
	 B(6,10,9)        =         2.142600	     122.761909
	 B(7,5,10)        =         2.108148	     120.787985
	 B(7,5,18)        =         2.082012	     119.290513
	 B(7,12,8)        =         2.009129	     115.114634
	 B(8,6,10)        =         2.108378	     120.801158
	 B(8,6,19)        =         2.081874	     119.282575
	 B(9,1,14)        =         2.078768	     119.104638
	 B(9,2,15)        =         2.078491	     119.088758
	 B(10,5,18)       =         2.092773	     119.907037
	 B(10,6,19)       =         2.092614	     119.897948
	 B(11,3,16)       =         2.040918	     116.936002
	 B(11,4,17)       =         2.041062	     116.944255
	 B(12,7,20)       =         2.024511	     115.995929
	 B(12,8,21)       =         2.024589	     116.000428
	 D(1,3,11,4)      =        -0.012076	      -0.691916
	 D(1,3,11,13)     =         3.132290	     179.467010
	 D(1,9,2,4)       =        -0.021310	      -1.220999
	 D(1,9,2,15)      =        -3.115807	    -178.522570
	 D(1,9,10,5)      =        -2.622177	    -150.239682
	 D(1,9,10,6)      =         0.488347	      27.980193
	 D(2,4,11,3)      =        -0.002671	      -0.153020
	 D(2,4,11,13)     =         3.136148	     179.688067
	 D(2,9,1,3)       =         0.006617	       0.379132
	 D(2,9,1,14)      =        -3.091718	    -177.142398
	 D(2,9,10,5)      =         0.472985	      27.100022
	 D(2,9,10,6)      =        -2.699677	    -154.680103
	 D(3,1,9,10)      =         3.104131	     177.853603
	 D(3,11,4,17)     =         3.128530	     179.251573
	 D(4,2,9,10)      =        -3.118808	    -178.694514
	 D(4,11,3,16)     =         3.114233	     178.432434
	 D(5,7,12,8)      =         0.004149	       0.237743
	 D(5,10,6,8)      =        -0.005486	      -0.314301
	 D(5,10,6,19)     =        -3.119710	    -178.746235
	 D(6,8,12,7)      =         0.007870	       0.450914
	 D(6,10,5,7)      =         0.016551	       0.948286
	 D(6,10,5,18)     =        -3.100724	    -177.658396
	 D(7,5,10,9)      =         3.129454	     179.304526
	 D(7,12,8,21)     =         3.135795	     179.667809
	 D(8,6,10,9)      =        -3.118406	    -178.671508
	 D(8,12,7,20)     =         3.127629	     179.199921
	 D(9,1,3,11)      =         0.010268	       0.588315
	 D(9,1,3,16)      =        -3.115576	    -178.509379
	 D(9,2,4,11)      =         0.019820	       1.135614
	 D(9,2,4,17)      =        -3.111064	    -178.250811
	 D(9,10,5,18)     =         0.012180	       0.697844
	 D(9,10,6,19)     =         0.050554	       2.896558
	 D(10,5,7,12)     =        -0.017015	      -0.974879
	 D(10,5,7,20)     =        -3.139892	    -179.902571
	 D(10,6,8,12)     =        -0.007068	      -0.404991
	 D(10,6,8,21)     =        -3.134539	    -179.595859
	 D(10,9,1,14)     =         0.005796	       0.332073
	 D(10,9,2,15)     =         0.069881	       4.003915
	 D(11,3,1,14)     =         3.108738	     178.117543
	 D(11,4,2,15)     =         3.114460	     178.445405
	 D(12,7,5,18)     =         3.100408	     177.640296
	 D(12,8,6,19)     =         3.107323	     178.036480
	 D(13,11,3,16)    =        -0.024585	      -1.408640
	 D(13,11,4,17)    =        -0.015836	      -0.907340
	 D(14,1,3,16)     =        -0.017107	      -0.980151
	 D(15,2,4,17)     =        -0.016424	      -0.941019
	 D(18,5,7,20)     =        -0.022469	      -1.287397
	 D(19,6,8,21)     =        -0.020148	      -1.154388

	Current energy   :      -553.1787845466

	Energy change for the previous step:
		Projected    :        -0.0000016371
		Actual       :         0.0000008877

	Performing BFGS update.
	Previous computed or guess Hessian on step 1.
	Steps to be used in Hessian update: 6 5
	Adding user-defined constraint: Fragment 1; Coordinate 61:
		Value =    -2.622177; Fixed value    =    -2.617990
		Force =     0.002722; Force constant =     0.650000
	Removing off-diagonal coupling between coordinate 61 and others.
	Taking RFO optimization step.
	Going to follow RFO solution 1.
	Using RFO vector 1.
	Norm of target step-size    0.00816
	Projected energy change by RFO approximation:        -0.0000013299

	Back-transformation to cartesian coordinates...
	Successfully converged to displaced geometry.

	--- Internal Coordinate Step in ANG or DEG, aJ/ANG or AJ/DEG ---
	 ---------------------------------------------------------------------------
	   Coordinate                Previous        Force       Change         New 
	   ----------                --------       ------       ------       ------
	    1 R(1,3)          =      1.376283    -0.000014     0.000016     1.376299
	    2 R(1,9)          =      1.404458     0.000166    -0.000004     1.404454
	    3 R(1,14)         =      1.083312     0.000058     0.000020     1.083332
	    4 R(2,4)          =      1.376219    -0.000053     0.000007     1.376226
	    5 R(2,9)          =      1.404490    -0.000052     0.000015     1.404505
	    6 R(2,15)         =      1.083396     0.000156     0.000030     1.083427
	    7 R(3,11)         =      1.436129    -0.000071     0.000095     1.436224
	    8 R(3,16)         =      1.081856     0.000003     0.000016     1.081872
	    9 R(4,11)         =      1.436179     0.000012     0.000074     1.436253
	   10 R(4,17)         =      1.081877    -0.000031     0.000017     1.081893
	   11 R(5,7)          =      1.382746     0.000105     0.000031     1.382778
	   12 R(5,10)         =      1.402330    -0.000111    -0.000036     1.402294
	   13 R(5,18)         =      1.079745     0.000126     0.000032     1.079778
	   14 R(6,8)          =      1.382662     0.000038     0.000039     1.382701
	   15 R(6,10)         =      1.402299     0.000076     0.000006     1.402306
	   16 R(6,19)         =      1.079851     0.000106     0.000020     1.079872
	   17 R(7,12)         =      1.339526     0.000011    -0.000023     1.339503
	   18 R(7,20)         =      1.082976     0.000026     0.000000     1.082976
	   19 R(8,12)         =      1.339524     0.000156    -0.000031     1.339492
	   20 R(8,21)         =      1.082982     0.000020     0.000013     1.082995
	   21 R(9,10)         =      1.439701    -0.000288     0.000001     1.439702
	   22 R(11,13)        =      1.262813     0.000285    -0.000017     1.262796
	   23 B(1,3,11)       =    122.961299     0.000001     0.010887   122.972185
	   24 B(1,3,16)       =    120.096915     0.000000    -0.002970   120.093944
	   25 B(1,9,2)        =    116.433841    -0.000001    -0.003690   116.430152
	   26 B(1,9,10)       =    121.740646    -0.000000     0.007178   121.747824
	   27 B(2,4,11)       =    122.941641     0.000001     0.010920   122.952561
	   28 B(2,4,17)       =    120.111428     0.000000    -0.003879   120.107549
	   29 B(2,9,10)       =    121.775647     0.000001    -0.001439   121.774208
	   30 B(3,1,9)        =    122.067524    -0.000000    -0.000070   122.067454
	   31 B(3,1,14)       =    118.782549     0.000000    -0.000469   118.782080
	   32 B(3,11,4)       =    113.497423    -0.000001    -0.018814   113.478608
	   33 B(3,11,13)      =    123.254577     0.000001     0.010315   123.264892
	   34 B(4,2,9)        =    122.084819     0.000000     0.000135   122.084954
	   35 B(4,2,15)       =    118.772745     0.000000     0.002598   118.775343
	   36 B(4,11,13)      =    123.247798    -0.000000     0.008548   123.256346
	   37 B(5,7,12)       =    124.445688     0.000001    -0.001717   124.443971
	   38 B(5,7,20)       =    119.550374    -0.000001    -0.000572   119.549803
	   39 B(5,10,6)       =    114.402313    -0.000001    -0.002923   114.399391
	   40 B(5,10,9)       =    122.814316    -0.000001    -0.004495   122.809821
	   41 B(6,8,12)       =    124.439927    -0.000000    -0.002573   124.437355
	   42 B(6,8,21)       =    119.555084     0.000000     0.000821   119.555905
	   43 B(6,10,9)       =    122.761909     0.000002     0.006944   122.768853
	   44 B(7,5,10)       =    120.787985     0.000001     0.003396   120.791381
	   45 B(7,5,18)       =    119.290513    -0.000001     0.005252   119.295765
	   46 B(7,12,8)       =    115.114634    -0.000001     0.002943   115.117576
	   47 B(8,6,10)       =    120.801158     0.000001     0.002539   120.803697
	   48 B(8,6,19)       =    119.282575    -0.000002     0.004632   119.287207
	   49 B(9,1,14)       =    119.104638    -0.000000    -0.001491   119.103147
	   50 B(9,2,15)       =    119.088758    -0.000000    -0.003033   119.085725
	   51 B(10,5,18)      =    119.907037     0.000000    -0.008986   119.898051
	   52 B(10,6,19)      =    119.897948     0.000001    -0.007871   119.890078
	   53 B(11,3,16)      =    116.936002    -0.000001    -0.007982   116.928019
	   54 B(11,4,17)      =    116.944255    -0.000001    -0.006956   116.937300
	   55 B(12,7,20)      =    115.995929     0.000000     0.004952   116.000881
	   56 B(12,8,21)      =    116.000428     0.000000     0.003955   116.004383
	   57 D(1,3,11,4)     =     -0.691916    -0.000000     0.001240    -0.690676
	   58 D(1,3,11,13)    =    179.467010    -0.000000    -0.019335   179.447675
	   59 D(1,9,2,4)      =     -1.220999    -0.000000    -0.013335    -1.234333
	   60 D(1,9,2,15)     =   -178.522570     0.000000    -0.005873  -178.528443
	   61 D(1,9,10,5)     =   -150.239682    -0.000000     0.031254  -150.208428
	   62 D(1,9,10,6)     =     27.980193    -0.000000     0.011667    27.991861
	   63 D(2,4,11,3)     =     -0.153020    -0.000000    -0.044585    -0.197605
	   64 D(2,4,11,13)    =    179.688067    -0.000000    -0.024009   179.664058
	   65 D(2,9,1,3)      =      0.379132    -0.000000    -0.029716     0.349416
	   66 D(2,9,1,14)     =   -177.142398     0.000000     0.025212  -177.117186
	   67 D(2,9,10,5)     =     27.100022     0.000000     0.086362    27.186383
	   68 D(2,9,10,6)     =   -154.680103     0.000000     0.066775  -154.613328
	   69 D(3,1,9,10)     =    177.853603    -0.000000     0.022637   177.876240
	   70 D(3,11,4,17)    =    179.251573    -0.000000    -0.035049   179.216525
	   71 D(4,2,9,10)     =   -178.694514    -0.000000    -0.065938  -178.760452
	   72 D(4,11,3,16)    =    178.432434     0.000000    -0.003780   178.428654
	   73 D(5,7,12,8)     =      0.237743    -0.000000    -0.055831     0.181912
	   74 D(5,10,6,8)     =     -0.314301    -0.000000    -0.088933    -0.403233
	   75 D(5,10,6,19)    =   -178.746235    -0.000000    -0.059343  -178.805578
	   76 D(6,8,12,7)     =      0.450914    -0.000001    -0.089160     0.361755
	   77 D(6,10,5,7)     =      0.948286    -0.000000    -0.044523     0.903764
	   78 D(6,10,5,18)    =   -177.658396    -0.000000    -0.028409  -177.686805
	   79 D(7,5,10,9)     =    179.304526    -0.000000    -0.062440   179.242086
	   80 D(7,12,8,21)    =    179.667809     0.000001     0.130987   179.798797
	   81 D(8,6,10,9)     =   -178.671508    -0.000000    -0.070812  -178.742320
	   82 D(8,12,7,20)    =    179.199921     0.000001     0.134105   179.334026
	   83 D(9,1,3,11)     =      0.588315     0.000000     0.035974     0.624289
	   84 D(9,1,3,16)     =   -178.509379     0.000000     0.041184  -178.468196
	   85 D(9,2,4,11)     =      1.135614     0.000000     0.052451     1.188065
	   86 D(9,2,4,17)     =   -178.250811     0.000000     0.042637  -178.208173
	   87 D(9,10,5,18)    =      0.697844    -0.000000    -0.046327     0.651517
	   88 D(9,10,6,19)    =      2.896558    -0.000000    -0.041223     2.855335
	   89 D(10,5,7,12)    =     -0.974879     0.000001     0.124225    -0.850653
	   90 D(10,5,7,20)    =   -179.902571    -0.000000    -0.072065  -179.974636
	   91 D(10,6,8,12)    =     -0.404991     0.000001     0.166228    -0.238763
	   92 D(10,6,8,21)    =   -179.595859    -0.000000    -0.061251  -179.657110
	   93 D(10,9,1,14)    =      0.332073     0.000000     0.077565     0.409638
	   94 D(10,9,2,15)    =      4.003915    -0.000000    -0.058476     3.945439
	   95 D(11,3,1,14)    =    178.117543    -0.000000    -0.018808   178.098735
	   96 D(11,4,2,15)    =    178.445405     0.000000     0.044865   178.490270
	   97 D(12,7,5,18)    =    177.640296     0.000001     0.108012   177.748307
	   98 D(12,8,6,19)    =    178.036480     0.000001     0.136622   178.173102
	   99 D(13,11,3,16)   =     -1.408640    -0.000000    -0.024354    -1.432995
	  100 D(13,11,4,17)   =     -0.907340     0.000000    -0.014473    -0.921813
	  101 D(14,1,3,16)    =     -0.980151    -0.000000    -0.013599    -0.993750
	  102 D(15,2,4,17)    =     -0.941019     0.000000     0.035051    -0.905968
	  103 D(18,5,7,20)    =     -1.287397    -0.000001    -0.088279    -1.375676
	  104 D(19,6,8,21)    =     -1.154388    -0.000001    -0.090858    -1.245245
	 ---------------------------------------------------------------------------
	Successfully symmetrized geometry.
	 Forces used to impose fixed constraints are not included.
	  Forces zeroed: 61 

  ==> Convergence Check <==

  Measures of convergence in internal coordinates in au.
  Criteria marked as inactive (o), active & met (*), and active & unmet ( ).
  ---------------------------------------------------------------------------------------------
   Step     Total Energy     Delta E     MAX Force     RMS Force      MAX Disp      RMS Disp   
  ---------------------------------------------------------------------------------------------
    Convergence Criteria    1.00e-06 *    3.00e-04 *             o    1.20e-03 *             o
  ---------------------------------------------------------------------------------------------
      7    -553.17878455    8.88e-07 *    4.99e-05 *    1.64e-05 o    2.90e-03      8.00e-04 o  ~
  ---------------------------------------------------------------------------------------------


  **** Optimization is complete! (in 7 steps) ****

  ==> Optimization Summary <==

  Measures of convergence in internal coordinates in au.
  --------------------------------------------------------------------------------------------------------------- ~
   Step         Total Energy             Delta E       MAX Force       RMS Force        MAX Disp        RMS Disp  ~
  --------------------------------------------------------------------------------------------------------------- ~
      1    -553.168557746621   -553.168557746621      0.02603852      0.00700450      0.03686501      0.00979141  ~
      2    -553.174186624562     -0.005628877940      0.01627971      0.00425654      0.03867826      0.00979305  ~
      3    -553.177377147315     -0.003190522754      0.00793650      0.00210528      0.03211377      0.00979988  ~
      4    -553.178593434235     -0.001216286919      0.00201396      0.00051955      0.04209609      0.00980382  ~
      5    -553.178773046283     -0.000179612048      0.00051700      0.00011371      0.01298512      0.00347314  ~
      6    -553.178785434329     -0.000012388046      0.00015556      0.00004335      0.00379079      0.00111102  ~
      7    -553.178784546608      0.000000887720      0.00004985      0.00001642      0.00290123      0.00080014  ~
  --------------------------------------------------------------------------------------------------------------- ~

	Writing optimization data to binary file.
	Final energy is   -553.1787845466084
	Final (previous) structure:
	Cartesian Geometry (in Angstrom)
	    C    -1.2712460826   0.7766032124  -0.5349749043
	    C    -0.3234945381   0.1171510170   1.5550492044
	    C    -2.3560265218   1.3148988344   0.1189693934
	    C    -1.3943766326   0.6664977137   2.2224384522
	    C     1.6132492110  -1.5281775690  -0.0230189938
	    C     1.3254660818  -0.0065189188  -1.8005398736
	    C     2.6635789725  -2.0821213801  -0.7314968934
	    C     2.3791621393  -0.6311222018  -2.4419056482
	    C    -0.2138110276   0.1622118228   0.1555736430
	    C     0.8956470538  -0.4388202525  -0.5376800997
	    C    -2.4905180212   1.3046421879   1.5487501350
	    N     3.0691502456  -1.6623769722  -1.9371738455
	    O    -3.4786279897   1.8055012253   2.1549478334
	    H    -1.2538234316   0.7938329000  -1.6180096333
	    H     0.4793483676  -0.3255180553   2.1323140691
	    H    -3.1644081574   1.7594115027  -0.4461332514
	    H    -1.4326615959   0.6384981627   3.3032750365
	    H     1.3322465234  -1.9574608665   0.9270352516
	    H     0.8475868967   0.8397738367  -2.2711769607
	    H     3.2030645008  -2.9241287037  -0.3157859190
	    H     2.6986927555  -0.2764304306  -3.4139875839
	Saving final (previous) structure.
			--------------------------
			 OPTKING Finished Execution 
			--------------------------

    Final optimized geometry and variables:
    Molecular point group: c1
    Full point group: C1

    Geometry (in Angstrom), charge = -1, multiplicity = 1:

    C           -1.271246082596     0.776603212385    -0.534974904311
    C           -0.323494538114     0.117151017046     1.555049204423
    C           -2.356026521835     1.314898834395     0.118969393394
    C           -1.394376632596     0.666497713709     2.222438452167
    C            1.613249210982    -1.528177569030    -0.023018993838
    C            1.325466081759    -0.006518918798    -1.800539873568
    C            2.663578972494    -2.082121380089    -0.731496893354
    C            2.379162139301    -0.631122201824    -2.441905648224
    C           -0.213811027602     0.162211822762     0.155573642978
    C            0.895647053786    -0.438820252467    -0.537680099685
    C           -2.490518021245     1.304642187900     1.548750135005
    N            3.069150245621    -1.662376972181    -1.937173845471
    O           -3.478627989675     1.805501225253     2.154947833354
    H           -1.253823431573     0.793832900021    -1.618009633320
    H            0.479348367577    -0.325518055333     2.132314069055
    H           -3.164408157397     1.759411502694    -0.446133251388
    H           -1.432661595948     0.638498162721     3.303275036477
    H            1.332246523428    -1.957460866492     0.927035251566
    H            0.847586896682     0.839773836727    -2.271176960740
    H            3.203064500808    -2.924128703714    -0.315785919025
    H            2.698692755503    -0.276430430620    -3.413987583865

	Cleaning optimization helper files.

*** Psi4 exiting successfully. Buy a developer a beer!
