
    -----------------------------------------------------------------------
          Psi4: An Open-Source Ab Initio Electronic Structure Package
                               Psi4 1.1 release

                         Git: Rev {HEAD} add49b9 


    R. M. Parrish, L. A. Burns, D. G. A. Smith, A. C. Simmonett,
    A. E. DePrince III, E. G. Hohenstein, U. Bozkaya, A. Yu. Sokolov,
    R. Di Remigio, R. M. Richard, J. F. Gonthier, A. M. James,
    H. R. McAlexander, A. Kumar, M. Saitow, X. Wang, B. P. Pritchard,
    P. Verma, H. F. Schaefer III, K. Patkowski, R. A. King, E. F. Valeev,
    F. A. Evangelista, J. M. Turney, T. D. Crawford, and C. D. Sherrill,
    J. Chem. Theory Comput. in press (2017).
    (doi: 10.1021/acs.jctc.7b00174)

    -----------------------------------------------------------------------


    Psi4 started on: Saturday, 11 November 2017 06:12PM

    Process ID:   8705
    PSIDATADIR: /cbio/jclab/home/chayas/anaconda/envs/py35/share/psi4
    Memory:     500.0 MiB
    Threads:    8
    
  ==> Input File <==

--------------------------------------------------------------------------

memory 5 Gb

molecule phepyrF {
  symmetry C1
  0 1 
  C      1.885   -1.036   -0.112
  C      0.807   -0.463   0.561
  C      2.921   -1.631   0.608
  C      0.764   -0.484   1.955
  C      3.771   -3.514   3.338
  C      5.180   -1.622   2.868
  C      4.833   -4.063   4.037
  C      6.179   -2.256   3.588
  C      2.878   -1.652   2.002
  C      3.955   -2.270   2.745
  C      1.800   -1.079   2.676
  N      6.037   -3.464   4.178
  F      1.744   -1.089   4.016
  H      1.918   -1.020   -1.198
  H      0.000   -0.000   -0.000
  H      3.755   -2.073   0.068
  H      -0.076   -0.038   2.480
  H      2.830   -4.050   3.263
  H      5.360   -0.651   2.419
  H      4.741   -5.032   4.516
  H      7.152   -1.792   3.714
  units Angstrom
}

dih_string = "3 9 10 5 255"
set optking fixed_dihedral = $dih_string

optimize('MP2/aug-cc-PVTZ')
--------------------------------------------------------------------------

  Memory set to   4.657 GiB by Python driver.
gradient() will perform analytic gradient computation.

*** tstart() called on gpu-2-7.local
*** at Sat Nov 11 18:12:59 2017

    SCF Algorithm Type (re)set to DF.

*** tstart() called on gpu-2-7.local
*** at Sat Nov 11 18:12:59 2017

   => Loading Basis Set <=

    Name: AUG-CC-PVTZ
    Role: ORBITAL
    Keyword: BASIS
    atoms 1-11  entry C          line   221 file /cbio/jclab/home/chayas/anaconda/envs/py35/share/psi4/basis/aug-cc-pvtz.gbs 
    atoms 12    entry N          line   267 file /cbio/jclab/home/chayas/anaconda/envs/py35/share/psi4/basis/aug-cc-pvtz.gbs 
    atoms 13    entry F          line   359 file /cbio/jclab/home/chayas/anaconda/envs/py35/share/psi4/basis/aug-cc-pvtz.gbs 
    atoms 14-21 entry H          line    34 file /cbio/jclab/home/chayas/anaconda/envs/py35/share/psi4/basis/aug-cc-pvtz.gbs 


         ---------------------------------------------------------
                                   SCF
            by Justin Turney, Rob Parrish, and Andy Simmonett
                              RHF Reference
                        8 Threads,   4768 MiB Core
         ---------------------------------------------------------

  ==> Geometry <==

    Molecular point group: c1
    Full point group: C1

    Geometry (in Angstrom), charge = 0, multiplicity = 1:

       Center              X                  Y                   Z               Mass       
    ------------   -----------------  -----------------  -----------------  -----------------
           C         -1.369440366810     0.840799610023    -2.662360898647    12.000000000000
           C         -2.447440366810     1.413799610023    -1.989360898647    12.000000000000
           C         -0.333440366810     0.245799610023    -1.942360898647    12.000000000000
           C         -2.490440366810     1.392799610023    -0.595360898647    12.000000000000
           C          0.516559633190    -1.637200389977     0.787639101353    12.000000000000
           C          1.925559633190     0.254799610023     0.317639101353    12.000000000000
           C          1.578559633190    -2.186200389977     1.486639101353    12.000000000000
           C          2.924559633190    -0.379200389977     1.037639101353    12.000000000000
           C         -0.376440366810     0.224799610023    -0.548360898647    12.000000000000
           C          0.700559633190    -0.393200389977     0.194639101353    12.000000000000
           C         -1.454440366810     0.797799610023     0.125639101353    12.000000000000
           N          2.782559633190    -1.587200389977     1.627639101353    14.003074004780
           F         -1.510440366810     0.787799610023     1.465639101353    18.998403224000
           H         -1.336440366810     0.856799610023    -3.748360898647     1.007825032070
           H         -3.254440366810     1.876799610023    -2.550360898647     1.007825032070
           H          0.500559633190    -0.196200389977    -2.482360898647     1.007825032070
           H         -3.330440366810     1.838799610023    -0.070360898647     1.007825032070
           H         -0.424440366810    -2.173200389977     0.712639101353     1.007825032070
           H          2.105559633190     1.225799610023    -0.131360898647     1.007825032070
           H          1.486559633190    -3.155200389977     1.965639101353     1.007825032070
           H          3.897559633190     0.084799610023     1.163639101353     1.007825032070

  Running in c1 symmetry.

  Rotational constants: A =      0.06382  B =      0.01744  C =      0.01559 [cm^-1]
  Rotational constants: A =   1913.22115  B =    522.89690  C =    467.38014 [MHz]
  Nuclear repulsion =  714.594120625837149

  Charge       = 0
  Multiplicity = 1
  Electrons    = 90
  Nalpha       = 45
  Nbeta        = 45

  ==> Algorithm <==

  SCF Algorithm Type is DF.
  DIIS enabled.
  MOM disabled.
  Fractional occupation disabled.
  Guess Type is SAD.
  Energy threshold   = 1.00e-10
  Density threshold  = 1.00e-10
  Integral threshold = 0.00e+00

  ==> Primary Basis <==

  Basis Set: AUG-CC-PVTZ
    Blend: AUG-CC-PVTZ
    Number of shells: 254
    Number of basis function: 782
    Number of Cartesian functions: 915
    Spherical Harmonics?: true
    Max angular momentum: 3

   => Loading Basis Set <=

    Name: (AUG-CC-PVTZ AUX)
    Role: JKFIT
    Keyword: DF_BASIS_SCF
    atoms 1-11  entry C          line   161 file /cbio/jclab/home/chayas/anaconda/envs/py35/share/psi4/basis/aug-cc-pvtz-jkfit.gbs 
    atoms 12    entry N          line   223 file /cbio/jclab/home/chayas/anaconda/envs/py35/share/psi4/basis/aug-cc-pvtz-jkfit.gbs 
    atoms 13    entry F          line   347 file /cbio/jclab/home/chayas/anaconda/envs/py35/share/psi4/basis/aug-cc-pvtz-jkfit.gbs 
    atoms 14-21 entry H          line    69 file /cbio/jclab/home/chayas/anaconda/envs/py35/share/psi4/basis/aug-cc-pvtz-jkfit.gbs 

  ==> Pre-Iterations <==

   -------------------------------------------------------
    Irrep   Nso     Nmo     Nalpha   Nbeta   Ndocc  Nsocc
   -------------------------------------------------------
     A        782     782       0       0       0       0
   -------------------------------------------------------
    Total     782     782      45      45      45       0
   -------------------------------------------------------

  ==> Integral Setup <==

  ==> DFJK: Density-Fitted J/K Matrices <==

    J tasked:                  Yes
    K tasked:                  Yes
    wK tasked:                  No
    OpenMP threads:              8
    Integrals threads:           8
    Memory (MB):              3576
    Algorithm:                Disk
    Integral Cache:           NONE
    Schwarz Cutoff:          1E-12
    Fitting Condition:       1E-12

   => Auxiliary Basis Set <=

  Basis Set: (AUG-CC-PVTZ AUX)
    Blend: AUG-CC-PVTZ-JKFIT
    Number of shells: 502
    Number of basis function: 1720
    Number of Cartesian functions: 2143
    Spherical Harmonics?: true
    Max angular momentum: 4

  Minimum eigenvalue in the overlap matrix is 6.5773731178E-07.
  Using Symmetric Orthogonalization.

  SCF Guess: Superposition of Atomic Densities via on-the-fly atomic UHF.

  ==> Iterations <==

                           Total Energy        Delta E     RMS |[F,P]|

   @DF-RHF iter   0:  -579.80267736506289   -5.79803e+02   1.92669e-02 
   @DF-RHF iter   1:  -574.94487350866268    4.85780e+00   2.04983e-03 
   @DF-RHF iter   2:  -575.23693467739315   -2.92061e-01   7.05656e-04 DIIS
   @DF-RHF iter   3:  -575.27158373398288   -3.46491e-02   3.47625e-04 DIIS
   @DF-RHF iter   4:  -575.28194646692873   -1.03627e-02   9.19458e-05 DIIS
   @DF-RHF iter   5:  -575.28275604019632   -8.09573e-04   3.50720e-05 DIIS
   @DF-RHF iter   6:  -575.28286059024595   -1.04550e-04   1.27714e-05 DIIS
   @DF-RHF iter   7:  -575.28288424434061   -2.36541e-05   6.04099e-06 DIIS
   @DF-RHF iter   8:  -575.28289016577548   -5.92143e-06   2.26945e-06 DIIS
   @DF-RHF iter   9:  -575.28289146319685   -1.29742e-06   1.04703e-06 DIIS
   @DF-RHF iter  10:  -575.28289174833276   -2.85136e-07   5.10204e-07 DIIS
   @DF-RHF iter  11:  -575.28289181419188   -6.58591e-08   8.66307e-08 DIIS
   @DF-RHF iter  12:  -575.28289181847185   -4.27997e-09   3.16189e-08 DIIS
   @DF-RHF iter  13:  -575.28289181865534   -1.83491e-10   1.89292e-08 DIIS
   @DF-RHF iter  14:  -575.28289181868854   -3.31966e-11   3.60639e-09 DIIS
   @DF-RHF iter  15:  -575.28289181869786   -9.32232e-12   1.63180e-09 DIIS
   @DF-RHF iter  16:  -575.28289181869957   -1.70530e-12   8.53198e-10 DIIS
   @DF-RHF iter  17:  -575.28289181869559    3.97904e-12   5.00548e-10 DIIS
   @DF-RHF iter  18:  -575.28289181869275    2.84217e-12   2.52541e-10 DIIS
   @DF-RHF iter  19:  -575.28289181869172    1.02318e-12   1.02044e-10 DIIS
   @DF-RHF iter  20:  -575.28289181869627   -4.54747e-12   5.45769e-11 DIIS

  ==> Post-Iterations <==

    Orbital Energies (a.u.)
    -----------------------

    Doubly Occupied:                                                      

       1A    -26.321089     2A    -15.567588     3A    -11.340447  
       4A    -11.276641     5A    -11.276223     6A    -11.267428  
       7A    -11.260509     8A    -11.257704     9A    -11.256898  
      10A    -11.254561    11A    -11.249592    12A    -11.241736  
      13A    -11.241029    14A     -1.639373    15A     -1.252437  
      16A     -1.182740    17A     -1.113723    18A     -1.037348  
      19A     -1.033268    20A     -1.025543    21A     -0.892043  
      22A     -0.863281    23A     -0.853560    24A     -0.822673  
      25A     -0.755479    26A     -0.723349    27A     -0.712132  
      28A     -0.706069    29A     -0.668824    30A     -0.667030  
      31A     -0.651953    32A     -0.624903    33A     -0.612289  
      34A     -0.601243    35A     -0.587973    36A     -0.546949  
      37A     -0.533086    38A     -0.527933    39A     -0.513518  
      40A     -0.508289    41A     -0.421292    42A     -0.383583  
      43A     -0.356098    44A     -0.349773    45A     -0.345096  

    Virtual:                                                              

      46A      0.023584    47A      0.031230    48A      0.033645  
      49A      0.035580    50A      0.043669    51A      0.048335  
      52A      0.051660    53A      0.053175    54A      0.076842  
      55A      0.083180    56A      0.086906    57A      0.089929  
      58A      0.091610    59A      0.094056    60A      0.097060  
      61A      0.102669    62A      0.104208    63A      0.107636  
      64A      0.112073    65A      0.113470    66A      0.115288  
      67A      0.117151    68A      0.123210    69A      0.126156  
      70A      0.127177    71A      0.131978    72A      0.133827  
      73A      0.137179    74A      0.138740    75A      0.141503  
      76A      0.143705    77A      0.145270    78A      0.153264  
      79A      0.155780    80A      0.157887    81A      0.168621  
      82A      0.173081    83A      0.176279    84A      0.188231  
      85A      0.190816    86A      0.194531    87A      0.196770  
      88A      0.211003    89A      0.214211    90A      0.226603  
      91A      0.234738    92A      0.236011    93A      0.237767  
      94A      0.242370    95A      0.243471    96A      0.246828  
      97A      0.253069    98A      0.256512    99A      0.261553  
     100A      0.264220   101A      0.267737   102A      0.270945  
     103A      0.271729   104A      0.278540   105A      0.280049  
     106A      0.285770   107A      0.294500   108A      0.297656  
     109A      0.302693   110A      0.305897   111A      0.310225  
     112A      0.311058   113A      0.316549   114A      0.321187  
     115A      0.322968   116A      0.324456   117A      0.325839  
     118A      0.332328   119A      0.336641   120A      0.345755  
     121A      0.346846   122A      0.354652   123A      0.356779  
     124A      0.358188   125A      0.371771   126A      0.379344  
     127A      0.383626   128A      0.389516   129A      0.394208  
     130A      0.397360   131A      0.404991   132A      0.407398  
     133A      0.410818   134A      0.416464   135A      0.421105  
     136A      0.424429   137A      0.429642   138A      0.432783  
     139A      0.435470   140A      0.441890   141A      0.445797  
     142A      0.450508   143A      0.453125   144A      0.456591  
     145A      0.462766   146A      0.465460   147A      0.472829  
     148A      0.474547   149A      0.478008   150A      0.479629  
     151A      0.483982   152A      0.485981   153A      0.490785  
     154A      0.495288   155A      0.499693   156A      0.503051  
     157A      0.507560   158A      0.509832   159A      0.512908  
     160A      0.517241   161A      0.519255   162A      0.520087  
     163A      0.524864   164A      0.527784   165A      0.535877  
     166A      0.539851   167A      0.542694   168A      0.546974  
     169A      0.553784   170A      0.554548   171A      0.558808  
     172A      0.562358   173A      0.570997   174A      0.576556  
     175A      0.578685   176A      0.583173   177A      0.592580  
     178A      0.600798   179A      0.605781   180A      0.611512  
     181A      0.617641   182A      0.626622   183A      0.631697  
     184A      0.634964   185A      0.636079   186A      0.639780  
     187A      0.656619   188A      0.661407   189A      0.665199  
     190A      0.668520   191A      0.672505   192A      0.679513  
     193A      0.686589   194A      0.695907   195A      0.699894  
     196A      0.703882   197A      0.711121   198A      0.711898  
     199A      0.716099   200A      0.723887   201A      0.732931  
     202A      0.737536   203A      0.741316   204A      0.755499  
     205A      0.757253   206A      0.761470   207A      0.766888  
     208A      0.773088   209A      0.775812   210A      0.785203  
     211A      0.787887   212A      0.790458   213A      0.792101  
     214A      0.802836   215A      0.814347   216A      0.823550  
     217A      0.826184   218A      0.832334   219A      0.846984  
     220A      0.852342   221A      0.863279   222A      0.868646  
     223A      0.872817   224A      0.875241   225A      0.879211  
     226A      0.880244   227A      0.883513   228A      0.890367  
     229A      0.893587   230A      0.906342   231A      0.908336  
     232A      0.912175   233A      0.912789   234A      0.920379  
     235A      0.922055   236A      0.926227   237A      0.935161  
     238A      0.940130   239A      0.943067   240A      0.945903  
     241A      0.949986   242A      0.952934   243A      0.962265  
     244A      0.969108   245A      0.971004   246A      0.972000  
     247A      0.976815   248A      0.988775   249A      0.990905  
     250A      0.995105   251A      1.003049   252A      1.009561  
     253A      1.009844   254A      1.015678   255A      1.019206  
     256A      1.026504   257A      1.028672   258A      1.035130  
     259A      1.041149   260A      1.044634   261A      1.049756  
     262A      1.056700   263A      1.066703   264A      1.069441  
     265A      1.073219   266A      1.074561   267A      1.080732  
     268A      1.085527   269A      1.091287   270A      1.094128  
     271A      1.097912   272A      1.101521   273A      1.111015  
     274A      1.112659   275A      1.117948   276A      1.124742  
     277A      1.128308   278A      1.135852   279A      1.139873  
     280A      1.141359   281A      1.154958   282A      1.160739  
     283A      1.166174   284A      1.170589   285A      1.176540  
     286A      1.178900   287A      1.182567   288A      1.185228  
     289A      1.192502   290A      1.194924   291A      1.199925  
     292A      1.205292   293A      1.205661   294A      1.214486  
     295A      1.220654   296A      1.225907   297A      1.234055  
     298A      1.238450   299A      1.240306   300A      1.247069  
     301A      1.251460   302A      1.259197   303A      1.268757  
     304A      1.275036   305A      1.279648   306A      1.284570  
     307A      1.292874   308A      1.301696   309A      1.305893  
     310A      1.308687   311A      1.314136   312A      1.321629  
     313A      1.334180   314A      1.335584   315A      1.347000  
     316A      1.349028   317A      1.364466   318A      1.373117  
     319A      1.376081   320A      1.384064   321A      1.386061  
     322A      1.400578   323A      1.404162   324A      1.414233  
     325A      1.417973   326A      1.423717   327A      1.431251  
     328A      1.433090   329A      1.441417   330A      1.447877  
     331A      1.467365   332A      1.474848   333A      1.485287  
     334A      1.493231   335A      1.495963   336A      1.499687  
     337A      1.514963   338A      1.531538   339A      1.537549  
     340A      1.548471   341A      1.553277   342A      1.562639  
     343A      1.566691   344A      1.568878   345A      1.575431  
     346A      1.592233   347A      1.594856   348A      1.597666  
     349A      1.605869   350A      1.621631   351A      1.626626  
     352A      1.633575   353A      1.642074   354A      1.660598  
     355A      1.669079   356A      1.677262   357A      1.681677  
     358A      1.684649   359A      1.694924   360A      1.699118  
     361A      1.707685   362A      1.715386   363A      1.719498  
     364A      1.727435   365A      1.736067   366A      1.740971  
     367A      1.749726   368A      1.757825   369A      1.760814  
     370A      1.771171   371A      1.772928   372A      1.780603  
     373A      1.789505   374A      1.802083   375A      1.810029  
     376A      1.823927   377A      1.826643   378A      1.831399  
     379A      1.850345   380A      1.855381   381A      1.861179  
     382A      1.871799   383A      1.881495   384A      1.892310  
     385A      1.892628   386A      1.897136   387A      1.907089  
     388A      1.913184   389A      1.917159   390A      1.924696  
     391A      1.941052   392A      1.950252   393A      1.960639  
     394A      1.966617   395A      1.979025   396A      1.983973  
     397A      1.989138   398A      2.003854   399A      2.009145  
     400A      2.014450   401A      2.020964   402A      2.028782  
     403A      2.039071   404A      2.045647   405A      2.053142  
     406A      2.057716   407A      2.068582   408A      2.073589  
     409A      2.076843   410A      2.091462   411A      2.092979  
     412A      2.105609   413A      2.111384   414A      2.112694  
     415A      2.124864   416A      2.131975   417A      2.143011  
     418A      2.144164   419A      2.153603   420A      2.164809  
     421A      2.169648   422A      2.182766   423A      2.190198  
     424A      2.194197   425A      2.205093   426A      2.210960  
     427A      2.218904   428A      2.225633   429A      2.242878  
     430A      2.257749   431A      2.260183   432A      2.272055  
     433A      2.277068   434A      2.286675   435A      2.291646  
     436A      2.311475   437A      2.319225   438A      2.327295  
     439A      2.328622   440A      2.344794   441A      2.356500  
     442A      2.362590   443A      2.376025   444A      2.388574  
     445A      2.402204   446A      2.405006   447A      2.424047  
     448A      2.441346   449A      2.450045   450A      2.464788  
     451A      2.471117   452A      2.480327   453A      2.509454  
     454A      2.517517   455A      2.529464   456A      2.550958  
     457A      2.564535   458A      2.572907   459A      2.574773  
     460A      2.589128   461A      2.594483   462A      2.597307  
     463A      2.610459   464A      2.640209   465A      2.661869  
     466A      2.678422   467A      2.687647   468A      2.716083  
     469A      2.732515   470A      2.753639   471A      2.760964  
     472A      2.767740   473A      2.801141   474A      2.818940  
     475A      2.826531   476A      2.839996   477A      2.863175  
     478A      2.894066   479A      2.940095   480A      2.952137  
     481A      2.982299   482A      3.021181   483A      3.038970  
     484A      3.049222   485A      3.052242   486A      3.062009  
     487A      3.094848   488A      3.124261   489A      3.145020  
     490A      3.149361   491A      3.152926   492A      3.171351  
     493A      3.172173   494A      3.179271   495A      3.200647  
     496A      3.211719   497A      3.225453   498A      3.239290  
     499A      3.256715   500A      3.280815   501A      3.300843  
     502A      3.310106   503A      3.317920   504A      3.321674  
     505A      3.337340   506A      3.358184   507A      3.377123  
     508A      3.388572   509A      3.398082   510A      3.409761  
     511A      3.418109   512A      3.428666   513A      3.430222  
     514A      3.438045   515A      3.439254   516A      3.446818  
     517A      3.457493   518A      3.461946   519A      3.470881  
     520A      3.481344   521A      3.491623   522A      3.502695  
     523A      3.513769   524A      3.518413   525A      3.531323  
     526A      3.535170   527A      3.539457   528A      3.547810  
     529A      3.554182   530A      3.571993   531A      3.578617  
     532A      3.585326   533A      3.585993   534A      3.598706  
     535A      3.605262   536A      3.613147   537A      3.621358  
     538A      3.623678   539A      3.631208   540A      3.649258  
     541A      3.655388   542A      3.679726   543A      3.686787  
     544A      3.701746   545A      3.706848   546A      3.708011  
     547A      3.711722   548A      3.713707   549A      3.726663  
     550A      3.735382   551A      3.745973   552A      3.752394  
     553A      3.772779   554A      3.784677   555A      3.802151  
     556A      3.807664   557A      3.811984   558A      3.822239  
     559A      3.827656   560A      3.832724   561A      3.845164  
     562A      3.855096   563A      3.861709   564A      3.863503  
     565A      3.868046   566A      3.886624   567A      3.900825  
     568A      3.906129   569A      3.912124   570A      3.922473  
     571A      3.932399   572A      3.940177   573A      3.942872  
     574A      3.953411   575A      3.960968   576A      3.963740  
     577A      3.972217   578A      3.981184   579A      3.999996  
     580A      4.004703   581A      4.006904   582A      4.021842  
     583A      4.026882   584A      4.036216   585A      4.050797  
     586A      4.059551   587A      4.061601   588A      4.068719  
     589A      4.077470   590A      4.095586   591A      4.100614  
     592A      4.107346   593A      4.122343   594A      4.124240  
     595A      4.133170   596A      4.150285   597A      4.151887  
     598A      4.159350   599A      4.172612   600A      4.197080  
     601A      4.206414   602A      4.211705   603A      4.213758  
     604A      4.225679   605A      4.236987   606A      4.244712  
     607A      4.248390   608A      4.262210   609A      4.267543  
     610A      4.271975   611A      4.287966   612A      4.295091  
     613A      4.301148   614A      4.317747   615A      4.331035  
     616A      4.340332   617A      4.349891   618A      4.355431  
     619A      4.369308   620A      4.377737   621A      4.387590  
     622A      4.398447   623A      4.407731   624A      4.413634  
     625A      4.428442   626A      4.432436   627A      4.435892  
     628A      4.445805   629A      4.446463   630A      4.465072  
     631A      4.469998   632A      4.492364   633A      4.499931  
     634A      4.508746   635A      4.518929   636A      4.522839  
     637A      4.555156   638A      4.556298   639A      4.579305  
     640A      4.597666   641A      4.602282   642A      4.620548  
     643A      4.644419   644A      4.648200   645A      4.663287  
     646A      4.682635   647A      4.686517   648A      4.700216  
     649A      4.725334   650A      4.737315   651A      4.750612  
     652A      4.757128   653A      4.766269   654A      4.778612  
     655A      4.803922   656A      4.828134   657A      4.847026  
     658A      4.865511   659A      4.867999   660A      4.895926  
     661A      4.905475   662A      4.913547   663A      4.929950  
     664A      4.948470   665A      4.961978   666A      4.967802  
     667A      4.984531   668A      4.994813   669A      5.007905  
     670A      5.020692   671A      5.023513   672A      5.032393  
     673A      5.049771   674A      5.057086   675A      5.078200  
     676A      5.086876   677A      5.113076   678A      5.115699  
     679A      5.122383   680A      5.139756   681A      5.141207  
     682A      5.157836   683A      5.162421   684A      5.166774  
     685A      5.171551   686A      5.175067   687A      5.185416  
     688A      5.195958   689A      5.201031   690A      5.229114  
     691A      5.272276   692A      5.284979   693A      5.309799  
     694A      5.325821   695A      5.332628   696A      5.347173  
     697A      5.353639   698A      5.364489   699A      5.383260  
     700A      5.391761   701A      5.428476   702A      5.435815  
     703A      5.453723   704A      5.470325   705A      5.480723  
     706A      5.525463   707A      5.533618   708A      5.547426  
     709A      5.555123   710A      5.588013   711A      5.629600  
     712A      5.633440   713A      5.653482   714A      5.689515  
     715A      5.729707   716A      5.751942   717A      5.788419  
     718A      5.789918   719A      5.800553   720A      5.831451  
     721A      5.840526   722A      5.878815   723A      5.884473  
     724A      5.910145   725A      5.948833   726A      6.003960  
     727A      6.050008   728A      6.078317   729A      6.107275  
     730A      6.174029   731A      6.196087   732A      6.220697  
     733A      6.229724   734A      6.245654   735A      6.273521  
     736A      6.285078   737A      6.340801   738A      6.348504  
     739A      6.370631   740A      6.470316   741A      6.506661  
     742A      6.558236   743A      6.567271   744A      6.668498  
     745A      6.691863   746A      6.701342   747A      6.738949  
     748A      6.824311   749A      6.874415   750A      6.923952  
     751A      6.987085   752A      7.035278   753A      7.057517  
     754A      7.065521   755A      7.284798   756A      7.408548  
     757A      7.479594   758A      8.990991   759A      9.046244  
     760A      9.271952   761A      9.288347   762A      9.404455  
     763A      9.510644   764A      9.532945   765A      9.588012  
     766A      9.655966   767A      9.713760   768A     10.018382  
     769A     10.074360   770A     15.562140   771A     16.057550  
     772A     16.444555   773A     16.550439   774A     16.716473  
     775A     18.474975   776A     18.745406   777A     19.016728  
     778A     19.406339   779A     20.066908   780A     20.127857  
     781A     20.203432   782A     21.845469  

    Final Occupation by Irrep:
              A 
    DOCC [    45 ]

  Energy converged.

  @DF-RHF Final Energy:  -575.28289181869627

   => Energetics <=

    Nuclear Repulsion Energy =            714.5941206258371494
    One-Electron Energy =               -2201.1054343551622878
    Two-Electron Energy =                 911.2284219106288674
    DFT Exchange-Correlation Energy =       0.0000000000000000
    Empirical Dispersion Energy =           0.0000000000000000
    PCM Polarization Energy =               0.0000000000000000
    EFP Energy =                            0.0000000000000000
    Total Energy =                       -575.2828918186962710



Properties will be evaluated at   0.000000,   0.000000,   0.000000 Bohr

Properties computed using the SCF density matrix

  Nuclear Dipole Moment: (a.u.)
     X:     1.0835      Y:    -0.4026      Z:    -6.2068

  Electronic Dipole Moment: (a.u.)
     X:    -1.8056      Y:     0.8278      Z:     5.0800

  Dipole Moment: (a.u.)
     X:    -0.7221      Y:     0.4252      Z:    -1.1268     Total:     1.4042

  Dipole Moment: (Debye)
     X:    -1.8353      Y:     1.0807      Z:    -2.8640     Total:     3.5691


*** tstop() called on gpu-2-7.local at Sat Nov 11 18:19:51 2017
Module time:
	user time   =    1003.56 seconds =      16.73 minutes
	system time =      54.85 seconds =       0.91 minutes
	total time  =        412 seconds =       6.87 minutes
Total time:
	user time   =    1003.57 seconds =      16.73 minutes
	system time =      54.85 seconds =       0.91 minutes
	total time  =        412 seconds =       6.87 minutes

  //>>>>>>>>>>>>>>>>>>>>>>>>>>>>>>>>>>>//
  //               DFMP2               //
  //<<<<<<<<<<<<<<<<<<<<<<<<<<<<<<<<<<<//

   => Loading Basis Set <=

    Name: (AUG-CC-PVTZ AUX)
    Role: RIFIT
    Keyword: DF_BASIS_MP2
    atoms 1-11  entry C          line   147 file /cbio/jclab/home/chayas/anaconda/envs/py35/share/psi4/basis/aug-cc-pvtz-ri.gbs 
    atoms 12    entry N          line   205 file /cbio/jclab/home/chayas/anaconda/envs/py35/share/psi4/basis/aug-cc-pvtz-ri.gbs 
    atoms 13    entry F          line   321 file /cbio/jclab/home/chayas/anaconda/envs/py35/share/psi4/basis/aug-cc-pvtz-ri.gbs 
    atoms 14-21 entry H          line    29 file /cbio/jclab/home/chayas/anaconda/envs/py35/share/psi4/basis/aug-cc-pvtz-ri.gbs 

	 --------------------------------------------------------
	                          DF-MP2                         
	      2nd-Order Density-Fitted Moller-Plesset Theory     
	              RMP2 Wavefunction,   8 Threads             
	                                                         
	        Rob Parrish, Justin Turney, Andy Simmonett,      
	           Ed Hohenstein, and C. David Sherrill          
	 --------------------------------------------------------

   => Auxiliary Basis Set <=

  Basis Set: (AUG-CC-PVTZ AUX)
    Blend: AUG-CC-PVTZ-RI
    Number of shells: 476
    Number of basis function: 1746
    Number of Cartesian functions: 2208
    Spherical Harmonics?: true
    Max angular momentum: 4

	 --------------------------------------------------------
	                 NBF =   782, NAUX =  1746
	 --------------------------------------------------------
	   CLASS    FOCC     OCC    AOCC    AVIR     VIR    FVIR
	   PAIRS       0      45      45     737     737       0
	 --------------------------------------------------------


         ------------------------------------------------------------
                                     CPHF                           
                                  Rob Parrish                       
         ------------------------------------------------------------

  ==> Geometry <==

    Molecular point group: c1
    Full point group: C1

    Geometry (in Angstrom), charge = 0, multiplicity = 1:

       Center              X                  Y                   Z               Mass       
    ------------   -----------------  -----------------  -----------------  -----------------
           C         -1.369440366810     0.840799610023    -2.662360898647    12.000000000000
           C         -2.447440366810     1.413799610023    -1.989360898647    12.000000000000
           C         -0.333440366810     0.245799610023    -1.942360898647    12.000000000000
           C         -2.490440366810     1.392799610023    -0.595360898647    12.000000000000
           C          0.516559633190    -1.637200389977     0.787639101353    12.000000000000
           C          1.925559633190     0.254799610023     0.317639101353    12.000000000000
           C          1.578559633190    -2.186200389977     1.486639101353    12.000000000000
           C          2.924559633190    -0.379200389977     1.037639101353    12.000000000000
           C         -0.376440366810     0.224799610023    -0.548360898647    12.000000000000
           C          0.700559633190    -0.393200389977     0.194639101353    12.000000000000
           C         -1.454440366810     0.797799610023     0.125639101353    12.000000000000
           N          2.782559633190    -1.587200389977     1.627639101353    14.003074004780
           F         -1.510440366810     0.787799610023     1.465639101353    18.998403224000
           H         -1.336440366810     0.856799610023    -3.748360898647     1.007825032070
           H         -3.254440366810     1.876799610023    -2.550360898647     1.007825032070
           H          0.500559633190    -0.196200389977    -2.482360898647     1.007825032070
           H         -3.330440366810     1.838799610023    -0.070360898647     1.007825032070
           H         -0.424440366810    -2.173200389977     0.712639101353     1.007825032070
           H          2.105559633190     1.225799610023    -0.131360898647     1.007825032070
           H          1.486559633190    -3.155200389977     1.965639101353     1.007825032070
           H          3.897559633190     0.084799610023     1.163639101353     1.007825032070

  Nuclear repulsion =  714.594120625837149
  Reference energy  = -575.282891818696271

  ==> Basis Set <==

  Basis Set: AUG-CC-PVTZ
    Blend: AUG-CC-PVTZ
    Number of shells: 254
    Number of basis function: 782
    Number of Cartesian functions: 915
    Spherical Harmonics?: true
    Max angular momentum: 3

  ==> CGRSolver (by Rob Parrish) <==

   Number of roots    =         1
   Preconditioning    =    JACOBI
   Convergence cutoff =     1E-06
   Maximum iterations =       100

  ==> CPHFRHamiltonian (by Rob Parrish) <== 

  ==> DFJK: Density-Fitted J/K Matrices <==

    J tasked:                  Yes
    K tasked:                  Yes
    wK tasked:                  No
    OpenMP threads:              8
    Integrals threads:           8
    Memory (MB):              3576
    Algorithm:                Disk
    Integral Cache:           NONE
    Schwarz Cutoff:          1E-12
    Fitting Condition:       1E-12

   => Auxiliary Basis Set <=

  Basis Set: (AUG-CC-PVTZ AUX)
    Blend: AUG-CC-PVTZ-JKFIT
    Number of shells: 502
    Number of basis function: 1720
    Number of Cartesian functions: 2143
    Spherical Harmonics?: true
    Max angular momentum: 4

  ==> CPHF Iterations <==

  => Iterations <=

             Iter  Converged  Remaining    Residual
  CGR           1          0          1   9.743E-02
  CGR           2          0          1   2.970E-02
  CGR           3          0          1   1.888E-02
  CGR           4          0          1   9.394E-03
  CGR           5          0          1   3.634E-03
  CGR           6          0          1   1.294E-03
  CGR           7          0          1   3.700E-04
  CGR           8          0          1   1.221E-04
  CGR           9          0          1   4.293E-05
  CGR          10          0          1   1.146E-05
  CGR          11          0          1   4.790E-06
  CGR          12          0          1   1.982E-06
  CGR          13          1          0   9.206E-07

    CGRSolver converged.

  ==> DFCorrGrad: Density-Fitted Correlated Gradients <==

    OpenMP threads:              8
    Integrals threads:           8
    Memory (MB):              3576
    Schwarz Cutoff:          0E+00
    Fitting Condition:       1E-12

   => Auxiliary Basis Set <=

  Basis Set: (AUG-CC-PVTZ AUX)
    Blend: AUG-CC-PVTZ-JKFIT
    Number of shells: 502
    Number of basis function: 1720
    Number of Cartesian functions: 2143
    Spherical Harmonics?: true
    Max angular momentum: 4

	-----------------------------------------------------------
	 ==================> DF-MP2 Energies <==================== 
	-----------------------------------------------------------
	 Reference Energy          =    -575.2828918186962710 [Eh]
	 Singles Energy            =      -0.0000000000000003 [Eh]
	 Same-Spin Energy          =      -0.6075388482851369 [Eh]
	 Opposite-Spin Energy      =      -1.8318641581267654 [Eh]
	 Correlation Energy        =      -2.4394030064119030 [Eh]
	 Total Energy              =    -577.7222948251081789 [Eh]
	-----------------------------------------------------------
	 ================> DF-SCS-MP2 Energies <================== 
	-----------------------------------------------------------
	 SCS Same-Spin Scale       =       0.3333333333333333 [-]
	 SCS Opposite-Spin Scale   =       1.2000000000000000 [-]
	 SCS Same-Spin Energy      =      -0.2025129494283790 [Eh]
	 SCS Opposite-Spin Energy  =      -2.1982369897521186 [Eh]
	 SCS Correlation Energy    =      -2.4007499391804981 [Eh]
	 SCS Total Energy          =    -577.6836417578767851 [Eh]
	-----------------------------------------------------------


  -Total Gradient:
     Atom            X                  Y                   Z
    ------   -----------------  -----------------  -----------------
       1       -0.000492795276     0.000265509041     0.000764354776
       2       -0.004094557950     0.002281727165    -0.002088181793
       3        0.010608198889    -0.007691715653     0.005392296215
       4        0.001174356898    -0.000326140620    -0.003998000072
       5       -0.005842577123    -0.000981287086    -0.002903987421
       6       -0.001090655265     0.006428621989    -0.002568539465
       7       -0.013834103423    -0.001206447871    -0.004360823427
       8       -0.004765517237     0.011621505493    -0.007640328773
       9        0.005089470878    -0.002643980293     0.000103919142
      10       -0.003675411342     0.001411112862    -0.004129974290
      11        0.009231157139    -0.004541317603     0.023227719114
      12        0.013091772232    -0.007619311152     0.008965240432
      13       -0.002773927194     0.001356868154     0.002514368041
      14        0.000173543946     0.000148514403    -0.005308248563
      15       -0.003567183010     0.002119633391    -0.003848698944
      16        0.002780484074    -0.001035729022    -0.006648257353
      17       -0.005027633507     0.002546561047     0.000879556992
      18       -0.003136419089    -0.003988193711     0.000785259364
      19        0.002787222056     0.003511888327    -0.001237206028
      20        0.000450959037    -0.002420115971     0.001418084135
      21        0.002913615270     0.000762297111     0.000681447907


*** tstop() called on gpu-2-7.local at Sat Nov 11 18:47:21 2017
Module time:
	user time   =    4554.92 seconds =      75.92 minutes
	system time =     114.06 seconds =       1.90 minutes
	total time  =       2062 seconds =      34.37 minutes
Total time:
	user time   =    4554.93 seconds =      75.92 minutes
	system time =     114.06 seconds =       1.90 minutes
	total time  =       2062 seconds =      34.37 minutes

			-----------------------------------------
			 OPTKING 2.0: for geometry optimizations 
			  - R.A. King,  Bethel University        
			-----------------------------------------

	Internal coordinates to be generated automatically.
	Detected frag 1 with atoms:  1 2 3 4 5 6 7 8 9 10 11 12 13 14 15 16 17 18 19 20
	 21
	---Fragment 1 Bond Connectivity---
	 1 : 2 3 14
	 2 : 1 4 15
	 3 : 1 9 16
	 4 : 2 11 17
	 5 : 7 10 18
	 6 : 8 10 19
	 7 : 5 12 20
	 8 : 6 12 21
	 9 : 3 10 11
	 10 : 5 6 9
	 11 : 4 9 13
	 12 : 7 8
	 13 : 11
	 14 : 1
	 15 : 2
	 16 : 3
	 17 : 4
	 18 : 5
	 19 : 6
	 20 : 7
	 21 : 8

	Assuming in current code that numbering for constraints corresponds to unified fragment.
	Fixed dihedral atom list: 
	     3     9    10     5
	---Fragment 1 Geometry and Gradient---
	 C          -2.5878672486        1.5888809956       -5.0311329653
	 C          -4.6249920198        2.6716940697       -3.7593472779
	 C          -0.6301109749        0.4644939465       -3.6705301497
	 C          -4.7062502436        2.6320098209       -1.1250690487
	 C           0.9761562380       -3.0938603617        1.4884221931
	 C           3.6387803593        0.4815014817        0.6002509107
	 C           2.9830453912       -4.1313200087        2.8093407600
	 C           5.5266167660       -0.7165848865        1.9608537263
	 C          -0.7113691986        0.4248096977       -1.0362519204
	 C           1.3238658465       -0.7430410524        0.3678145963
	 C          -2.7484939699        1.5076227719        0.2374234931
	 N           5.2582756552       -2.9993740551        3.0757921447
	 F          -2.8543186333        1.4887255105        2.7696565112
	 H          -2.5255062862        1.6191166137       -7.0833755457
	 H          -6.1500010091        3.5466372693       -4.8194836385
	 H           0.9459206199       -0.3707650042       -4.6909822614
	 H          -6.2936201952        3.4748276762       -0.1329628289
	 H          -0.8020760530       -4.1067535689        1.3466927331
	 H           3.9789310632        2.3164255567       -0.2482361230
	 H           2.8091905869       -5.9624646314        3.7145195776
	 H           7.3653202933        0.1602480391        2.1989592191
	            -0.0004927953        0.0002655090        0.0007643548
	            -0.0040945579        0.0022817272       -0.0020881818
	             0.0106081989       -0.0076917157        0.0053922962
	             0.0011743569       -0.0003261406       -0.0039980001
	            -0.0058425771       -0.0009812871       -0.0029039874
	            -0.0010906553        0.0064286220       -0.0025685395
	            -0.0138341034       -0.0012064479       -0.0043608234
	            -0.0047655172        0.0116215055       -0.0076403288
	             0.0050894709       -0.0026439803        0.0001039191
	            -0.0036754113        0.0014111129       -0.0041299743
	             0.0092311571       -0.0045413176        0.0232277191
	             0.0130917722       -0.0076193112        0.0089652404
	            -0.0027739272        0.0013568682        0.0025143680
	             0.0001735439        0.0001485144       -0.0053082486
	            -0.0035671830        0.0021196334       -0.0038486989
	             0.0027804841       -0.0010357290       -0.0066482574
	            -0.0050276335        0.0025465610        0.0008795570
	            -0.0031364191       -0.0039881937        0.0007852594
	             0.0027872221        0.0035118883       -0.0012372060
	             0.0004509590       -0.0024201160        0.0014180841
	             0.0029136153        0.0007622971        0.0006814479

	Previous optimization step data not found.  Starting new optimization.

	---Fragment 1 Intrafragment Coordinates---
	 - Coordinate -           - BOHR/RAD -       - ANG/DEG -
	 R(1,2)           =         2.634350	       1.394038
	 R(1,3)           =         2.635962	       1.394891
	 R(1,14)          =         2.053412	       1.086619
	 R(2,4)           =         2.635830	       1.394821
	 R(2,15)          =         2.053063	       1.086434
	 R(3,9)           =         2.635830	       1.394821
	 R(3,16)          =         2.054959	       1.087437
	 R(4,11)          =         2.636938	       1.395407
	 R(4,17)          =         2.052891	       1.086343
	 R(5,7)           =         2.617012	       1.384863
	 R(5,10)          =         2.627359	       1.390338
	 R(5,18)          =         2.051378	       1.085542
	 R(6,8)           =         2.617361	       1.385048
	 R(6,10)          =         2.629137	       1.391279
	 R(6,19)          =         2.050019	       1.084823
	 R(7,12)          =         2.555185	       1.352146
	 R(7,20)          =         2.050040	       1.084835
	 R(8,12)          =         2.554647	       1.351861
	 R(8,21)          =         2.050941	       1.085311
	 R(9,10)          =         2.734494	       1.447032
	 R(9,11)          =         2.635263	       1.394521
	 R(11,13)         =         2.534514	       1.341207
	 B(1,2,4)         =         2.094553	     120.009056
	 B(1,2,15)        =         2.094721	     120.018646
	 B(1,3,9)         =         2.093692	     119.959722
	 B(1,3,16)        =         2.079074	     119.122177
	 B(2,1,3)         =         2.094940	     120.031219
	 B(2,1,14)        =         2.094311	     119.995189
	 B(2,4,11)        =         2.094306	     119.994870
	 B(2,4,17)        =         2.095140	     120.042665
	 B(3,1,14)        =         2.093934	     119.973570
	 B(3,9,10)        =         2.090528	     119.778448
	 B(3,9,11)        =         2.095181	     120.045019
	 B(4,2,15)        =         2.093912	     119.972298
	 B(4,11,9)        =         2.093699	     119.960108
	 B(4,11,13)       =         2.081063	     119.236128
	 B(5,7,12)        =         2.165012	     124.046026
	 B(5,7,20)        =         2.108227	     120.792529
	 B(5,10,6)        =         2.089268	     119.706240
	 B(5,10,9)        =         2.097434	     120.174139
	 B(6,8,12)        =         2.165359	     124.065940
	 B(6,8,21)        =         2.107478	     120.749605
	 B(6,10,9)        =         2.096482	     120.119596
	 B(7,5,10)        =         2.058384	     117.936694
	 B(7,5,18)        =         2.098886	     120.257312
	 B(7,12,8)        =         2.030718	     116.351564
	 B(8,6,10)        =         2.057630	     117.893535
	 B(8,6,19)        =         2.100406	     120.344396
	 B(9,3,16)        =         2.110419	     120.918077
	 B(9,11,13)       =         2.108422	     120.803676
	 B(10,5,18)       =         2.125915	     121.805978
	 B(10,6,19)       =         2.125149	     121.762068
	 B(10,9,11)       =         2.097476	     120.176533
	 B(11,4,17)       =         2.093740	     119.962450
	 B(12,7,20)       =         2.009944	     115.161318
	 B(12,8,21)       =         2.010347	     115.184412
	 D(1,2,4,11)      =        -0.000325	      -0.018609
	 D(1,2,4,17)      =        -3.141151	    -179.974682
	 D(1,3,9,10)      =        -3.141334	    -179.985190
	 D(1,3,9,11)      =         0.000325	       0.018608
	 D(2,1,3,9)       =        -0.000348	      -0.019945
	 D(2,1,3,16)      =        -3.140969	    -179.964243
	 D(2,4,11,9)      =         0.000301	       0.017261
	 D(2,4,11,13)     =         3.140029	     179.910408
	 D(3,1,2,4)       =         0.000348	       0.019955
	 D(3,1,2,15)      =        -3.141142	    -179.974167
	 D(3,9,10,5)      =        -1.832569	    -104.998491
	 D(3,9,10,6)      =         1.308018	      74.943891
	 D(3,9,11,4)      =        -0.000301	      -0.017270
	 D(3,9,11,13)     =        -3.139999	    -179.908714
	 D(4,2,1,14)      =         3.141002	     179.966134
	 D(4,11,9,10)     =         3.141358	     179.986543
	 D(5,7,12,8)      =         0.000000	       0.000000
	 D(5,10,6,8)      =         0.000136	       0.007798
	 D(5,10,6,19)     =         3.141547	     179.997365
	 D(5,10,9,11)     =         1.308957	      74.997706
	 D(6,8,12,7)      =         0.000174	       0.009974
	 D(6,10,5,7)      =         0.000021	       0.001213
	 D(6,10,5,18)     =        -3.140775	    -179.953130
	 D(6,10,9,11)     =        -1.833641	    -105.059912
	 D(7,5,10,9)      =         3.140612	     179.943834
	 D(7,12,8,21)     =         3.140448	     179.934421
	 D(8,6,10,9)      =        -3.140456	    -179.934855
	 D(8,12,7,20)     =         3.139338	     179.870821
	 D(9,3,1,14)      =        -3.141002	    -179.966136
	 D(9,10,5,18)     =        -0.000183	      -0.010509
	 D(9,10,6,19)     =         0.000955	       0.054713
	 D(9,11,4,17)     =         3.141128	     179.973370
	 D(10,5,7,12)     =        -0.000095	      -0.005462
	 D(10,5,7,20)     =        -3.139311	    -179.869257
	 D(10,6,8,12)     =        -0.000244	      -0.013986
	 D(10,6,8,21)     =        -3.140448	    -179.934429
	 D(10,9,3,16)     =        -0.000731	      -0.041910
	 D(10,9,11,13)    =         0.001660	       0.095099
	 D(11,4,2,15)     =         3.141165	     179.975516
	 D(11,9,3,16)     =         3.140927	     179.961888
	 D(12,7,5,18)     =         3.140713	     179.949618
	 D(12,8,6,19)     =         3.141528	     179.996292
	 D(13,11,4,17)    =        -0.002330	      -0.133484
	 D(14,1,2,15)     =        -0.000488	      -0.027988
	 D(14,1,3,16)     =         0.001563	       0.089566
	 D(15,2,4,17)     =         0.000339	       0.019443
	 D(18,5,7,20)     =         0.001498	       0.085822
	 D(19,6,8,21)     =         0.001324	       0.075849
	 R(5,13)          =         6.108534	       3.232497

	Current energy   :      -577.7222948251

	Generating empirical Hessian (Schlegel '84) for each fragment.
	Adding user-defined constraint: Fragment 1; Coordinate 67:
		Value =    -1.832569; Fixed value    =    -1.832596
		Force =    -0.000013; Force constant =     0.500000
	Removing off-diagonal coupling between coordinate 67 and others.
	Taking RFO optimization step.
	Going to follow RFO solution 1.
	Using RFO vector 1.

	Determining step-restricting scale parameter for RS-RFO.
	Maximum step size allowed    0.10000

	 Iter      |step|        alpha        rfo_root  
	------------------------------------------------
	    0     0.15399       1.00000           1
	    1     0.12952       6.02864           1
	    2     0.11022      16.97361           1
	    3     0.10154      25.15967           1
	    4     0.10004      26.85806           1
	    5     0.10000      26.90778           1
	------------------------------------------------
	Norm of target step-size    0.10000
	Projected energy change by RFO approximation:        -0.0041238831

	Back-transformation to cartesian coordinates...
	Could not converge backtransformation.
	Using first guess instead.

	--- Internal Coordinate Step in ANG or DEG, aJ/ANG or AJ/DEG ---
	 ---------------------------------------------------------------------------
	   Coordinate                Previous        Force       Change         New 
	   ----------                --------       ------       ------       ------
	    1 R(1,2)          =      1.394038    -0.048364    -0.005269     1.388769
	    2 R(1,3)          =      1.394891    -0.051140    -0.005529     1.389363
	    3 R(1,14)         =      1.086619    -0.043769    -0.005991     1.080628
	    4 R(2,4)          =      1.394821    -0.067467    -0.007513     1.387308
	    5 R(2,15)         =      1.086434    -0.045645    -0.006221     1.080213
	    6 R(3,9)          =      1.394821    -0.030058    -0.003141     1.391680
	    7 R(3,16)         =      1.087437    -0.048236    -0.006567     1.080870
	    8 R(4,11)         =      1.395407    -0.103860    -0.011483     1.383925
	    9 R(4,17)         =      1.086343    -0.044144    -0.005923     1.080420
	   10 R(5,7)          =      1.384863     0.009034     0.000965     1.385828
	   11 R(5,10)         =      1.390338    -0.022424    -0.001969     1.388370
	   12 R(5,18)         =      1.085542    -0.038176    -0.005209     1.080334
	   13 R(6,8)          =      1.385048     0.010963     0.001159     1.386207
	   14 R(6,10)         =      1.391279    -0.029052    -0.002705     1.388574
	   15 R(6,19)         =      1.084823    -0.033927    -0.004621     1.080202
	   16 R(7,12)         =      1.352146    -0.120265    -0.011945     1.340201
	   17 R(7,20)         =      1.084835    -0.022653    -0.003077     1.081757
	   18 R(8,12)         =      1.351861    -0.121101    -0.012012     1.339849
	   19 R(8,21)         =      1.085311    -0.024857    -0.003390     1.081921
	   20 R(9,10)         =      1.447032     0.153546     0.019652     1.466684
	   21 R(9,11)         =      1.394521    -0.061598    -0.006644     1.387877
	   22 R(11,13)        =      1.341207    -0.021481    -0.001941     1.339266
	   23 B(1,2,4)        =    120.009056     0.000044     0.098491   120.107547
	   24 B(1,2,15)       =    120.018646     0.000068     0.197649   120.216294
	   25 B(1,3,9)        =    119.959722     0.000286     0.678495   120.638216
	   26 B(1,3,16)       =    119.122177     0.000195     0.583146   119.705323
	   27 B(2,1,3)        =    120.031219    -0.000093    -0.174548   119.856671
	   28 B(2,1,14)       =    119.995189     0.000048     0.092101   120.087290
	   29 B(2,4,11)       =    119.994870    -0.000272    -0.644707   119.350163
	   30 B(2,4,17)       =    120.042665     0.000288     0.737326   120.779991
	   31 B(3,1,14)       =    119.973570     0.000045     0.082437   120.056006
	   32 B(3,9,10)       =    119.778448     0.000488     0.985859   120.764306
	   33 B(3,9,11)       =    120.045019    -0.000745    -1.534988   118.510032
	   34 B(4,2,15)       =    119.972298    -0.000112    -0.296142   119.676155
	   35 B(4,11,9)       =    119.960108     0.000780     1.577226   121.537334
	   36 B(4,11,13)      =    119.236128    -0.000105    -0.214118   119.022009
	   37 B(5,7,12)       =    124.046026    -0.000027    -0.131433   123.914593
	   38 B(5,7,20)       =    120.792529    -0.000042    -0.086265   120.706264
	   39 B(5,10,6)       =    119.706240    -0.000793    -1.523573   118.182667
	   40 B(5,10,9)       =    120.174139     0.000414     0.802807   120.976946
	   41 B(6,8,12)       =    124.065940    -0.000033    -0.147123   123.918817
	   42 B(6,8,21)       =    120.749605    -0.000035    -0.066541   120.683064
	   43 B(6,10,9)       =    120.119596     0.000379     0.720351   120.839947
	   44 B(7,5,10)       =    117.936694     0.000346     0.830997   118.767691
	   45 B(7,5,18)       =    120.257312    -0.000001     0.054218   120.311530
	   46 B(7,12,8)       =    116.351564     0.000148     0.115369   116.466933
	   47 B(8,6,10)       =    117.893535     0.000358     0.855758   118.749293
	   48 B(8,6,19)       =    120.344396    -0.000013     0.025360   120.369756
	   49 B(9,3,16)       =    120.918077    -0.000481    -1.261618   119.656459
	   50 B(9,11,13)      =    120.803676    -0.000675    -1.363232   119.440445
	   51 B(10,5,18)      =    121.805978    -0.000345    -0.885228   120.920750
	   52 B(10,6,19)      =    121.762068    -0.000346    -0.881119   120.880949
	   53 B(10,9,11)      =    120.176533     0.000257     0.549063   120.725597
	   54 B(11,4,17)      =    119.962450    -0.000016    -0.092609   119.869841
	   55 B(12,7,20)      =    115.161318     0.000069     0.217708   115.379026
	   56 B(12,8,21)      =    115.184412     0.000068     0.213625   115.398037
	   57 D(1,2,4,11)     =     -0.018609    -0.000000    -0.004185    -0.022794
	   58 D(1,2,4,17)     =   -179.974682    -0.000001    -0.023339  -179.998021
	   59 D(1,3,9,10)     =   -179.985190    -0.000002    -0.065317  -180.050507
	   60 D(1,3,9,11)     =      0.018608     0.000000     0.023368     0.041975
	   61 D(2,1,3,9)      =     -0.019945     0.000001     0.017008    -0.002937
	   62 D(2,1,3,16)     =   -179.964243    -0.000002    -0.050480  -180.014723
	   63 D(2,4,11,9)     =      0.017261     0.000001     0.046565     0.063826
	   64 D(2,4,11,13)    =    179.910408    -0.000001    -0.014918   179.895489
	   65 D(3,1,2,4)      =      0.019955    -0.000001    -0.026928    -0.006973
	   66 D(3,1,2,15)     =   -179.974167    -0.000001    -0.012687  -179.986854
	   67 D(3,9,10,5)     =   -104.998491    -0.000010    -0.093839  -105.092330
	   68 D(3,9,10,6)     =     74.943891    -0.000015    -0.281742    74.662149
	   69 D(3,9,11,4)     =     -0.017270    -0.000001    -0.055718    -0.072988
	   70 D(3,9,11,13)    =   -179.908714     0.000001     0.004752  -179.903962
	   71 D(4,2,1,14)     =    179.966134    -0.000001    -0.038378   179.927756
	   72 D(4,11,9,10)    =    179.986543     0.000000     0.032915   180.019457
	   73 D(5,7,12,8)     =      0.000000    -0.000000    -0.013388    -0.013388
	   74 D(5,10,6,8)     =      0.007798     0.000001    -0.006598     0.001200
	   75 D(5,10,6,19)    =    179.997365     0.000002     0.019565   180.016930
	   76 D(5,10,9,11)    =     74.997706    -0.000011    -0.184574    74.813132
	   77 D(6,8,12,7)     =      0.009974     0.000001     0.019467     0.029442
	   78 D(6,10,5,7)     =      0.001213    -0.000001     0.012120     0.013333
	   79 D(6,10,5,18)    =   -179.953130     0.000000     0.028554  -179.924576
	   80 D(6,10,9,11)    =   -105.059912    -0.000016    -0.372477  -105.432389
	   81 D(7,5,10,9)     =    179.943834    -0.000006    -0.169659   179.774175
	   82 D(7,12,8,21)    =    179.934421    -0.000001    -0.009282   179.925139
	   83 D(8,6,10,9)     =   -179.934855     0.000006     0.174871  -179.759984
	   84 D(8,12,7,20)    =    179.870821     0.000000    -0.008530   179.862291
	   85 D(9,3,1,14)     =   -179.966136     0.000001     0.028449  -179.937687
	   86 D(9,10,5,18)    =     -0.010509    -0.000005    -0.153224    -0.163734
	   87 D(9,10,6,19)    =      0.054713     0.000007     0.201033     0.255746
	   88 D(9,11,4,17)    =    179.973370     0.000002     0.065913   180.039282
	   89 D(10,5,7,12)    =     -0.005462     0.000000    -0.002096    -0.007558
	   90 D(10,5,7,20)    =   -179.869257    -0.000000    -0.007661  -179.876919
	   91 D(10,6,8,12)    =     -0.013986    -0.000001    -0.009897    -0.023883
	   92 D(10,6,8,21)    =   -179.934429     0.000000     0.020106  -179.914323
	   93 D(10,9,3,16)    =     -0.041910     0.000001     0.003183    -0.038726
	   94 D(10,9,11,13)   =      0.095099     0.000002     0.093384     0.188483
	   95 D(11,4,2,15)    =    179.975516    -0.000001    -0.018320   179.957196
	   96 D(11,9,3,16)    =    179.961888     0.000003     0.091868   180.053756
	   97 D(12,7,5,18)    =    179.949618    -0.000000    -0.018877   179.930741
	   98 D(12,8,6,19)    =    179.996292    -0.000002    -0.035823   179.960469
	   99 D(13,11,4,17)   =     -0.133484     0.000000     0.004430    -0.129054
	  100 D(14,1,2,15)    =     -0.027988    -0.000001    -0.024137    -0.052125
	  101 D(14,1,3,16)    =      0.089566    -0.000001    -0.039039     0.050527
	  102 D(15,2,4,17)    =      0.019443    -0.000002    -0.037474    -0.018031
	  103 D(18,5,7,20)    =      0.085822    -0.000001    -0.024442     0.061380
	  104 D(19,6,8,21)    =      0.075849    -0.000000    -0.005819     0.070030
	  105 R(5,13)         =      3.232497    -0.000377    -0.000007     3.232490
	 ---------------------------------------------------------------------------
	Successfully symmetrized geometry.
	 Forces used to impose fixed constraints are not included.
	  Forces zeroed: 67 

  ==> Convergence Check <==

  Measures of convergence in internal coordinates in au.
  Criteria marked as inactive (o), active & met (*), and active & unmet ( ).
  --------------------------------------------------------------------------------------------- ~
   Step     Total Energy     Delta E     MAX Force     RMS Force      MAX Disp      RMS Disp    ~
  --------------------------------------------------------------------------------------------- ~
    Convergence Criteria    1.00e-06 *    3.00e-04 *             o    1.20e-03 *             o  ~
  --------------------------------------------------------------------------------------------- ~
      1    -577.72229483   -5.78e+02      1.86e-02      4.40e-03 o    3.71e-02      9.76e-03 o  ~
  ---------------------------------------------------------------------------------------------

	Writing optimization data to binary file.
	Structure for next step:
	Cartesian Geometry (in Angstrom)
	    C    -1.3863773559   0.8524373551  -2.6694604485
	    C    -2.4594511303   1.4198836750  -1.9947770394
	    C    -0.3536794335   0.2605236078  -1.9528704023
	    C    -2.5009681224   1.3960377427  -0.6082957778
	    C     0.5370877798  -1.6354045577   0.7985660616
	    C     1.9353799658   0.2359177255   0.3299173087
	    C     1.5973734359  -2.1857612154   1.5010049106
	    C     2.9349993804  -0.3964197748   1.0527448871
	    C    -0.3824088262   0.2297296494  -0.5618274132
	    C     0.7057245211  -0.3953653059   0.1973717485
	    C    -1.4649985229   0.8021834474   0.0912409766
	    N     2.7908262577  -1.5920529932   1.6400008549
	    F    -1.5107630907   0.7847357712   1.4296113511
	    H    -1.3549403640   0.8701633480  -3.7494855816
	    H    -3.2655967462   1.8814292203  -2.5461074799
	    H     0.4801869559  -0.1805929328  -2.4804713610
	    H    -3.3305019696   1.8341788895  -0.0723732061
	    H    -0.4007451570  -2.1662616921   0.7225356736
	    H     2.1141319037   1.2016590436  -0.1197811948
	    H     1.5010752262  -3.1509212070   1.9799536079
	    H     3.9043975891   0.0676920140   1.1769236527
			--------------------------
			 OPTKING Finished Execution 
			--------------------------

    Structure for next step:
    Molecular point group: c1
    Full point group: C1

    Geometry (in Angstrom), charge = 0, multiplicity = 1:

    C           -1.386235753038     0.852550712866    -2.664838680734
    C           -2.459309527490     1.419997032727    -1.990155271651
    C           -0.353537830705     0.260636965594    -1.948248634567
    C           -2.500826519553     1.396151100418    -0.603674009993
    C            0.537229382626    -1.635291199968     0.803187829343
    C            1.935521568629     0.236031083274     0.334539076434
    C            1.597515038718    -2.185647857676     1.505626678349
    C            2.935140983245    -0.396306417018     1.057366654881
    C           -0.382267223361     0.229843007194    -0.557205645440
    C            0.705866123930    -0.395251948180     0.201993516296
    C           -1.464856920015     0.802296805166     0.095862744369
    N            2.790967860564    -1.591939635405     1.644622622717
    F           -1.510621487817     0.784849128967     1.434233118858
    H           -1.354798761161     0.870276705746    -3.744863813827
    H           -3.265455143329     1.881542578007    -2.541485712159
    H            0.480328558750    -0.180479575054    -2.475849593222
    H           -3.330360366804     1.834292247220    -0.067751438366
    H           -0.400603554130    -2.166148334389     0.727157441342
    H            2.114273506533     1.201772401361    -0.115159427017
    H            1.501216829049    -3.150807849295     1.984575375667
    H            3.904539191920     0.067805371763     1.181545420463

gradient() will perform analytic gradient computation.

*** tstart() called on gpu-2-7.local
*** at Sat Nov 11 18:47:22 2017

    SCF Algorithm Type (re)set to DF.

*** tstart() called on gpu-2-7.local
*** at Sat Nov 11 18:47:22 2017

   => Loading Basis Set <=

    Name: AUG-CC-PVTZ
    Role: ORBITAL
    Keyword: BASIS
    atoms 1-11  entry C          line   221 file /cbio/jclab/home/chayas/anaconda/envs/py35/share/psi4/basis/aug-cc-pvtz.gbs 
    atoms 12    entry N          line   267 file /cbio/jclab/home/chayas/anaconda/envs/py35/share/psi4/basis/aug-cc-pvtz.gbs 
    atoms 13    entry F          line   359 file /cbio/jclab/home/chayas/anaconda/envs/py35/share/psi4/basis/aug-cc-pvtz.gbs 
    atoms 14-21 entry H          line    34 file /cbio/jclab/home/chayas/anaconda/envs/py35/share/psi4/basis/aug-cc-pvtz.gbs 


         ---------------------------------------------------------
                                   SCF
            by Justin Turney, Rob Parrish, and Andy Simmonett
                              RHF Reference
                        8 Threads,   4768 MiB Core
         ---------------------------------------------------------

  ==> Geometry <==

    Molecular point group: c1
    Full point group: C1

    Geometry (in Angstrom), charge = 0, multiplicity = 1:

       Center              X                  Y                   Z               Mass       
    ------------   -----------------  -----------------  -----------------  -----------------
           C         -1.386235753038     0.852550712866    -2.664838680734    12.000000000000
           C         -2.459309527490     1.419997032727    -1.990155271651    12.000000000000
           C         -0.353537830705     0.260636965594    -1.948248634567    12.000000000000
           C         -2.500826519553     1.396151100418    -0.603674009993    12.000000000000
           C          0.537229382626    -1.635291199968     0.803187829343    12.000000000000
           C          1.935521568629     0.236031083274     0.334539076434    12.000000000000
           C          1.597515038718    -2.185647857676     1.505626678349    12.000000000000
           C          2.935140983245    -0.396306417018     1.057366654881    12.000000000000
           C         -0.382267223361     0.229843007194    -0.557205645440    12.000000000000
           C          0.705866123930    -0.395251948180     0.201993516296    12.000000000000
           C         -1.464856920015     0.802296805166     0.095862744369    12.000000000000
           N          2.790967860564    -1.591939635405     1.644622622717    14.003074004780
           F         -1.510621487817     0.784849128967     1.434233118858    18.998403224000
           H         -1.354798761161     0.870276705746    -3.744863813827     1.007825032070
           H         -3.265455143329     1.881542578007    -2.541485712159     1.007825032070
           H          0.480328558750    -0.180479575054    -2.475849593222     1.007825032070
           H         -3.330360366804     1.834292247220    -0.067751438366     1.007825032070
           H         -0.400603554130    -2.166148334389     0.727157441342     1.007825032070
           H          2.114273506533     1.201772401361    -0.115159427017     1.007825032070
           H          1.501216829049    -3.150807849295     1.984575375667     1.007825032070
           H          3.904539191920     0.067805371763     1.181545420463     1.007825032070

  Running in c1 symmetry.

  Rotational constants: A =      0.06505  B =      0.01724  C =      0.01546 [cm^-1]
  Rotational constants: A =   1950.11710  B =    516.90144  C =    463.42249 [MHz]
  Nuclear repulsion =  715.077987147020622

  Charge       = 0
  Multiplicity = 1
  Electrons    = 90
  Nalpha       = 45
  Nbeta        = 45

  ==> Algorithm <==

  SCF Algorithm Type is DF.
  DIIS enabled.
  MOM disabled.
  Fractional occupation disabled.
  Guess Type is READ.
  Energy threshold   = 1.00e-10
  Density threshold  = 1.00e-10
  Integral threshold = 0.00e+00

  ==> Primary Basis <==

  Basis Set: AUG-CC-PVTZ
    Blend: AUG-CC-PVTZ
    Number of shells: 254
    Number of basis function: 782
    Number of Cartesian functions: 915
    Spherical Harmonics?: true
    Max angular momentum: 3

   => Loading Basis Set <=

    Name: (AUG-CC-PVTZ AUX)
    Role: JKFIT
    Keyword: DF_BASIS_SCF
    atoms 1-11  entry C          line   161 file /cbio/jclab/home/chayas/anaconda/envs/py35/share/psi4/basis/aug-cc-pvtz-jkfit.gbs 
    atoms 12    entry N          line   223 file /cbio/jclab/home/chayas/anaconda/envs/py35/share/psi4/basis/aug-cc-pvtz-jkfit.gbs 
    atoms 13    entry F          line   347 file /cbio/jclab/home/chayas/anaconda/envs/py35/share/psi4/basis/aug-cc-pvtz-jkfit.gbs 
    atoms 14-21 entry H          line    69 file /cbio/jclab/home/chayas/anaconda/envs/py35/share/psi4/basis/aug-cc-pvtz-jkfit.gbs 

  Reading orbitals from file 180, no projection.

  ==> Pre-Iterations <==

   -------------------------------------------------------
    Irrep   Nso     Nmo     Nalpha   Nbeta   Ndocc  Nsocc
   -------------------------------------------------------
     A        782     782       0       0       0       0
   -------------------------------------------------------
    Total     782     782      45      45      45       0
   -------------------------------------------------------

  ==> Integral Setup <==

  ==> DFJK: Density-Fitted J/K Matrices <==

    J tasked:                  Yes
    K tasked:                  Yes
    wK tasked:                  No
    OpenMP threads:              8
    Integrals threads:           8
    Memory (MB):              3576
    Algorithm:                Disk
    Integral Cache:           NONE
    Schwarz Cutoff:          1E-12
    Fitting Condition:       1E-12

   => Auxiliary Basis Set <=

  Basis Set: (AUG-CC-PVTZ AUX)
    Blend: AUG-CC-PVTZ-JKFIT
    Number of shells: 502
    Number of basis function: 1720
    Number of Cartesian functions: 2143
    Spherical Harmonics?: true
    Max angular momentum: 4

  Minimum eigenvalue in the overlap matrix is 6.3368732779E-07.
  Using Symmetric Orthogonalization.

  SCF Guess: Orbitals guess was supplied from a previous computation.

  ==> Iterations <==

                           Total Energy        Delta E     RMS |[F,P]|

   @DF-RHF iter   0:  -575.34871632617808   -5.75349e+02   4.72728e-04 
   @DF-RHF iter   1:  -575.28808147126938    6.06349e-02   1.01908e-04 
   @DF-RHF iter   2:  -575.28839924838542   -3.17777e-04   5.07373e-05 DIIS
   @DF-RHF iter   3:  -575.28856861449719   -1.69366e-04   7.93966e-06 DIIS
   @DF-RHF iter   4:  -575.28857448725148   -5.87275e-06   3.85413e-06 DIIS
   @DF-RHF iter   5:  -575.28857643734239   -1.95009e-06   1.54238e-06 DIIS
   @DF-RHF iter   6:  -575.28857695758904   -5.20247e-07   7.24666e-07 DIIS
   @DF-RHF iter   7:  -575.28857716594575   -2.08357e-07   4.22872e-07 DIIS
   @DF-RHF iter   8:  -575.28857720816166   -4.22159e-08   9.03193e-08 DIIS
   @DF-RHF iter   9:  -575.28857721077611   -2.61446e-09   3.29850e-08 DIIS
   @DF-RHF iter  10:  -575.28857721100144   -2.25327e-10   8.83833e-09 DIIS
   @DF-RHF iter  11:  -575.28857721101576   -1.43245e-11   3.50234e-09 DIIS
   @DF-RHF iter  12:  -575.28857721103645   -2.06910e-11   1.42372e-09 DIIS
   @DF-RHF iter  13:  -575.28857721102656    9.89075e-12   5.17533e-10 DIIS
   @DF-RHF iter  14:  -575.28857721102634    2.27374e-13   2.88439e-10 DIIS
   @DF-RHF iter  15:  -575.28857721102088    5.45697e-12   1.15912e-10 DIIS
   @DF-RHF iter  16:  -575.28857721102509   -4.20641e-12   4.22726e-11 DIIS

  ==> Post-Iterations <==

    Orbital Energies (a.u.)
    -----------------------

    Doubly Occupied:                                                      

       1A    -26.318393     2A    -15.565731     3A    -11.337272  
       4A    -11.274603     5A    -11.274154     6A    -11.268487  
       7A    -11.260281     8A    -11.255961     9A    -11.254951  
      10A    -11.250921    11A    -11.247025    12A    -11.240656  
      13A    -11.239934    14A     -1.638697    15A     -1.258779  
      16A     -1.184858    17A     -1.114663    18A     -1.037359  
      19A     -1.035461    20A     -1.028263    21A     -0.891354  
      22A     -0.864928    23A     -0.855686    24A     -0.825007  
      25A     -0.756436    26A     -0.723794    27A     -0.712412  
      28A     -0.705325    29A     -0.670755    30A     -0.668673  
      31A     -0.652388    32A     -0.625905    33A     -0.612666  
      34A     -0.599554    35A     -0.590437    36A     -0.548745  
      37A     -0.534790    38A     -0.529205    39A     -0.515665  
      40A     -0.510229    41A     -0.420786    42A     -0.386331  
      43A     -0.356968    44A     -0.349524    45A     -0.346232  

    Virtual:                                                              

      46A      0.023613    47A      0.031218    48A      0.033715  
      49A      0.035710    50A      0.043608    51A      0.048436  
      52A      0.051728    53A      0.053154    54A      0.077063  
      55A      0.083931    56A      0.087044    57A      0.090122  
      58A      0.091657    59A      0.094839    60A      0.097270  
      61A      0.102601    62A      0.104610    63A      0.107758  
      64A      0.112069    65A      0.113508    66A      0.115177  
      67A      0.117270    68A      0.123216    69A      0.126012  
      70A      0.127043    71A      0.132084    72A      0.133818  
      73A      0.137175    74A      0.139004    75A      0.141723  
      76A      0.143711    77A      0.145617    78A      0.153190  
      79A      0.155676    80A      0.157653    81A      0.168721  
      82A      0.172506    83A      0.175952    84A      0.188276  
      85A      0.190800    86A      0.194569    87A      0.196912  
      88A      0.210711    89A      0.214924    90A      0.226113  
      91A      0.234539    92A      0.235826    93A      0.237771  
      94A      0.242647    95A      0.243390    96A      0.246088  
      97A      0.252743    98A      0.256430    99A      0.261144  
     100A      0.264073   101A      0.267711   102A      0.271284  
     103A      0.271743   104A      0.278697   105A      0.279879  
     106A      0.286313   107A      0.294028   108A      0.298467  
     109A      0.303141   110A      0.306759   111A      0.311103  
     112A      0.312060   113A      0.317800   114A      0.322195  
     115A      0.324350   116A      0.325773   117A      0.326925  
     118A      0.332365   119A      0.336695   120A      0.346303  
     121A      0.347307   122A      0.354443   123A      0.356825  
     124A      0.358801   125A      0.372591   126A      0.379663  
     127A      0.385679   128A      0.389480   129A      0.394728  
     130A      0.398178   131A      0.405329   132A      0.408079  
     133A      0.410778   134A      0.416604   135A      0.420893  
     136A      0.424847   137A      0.430025   138A      0.433612  
     139A      0.435603   140A      0.442219   141A      0.446068  
     142A      0.451661   143A      0.453667   144A      0.457416  
     145A      0.463945   146A      0.465896   147A      0.473803  
     148A      0.475273   149A      0.478087   150A      0.479826  
     151A      0.484469   152A      0.486522   153A      0.491408  
     154A      0.495381   155A      0.499957   156A      0.503333  
     157A      0.508284   158A      0.509607   159A      0.513369  
     160A      0.516990   161A      0.520124   162A      0.521147  
     163A      0.526315   164A      0.528043   165A      0.535865  
     166A      0.541225   167A      0.544374   168A      0.549060  
     169A      0.553135   170A      0.555304   171A      0.558065  
     172A      0.561473   173A      0.571164   174A      0.576662  
     175A      0.580833   176A      0.584243   177A      0.592843  
     178A      0.600816   179A      0.606260   180A      0.609237  
     181A      0.617728   182A      0.626402   183A      0.630582  
     184A      0.635720   185A      0.637722   186A      0.640159  
     187A      0.655339   188A      0.662254   189A      0.666705  
     190A      0.669426   191A      0.673135   192A      0.679266  
     193A      0.686142   194A      0.696203   195A      0.700031  
     196A      0.704972   197A      0.711534   198A      0.712317  
     199A      0.717791   200A      0.724533   201A      0.734425  
     202A      0.738797   203A      0.742802   204A      0.756587  
     205A      0.758229   206A      0.762644   207A      0.767512  
     208A      0.773359   209A      0.777281   210A      0.785425  
     211A      0.787375   212A      0.791264   213A      0.792244  
     214A      0.802218   215A      0.816018   216A      0.823625  
     217A      0.828779   218A      0.835505   219A      0.847103  
     220A      0.853210   221A      0.865241   222A      0.869008  
     223A      0.872634   224A      0.876047   225A      0.879592  
     226A      0.882099   227A      0.883942   228A      0.890387  
     229A      0.894278   230A      0.905422   231A      0.907736  
     232A      0.911730   233A      0.913602   234A      0.920327  
     235A      0.922131   236A      0.928607   237A      0.935661  
     238A      0.937848   239A      0.942251   240A      0.945104  
     241A      0.949625   242A      0.952832   243A      0.961519  
     244A      0.969271   245A      0.971703   246A      0.973972  
     247A      0.977353   248A      0.988219   249A      0.991381  
     250A      0.995143   251A      1.003679   252A      1.009454  
     253A      1.010929   254A      1.014535   255A      1.018167  
     256A      1.026488   257A      1.028838   258A      1.034765  
     259A      1.041686   260A      1.044835   261A      1.050787  
     262A      1.055544   263A      1.068131   264A      1.069733  
     265A      1.073279   266A      1.075613   267A      1.081844  
     268A      1.085484   269A      1.090269   270A      1.094670  
     271A      1.097978   272A      1.101084   273A      1.111452  
     274A      1.114304   275A      1.118403   276A      1.125350  
     277A      1.129298   278A      1.136834   279A      1.141037  
     280A      1.143073   281A      1.154822   282A      1.162218  
     283A      1.167755   284A      1.171959   285A      1.177901  
     286A      1.179794   287A      1.183999   288A      1.186072  
     289A      1.193729   290A      1.196034   291A      1.200704  
     292A      1.206228   293A      1.207308   294A      1.214717  
     295A      1.221280   296A      1.224810   297A      1.234857  
     298A      1.239023   299A      1.240680   300A      1.246789  
     301A      1.255010   302A      1.261526   303A      1.267306  
     304A      1.275586   305A      1.280041   306A      1.286120  
     307A      1.293536   308A      1.301584   309A      1.305818  
     310A      1.311501   311A      1.316201   312A      1.323187  
     313A      1.335045   314A      1.338892   315A      1.347809  
     316A      1.352376   317A      1.366645   318A      1.374437  
     319A      1.378148   320A      1.385675   321A      1.389540  
     322A      1.400167   323A      1.404279   324A      1.418318  
     325A      1.418925   326A      1.426302   327A      1.432864  
     328A      1.436006   329A      1.442648   330A      1.449528  
     331A      1.468855   332A      1.472613   333A      1.486712  
     334A      1.492068   335A      1.496156   336A      1.501610  
     337A      1.517514   338A      1.532949   339A      1.537186  
     340A      1.547874   341A      1.551858   342A      1.563249  
     343A      1.565817   344A      1.571340   345A      1.578024  
     346A      1.593171   347A      1.594392   348A      1.599859  
     349A      1.608556   350A      1.623418   351A      1.628100  
     352A      1.635358   353A      1.643470   354A      1.661776  
     355A      1.671434   356A      1.680840   357A      1.682502  
     358A      1.686174   359A      1.695333   360A      1.698908  
     361A      1.709522   362A      1.715529   363A      1.725426  
     364A      1.733657   365A      1.738368   366A      1.743180  
     367A      1.750419   368A      1.760192   369A      1.763554  
     370A      1.774104   371A      1.775273   372A      1.781788  
     373A      1.792524   374A      1.806682   375A      1.814204  
     376A      1.824957   377A      1.828853   378A      1.835071  
     379A      1.851603   380A      1.860210   381A      1.861966  
     382A      1.876241   383A      1.880552   384A      1.894639  
     385A      1.896531   386A      1.902281   387A      1.912726  
     388A      1.915258   389A      1.919855   390A      1.928226  
     391A      1.942605   392A      1.951735   393A      1.959756  
     394A      1.967057   395A      1.978717   396A      1.987963  
     397A      1.990502   398A      2.003199   399A      2.010145  
     400A      2.013821   401A      2.022918   402A      2.030611  
     403A      2.043027   404A      2.049173   405A      2.054932  
     406A      2.061162   407A      2.064904   408A      2.076742  
     409A      2.080716   410A      2.092206   411A      2.095142  
     412A      2.106530   413A      2.113779   414A      2.115452  
     415A      2.122220   416A      2.134716   417A      2.142888  
     418A      2.146803   419A      2.154248   420A      2.167899  
[...]
	 R(6,10)          =         2.624506	       1.388829
	 R(6,19)          =         2.040373	       1.079719
	 R(7,12)          =         2.523178	       1.335208
	 R(7,20)          =         2.042539	       1.080865
	 R(8,12)          =         2.521836	       1.334498
	 R(8,21)          =         2.042661	       1.080929
	 R(9,10)          =         2.773069	       1.467445
	 R(9,11)          =         2.620761	       1.386847
	 R(11,13)         =         2.542465	       1.345414
	 B(1,2,4)         =         2.096825	     120.139207
	 B(1,2,15)        =         2.099830	     120.311387
	 B(1,3,9)         =         2.112700	     121.048774
	 B(1,3,16)        =         2.102882	     120.486267
	 B(2,1,3)         =         2.092393	     119.885261
	 B(2,1,14)        =         2.096984	     120.148308
	 B(2,4,11)        =         2.072831	     118.764462
	 B(2,4,17)        =         2.127122	     121.875109
	 B(3,1,14)        =         2.093798	     119.965811
	 B(3,9,10)        =         2.117470	     121.322111
	 B(3,9,11)        =         2.050242	     117.470200
	 B(4,2,15)        =         2.086527	     119.549206
	 B(4,11,9)        =         2.141290	     122.686871
	 B(4,11,13)       =         2.072189	     118.727667
	 B(5,7,12)        =         2.157680	     123.625973
	 B(5,7,20)        =         2.097182	     120.159659
	 B(5,10,6)        =         2.051555	     117.545462
	 B(5,10,9)        =         2.116116	     121.244518
	 B(6,8,12)        =         2.156900	     123.581275
	 B(6,8,21)        =         2.097424	     120.173569
	 B(6,10,9)        =         2.114482	     121.150919
	 B(7,5,10)        =         2.079457	     119.144091
	 B(7,5,18)        =         2.103015	     120.493882
	 B(7,12,8)        =         2.040744	     116.926041
	 B(8,6,10)        =         2.080004	     119.175423
	 B(8,6,19)        =         2.102906	     120.487623
	 B(9,3,16)        =         2.067601	     118.464791
	 B(9,11,13)       =         2.069686	     118.584245
	 B(10,5,18)       =         2.100712	     120.361948
	 B(10,6,19)       =         2.100263	     120.336234
	 B(10,9,11)       =         2.114887	     121.174085
	 B(11,4,17)       =         2.083232	     119.360406
	 B(12,7,20)       =         2.028315	     116.213873
	 B(12,8,21)       =         2.028860	     116.245095
	 D(1,2,4,11)      =         0.001111	       0.063665
	 D(1,2,4,17)      =        -3.141452	    -179.991964
	 D(1,3,9,10)      =         3.118495	     178.676582
	 D(1,3,9,11)      =         0.013289	       0.761414
	 D(2,1,3,9)       =        -0.004879	      -0.279553
	 D(2,1,3,16)      =         3.134069	     179.568918
	 D(2,4,11,9)      =         0.007990	       0.457803
	 D(2,4,11,13)     =        -3.140713	    -179.949608
	 D(3,1,2,4)       =        -0.002563	      -0.146826
	 D(3,1,2,15)      =        -3.141304	    -179.983443
	 D(3,9,10,5)      =        -1.836866	    -105.244688
	 D(3,9,10,6)      =         1.254728	      71.890636
	 D(3,9,11,4)      =        -0.015024	      -0.860817
	 D(3,9,11,13)     =         3.133670	     179.546037
	 D(4,2,1,14)      =         3.134029	     179.566637
	 D(4,11,9,10)     =        -3.120287	    -178.779251
	 D(5,7,12,8)      =         0.000823	       0.047173
	 D(5,10,6,8)      =        -0.007042	      -0.403461
	 D(5,10,6,19)     =         3.139913	     179.903770
	 D(5,10,9,11)     =         1.266992	      72.593316
	 D(6,8,12,7)      =         0.001042	       0.059676
	 D(6,10,5,7)      =         0.008743	       0.500938
	 D(6,10,5,18)     =        -3.134632	    -179.601165
	 D(6,10,9,11)     =        -1.924598	    -110.271360
	 D(7,5,10,9)      =         3.102078	     177.735971
	 D(7,12,8,21)     =         3.141059	     179.969428
	 D(8,6,10,9)      =        -3.100424	    -177.641231
	 D(8,12,7,20)     =         3.137945	     179.791025
	 D(9,3,1,14)      =        -3.141480	    -179.993545
	 D(9,10,5,18)     =        -0.041297	      -2.366131
	 D(9,10,6,19)     =         0.046530	       2.666000
	 D(9,11,4,17)     =        -3.132656	    -179.487995
	 D(10,5,7,12)     =        -0.005874	      -0.336532
	 D(10,5,7,20)     =         3.140358	     179.929251
	 D(10,6,8,12)     =         0.002201	       0.126110
	 D(10,6,8,21)     =        -3.137757	    -179.780260
	 D(10,9,3,16)     =        -0.020506	      -1.174882
	 D(10,9,11,13)    =         0.028407	       1.627603
	 D(11,4,2,15)     =         3.139874	     179.901528
	 D(11,9,3,16)     =        -3.125711	    -179.090049
	 D(12,7,5,18)     =         3.137503	     179.765709
	 D(12,8,6,19)     =         3.138423	     179.818402
	 D(13,11,4,17)    =         0.001826	       0.104594
	 D(14,1,2,15)     =        -0.004712	      -0.269980
	 D(14,1,3,16)     =        -0.002532	      -0.145073
	 D(15,2,4,17)     =        -0.002690	      -0.154101
	 D(18,5,7,20)     =         0.000550	       0.031492
	 D(19,6,8,21)     =        -0.001535	      -0.087968
	 R(5,13)          =         6.065276	       3.209606

	Current energy   :      -577.7255050236

	Energy change for the previous step:
		Projected    :        -0.0000006102
		Actual       :        -0.0000003466

	Performing BFGS update.
	Previous computed or guess Hessian on step 1.
	Steps to be used in Hessian update: 6 5
	Adding user-defined constraint: Fragment 1; Coordinate 67:
		Value =    -1.836866; Fixed value    =    -1.832600
		Force =     0.002773; Force constant =     0.650000
	Removing off-diagonal coupling between coordinate 67 and others.
	Taking RFO optimization step.
	Going to follow RFO solution 1.
	Rejecting RFO root 1 because normalization gives large value.
	Rejecting RFO root 2 because normalization gives large value.
	Using RFO vector 3.
	Norm of target step-size    0.00154
	Projected energy change by RFO approximation:        -0.0000001611

	Back-transformation to cartesian coordinates...
	Successfully converged to displaced geometry.

	--- Internal Coordinate Step in ANG or DEG, aJ/ANG or AJ/DEG ---
	 ---------------------------------------------------------------------------
	   Coordinate                Previous        Force       Change         New 
	   ----------                --------       ------       ------       ------
	    1 R(1,2)          =      1.388090    -0.000025     0.000023     1.388114
	    2 R(1,3)          =      1.386778    -0.000037     0.000009     1.386787
	    3 R(1,14)         =      1.078511    -0.000069    -0.000009     1.078502
	    4 R(2,4)          =      1.387328    -0.000125    -0.000010     1.387319
	    5 R(2,15)         =      1.078837    -0.000103    -0.000015     1.078822
	    6 R(3,9)          =      1.392954    -0.000189    -0.000018     1.392937
	    7 R(3,16)         =      1.079814    -0.000128    -0.000028     1.079785
	    8 R(4,11)         =      1.379876    -0.000171    -0.000012     1.379864
	    9 R(4,17)         =      1.077807    -0.000071    -0.000011     1.077796
	   10 R(5,7)          =      1.386166    -0.000190    -0.000024     1.386142
	   11 R(5,10)         =      1.389036     0.000115    -0.000010     1.389026
	   12 R(5,18)         =      1.079528    -0.000082    -0.000020     1.079508
	   13 R(6,8)          =      1.386891    -0.000127    -0.000014     1.386877
	   14 R(6,10)         =      1.388829    -0.000028    -0.000056     1.388773
	   15 R(6,19)         =      1.079719    -0.000071    -0.000013     1.079706
	   16 R(7,12)         =      1.335208     0.000187     0.000030     1.335238
	   17 R(7,20)         =      1.080865     0.000016    -0.000006     1.080859
	   18 R(8,12)         =      1.334498     0.000123     0.000019     1.334517
	   19 R(8,21)         =      1.080929     0.000021    -0.000009     1.080920
	   20 R(9,10)         =      1.467445     0.000349     0.000051     1.467496
	   21 R(9,11)         =      1.386847    -0.000093    -0.000061     1.386786
	   22 R(11,13)        =      1.345414    -0.000416    -0.000053     1.345361
	   23 B(1,2,4)        =    120.139207     0.000000     0.001837   120.141044
	   24 B(1,2,15)       =    120.311387    -0.000000    -0.004224   120.307163
	   25 B(1,3,9)        =    121.048774    -0.000000    -0.005695   121.043079
	   26 B(1,3,16)       =    120.486267    -0.000000    -0.005984   120.480283
	   27 B(2,1,3)        =    119.885261    -0.000000     0.000174   119.885435
	   28 B(2,1,14)       =    120.148308     0.000000    -0.002188   120.146120
	   29 B(2,4,11)       =    118.764462    -0.000000    -0.002985   118.761477
	   30 B(2,4,17)       =    121.875109    -0.000001    -0.005093   121.870016
	   31 B(3,1,14)       =    119.965811     0.000000     0.002039   119.967850
	   32 B(3,9,10)       =    121.322111    -0.000000    -0.007972   121.314140
	   33 B(3,9,11)       =    117.470200     0.000001     0.006288   117.476488
	   34 B(4,2,15)       =    119.549206    -0.000000     0.002377   119.551582
	   35 B(4,11,9)       =    122.686871    -0.000000     0.000346   122.687217
	   36 B(4,11,13)      =    118.727667     0.000001     0.003870   118.731536
	   37 B(5,7,12)       =    123.625973    -0.000001    -0.001813   123.624159
	   38 B(5,7,20)       =    120.159659     0.000001     0.008975   120.168635
	   39 B(5,10,6)       =    117.545462     0.000000     0.001006   117.546468
	   40 B(5,10,9)       =    121.244518    -0.000003    -0.027802   121.216716
	   41 B(6,8,12)       =    123.581275    -0.000001     0.001020   123.582294
	   42 B(6,8,21)       =    120.173569     0.000001     0.006005   120.179574
	   43 B(6,10,9)       =    121.150919     0.000002     0.026806   121.177725
	   44 B(7,5,10)       =    119.144091     0.000000     0.001692   119.145783
	   45 B(7,5,18)       =    120.493882    -0.000000    -0.001365   120.492516
	   46 B(7,12,8)       =    116.926041     0.000001    -0.001785   116.924256
	   47 B(8,6,10)       =    119.175423     0.000000    -0.000070   119.175353
	   48 B(8,6,19)       =    120.487623    -0.000001    -0.002900   120.484723
	   49 B(9,3,16)       =    118.464791     0.000001     0.011685   118.476476
	   50 B(9,11,13)      =    118.584245    -0.000001    -0.004205   118.580040
	   51 B(10,5,18)      =    120.361948    -0.000000    -0.000321   120.361627
	   52 B(10,6,19)      =    120.336234     0.000000     0.002993   120.339227
	   53 B(10,9,11)      =    121.174085    -0.000001     0.001171   121.175256
	   54 B(11,4,17)      =    119.360406     0.000001     0.008078   119.368484
	   55 B(12,7,20)      =    116.213873     0.000000    -0.007132   116.206742
	   56 B(12,8,21)      =    116.245095     0.000000    -0.007045   116.238050
	   57 D(1,2,4,11)     =      0.063665    -0.000000     0.004205     0.067870
	   58 D(1,2,4,17)     =   -179.991964     0.000000     0.003856  -179.988108
	   59 D(1,3,9,10)     =    178.676582    -0.000000    -0.016797   178.659784
	   60 D(1,3,9,11)     =      0.761414     0.000000    -0.001014     0.760400
	   61 D(2,1,3,9)      =     -0.279553    -0.000000     0.007121    -0.272432
	   62 D(2,1,3,16)     =    179.568918    -0.000000     0.009924   179.578841
	   63 D(2,4,11,9)     =      0.457803    -0.000000     0.001998     0.459800
	   64 D(2,4,11,13)    =   -179.949608     0.000000     0.003724  -179.945885
	   65 D(3,1,2,4)      =     -0.146826     0.000000    -0.008681    -0.155507
	   66 D(3,1,2,15)     =   -179.983443     0.000000    -0.004464  -179.987907
	   67 D(3,9,10,5)     =   -105.244688     0.000001     0.007085  -105.237603
	   68 D(3,9,10,6)     =     71.890636     0.000001     0.007355    71.897991
	   69 D(3,9,11,4)     =     -0.860817    -0.000000    -0.003632    -0.864448
	   70 D(3,9,11,13)    =    179.546037    -0.000000    -0.005386   179.540651
	   71 D(4,2,1,14)     =    179.566637    -0.000000    -0.002860   179.563777
	   72 D(4,11,9,10)    =   -178.779251     0.000000     0.012330  -178.766921
	   73 D(5,7,12,8)     =      0.047173     0.000000    -0.011981     0.035192
	   74 D(5,10,6,8)     =     -0.403461    -0.000000     0.007644    -0.395817
	   75 D(5,10,6,19)    =    179.903770    -0.000000     0.002845   179.906615
	   76 D(5,10,9,11)    =     72.593316     0.000001    -0.009185    72.584131
	   77 D(6,8,12,7)     =      0.059676    -0.000000     0.012387     0.072063
	   78 D(6,10,5,7)     =      0.500938     0.000000    -0.007254     0.493684
	   79 D(6,10,5,18)    =   -179.601165     0.000000    -0.003656  -179.604821
	   80 D(6,10,9,11)    =   -110.271360     0.000000    -0.008916  -110.280275
	   81 D(7,5,10,9)     =    177.735971    -0.000000    -0.006236   177.729735
	   82 D(7,12,8,21)    =    179.969428     0.000000    -0.001630   179.967798
	   83 D(8,6,10,9)     =   -177.641231     0.000000     0.008223  -177.633007
	   84 D(8,12,7,20)    =    179.791025     0.000000    -0.003988   179.787037
	   85 D(9,3,1,14)     =   -179.993545     0.000000     0.001323  -179.992222
	   86 D(9,10,5,18)    =     -2.366131    -0.000000    -0.002638    -2.368770
	   87 D(9,10,6,19)    =      2.666000     0.000000     0.003424     2.669424
	   88 D(9,11,4,17)    =   -179.487995    -0.000000     0.002345  -179.485650
	   89 D(10,5,7,12)    =     -0.336532    -0.000000     0.009839    -0.326693
	   90 D(10,5,7,20)    =    179.929251     0.000000     0.001584   179.930836
	   91 D(10,6,8,12)    =      0.126110     0.000000    -0.010652     0.115458
	   92 D(10,6,8,21)    =   -179.780260    -0.000000     0.003904  -179.776356
	   93 D(10,9,3,16)    =     -1.174882    -0.000000    -0.019519    -1.194401
	   94 D(10,9,11,13)   =      1.627603     0.000000     0.010576     1.638179
	   95 D(11,4,2,15)    =    179.901528    -0.000000     0.000010   179.901538
	   96 D(11,9,3,16)    =   -179.090049     0.000000    -0.003736  -179.093786
	   97 D(12,7,5,18)    =    179.765709    -0.000000     0.006235   179.771944
	   98 D(12,8,6,19)    =    179.818402     0.000000    -0.005827   179.812575
	   99 D(13,11,4,17)   =      0.104594     0.000000     0.004071     0.108665
	  100 D(14,1,2,15)    =     -0.269980    -0.000000     0.001357    -0.268623
	  101 D(14,1,3,16)    =     -0.145073    -0.000000     0.004126    -0.140948
	  102 D(15,2,4,17)    =     -0.154101     0.000000    -0.000339    -0.154440
	  103 D(18,5,7,20)    =      0.031492    -0.000000    -0.002019     0.029473
	  104 D(19,6,8,21)    =     -0.087968    -0.000000     0.008729    -0.079238
	  105 R(5,13)         =      3.209606    -0.000087    -0.000488     3.209118
	 ---------------------------------------------------------------------------
	Successfully symmetrized geometry.
	 Forces used to impose fixed constraints are not included.
	  Forces zeroed: 67 

  ==> Convergence Check <==

  Measures of convergence in internal coordinates in au.
  Criteria marked as inactive (o), active & met (*), and active & unmet ( ).
  ---------------------------------------------------------------------------------------------
   Step     Total Energy     Delta E     MAX Force     RMS Force      MAX Disp      RMS Disp   
  ---------------------------------------------------------------------------------------------
    Convergence Criteria    1.00e-06 *    3.00e-04 *             o    1.20e-03 *             o
  ---------------------------------------------------------------------------------------------
      7    -577.72550502   -3.47e-07 *    5.05e-05 *    1.33e-05 o    9.21e-04 *    1.50e-04 o  ~
  ---------------------------------------------------------------------------------------------


  **** Optimization is complete! (in 7 steps) ****

  ==> Optimization Summary <==

  Measures of convergence in internal coordinates in au.
  --------------------------------------------------------------------------------------------------------------- ~
   Step         Total Energy             Delta E       MAX Force       RMS Force        MAX Disp        RMS Disp  ~
  --------------------------------------------------------------------------------------------------------------- ~
      1    -577.722294825108   -577.722294825108      0.01863710      0.00440182      0.03713619      0.00976196  ~
      2    -577.725043878125     -0.002749053017      0.00388347      0.00123265      0.04446153      0.00951274  ~
      3    -577.725464706376     -0.000420828251      0.00183527      0.00027223      0.02372281      0.00430354  ~
      4    -577.725496829318     -0.000032122942      0.00047459      0.00008712      0.01495401      0.00274380  ~
      5    -577.725506334314     -0.000009504997      0.00019896      0.00004607      0.00227018      0.00064941  ~
      6    -577.725504676949      0.000001657365      0.00005978      0.00001450      0.00127152      0.00039618  ~
      7    -577.725505023592     -0.000000346643      0.00005240      0.00001423      0.00092130      0.00015007  ~
  --------------------------------------------------------------------------------------------------------------- ~

	Writing optimization data to binary file.
	Final energy is   -577.7255050235922
	Final (previous) structure:
	Cartesian Geometry (in Angstrom)
	    C    -1.3690742146   0.8665157046  -2.6628099308
	    C    -2.4625986442   1.4080079023  -2.0011564242
	    C    -0.3352317022   0.2952032070  -1.9362255490
	    C    -2.5243462794   1.3759115325  -0.6155745874
	    C     0.5314757016  -1.6077184358   0.8345488756
	    C     1.9576498296   0.2248504584   0.3343006132
	    C     1.5931174987  -2.1828672611   1.5154134873
	    C     2.9604067701  -0.4287214940   1.0348630824
	    C    -0.3699839385   0.2587812187  -0.5441814251
	    C     0.7068912653  -0.3696976349   0.2296070424
	    C    -1.4826539295   0.7998611012   0.0823509165
	    N     2.7968734903  -1.6153024363   1.6232228562
	    F    -1.5437806882   0.7682157104   1.4260033580
	    H    -1.3241768940   0.8851365787  -3.7402251088
	    H    -3.2708262065   1.8539172913  -2.5595669169
	    H     0.5167508489  -0.1350468099  -2.4412088370
	    H    -3.3598492056   1.7877878506  -0.0733928854
	    H    -0.4203191574  -2.1137143163   0.7759429118
	    H     2.1442237025   1.1862753746  -0.1202820234
	    H     1.4744498073  -3.1451271890   1.9931619366
	    H     3.9388151625   0.0209216716   1.1294489544
	Saving final (previous) structure.
			--------------------------
			 OPTKING Finished Execution 
			--------------------------

    Final optimized geometry and variables:
    Molecular point group: c1
    Full point group: C1

    Geometry (in Angstrom), charge = 0, multiplicity = 1:

    C           -1.369074214618     0.866515704560    -2.662809930788
    C           -2.462598644223     1.408007902250    -2.001156424181
    C           -0.335231702180     0.295203207044    -1.936225549000
    C           -2.524346279409     1.375911532507    -0.615574587410
    C            0.531475701602    -1.607718435797     0.834548875560
    C            1.957649829633     0.224850458434     0.334300613166
    C            1.593117498655    -2.182867261095     1.515413487263
    C            2.960406770148    -0.428721493965     1.034863082382
    C           -0.369983938513     0.258781218726    -0.544181425063
    C            0.706891265312    -0.369697634890     0.229607042400
    C           -1.482653929538     0.799861101162     0.082350916486
    N            2.796873490254    -1.615302436302     1.623222856195
    F           -1.543780688210     0.768215710365     1.426003357964
    H           -1.324176893974     0.885136578713    -3.740225108770
    H           -3.270826206549     1.853917291298    -2.559566916919
    H            0.516750848944    -0.135046809898    -2.441208837025
    H           -3.359849205574     1.787787850576    -0.073392885402
    H           -0.420319157404    -2.113714316271     0.775942911764
    H            2.144223702464     1.186275374649    -0.120282023405
    H            1.474449807319    -3.145127188982     1.993161936615
    H            3.938815162458     0.020921671599     1.129448954360

	Cleaning optimization helper files.

*** Psi4 exiting successfully. Buy a developer a beer!
