
    -----------------------------------------------------------------------
          Psi4: An Open-Source Ab Initio Electronic Structure Package
                               Psi4 1.1 release

                         Git: Rev {HEAD} add49b9 


    R. M. Parrish, L. A. Burns, D. G. A. Smith, A. C. Simmonett,
    A. E. DePrince III, E. G. Hohenstein, U. Bozkaya, A. Yu. Sokolov,
    R. Di Remigio, R. M. Richard, J. F. Gonthier, A. M. James,
    H. R. McAlexander, A. Kumar, M. Saitow, X. Wang, B. P. Pritchard,
    P. Verma, H. F. Schaefer III, K. Patkowski, R. A. King, E. F. Valeev,
    F. A. Evangelista, J. M. Turney, T. D. Crawford, and C. D. Sherrill,
    J. Chem. Theory Comput. in press (2017).
    (doi: 10.1021/acs.jctc.7b00174)

    -----------------------------------------------------------------------


    Psi4 started on: Sunday, 12 November 2017 07:27AM

    Process ID:  17871
    PSIDATADIR: /cbio/jclab/home/chayas/anaconda/envs/py35/share/psi4
    Memory:     500.0 MiB
    Threads:    8
    
  ==> Input File <==

--------------------------------------------------------------------------

memory 5 Gb

molecule phepyrOH_cation {
  symmetry C1
  1 1 
  C      1.885   -1.036   -0.112
  C      2.878   -1.652   2.002
  C      0.807   -0.463   0.561
  C      1.800   -1.079   2.676
  C      4.716   -3.305   0.470
  C      4.441   -1.719   -1.322
  C      5.786   -3.855   -0.222
  C      5.518   -2.309   -1.969
  C      2.921   -1.631   0.608
  C      4.040   -2.225   -0.090
  C      0.764   -0.484   1.955
  N      6.152   -3.347   -1.407
  O      -0.288   0.076   2.612
  H      1.904   -1.012   -1.199
  H      3.678   -2.112   2.578
  H      0.003   -0.001   -0.006
  H      1.772   -1.098   3.762
  H      4.425   -3.721   1.430
  H      3.932   -0.877   -1.783
  H      6.368   -4.693   0.135
  H      5.898   -1.982   -2.927
  H      6.941   -3.765   -1.899
  H      -0.175   -0.018   3.571
  units Angstrom
}

dih_string = "1 9 10 5 210"
set optking fixed_dihedral = $dih_string

optimize('MP2/aug-cc-PVTZ')
--------------------------------------------------------------------------

  Memory set to   4.657 GiB by Python driver.
gradient() will perform analytic gradient computation.

*** tstart() called on gpu-1-4.local
*** at Sun Nov 12 07:27:53 2017

    SCF Algorithm Type (re)set to DF.

*** tstart() called on gpu-1-4.local
*** at Sun Nov 12 07:27:53 2017

   => Loading Basis Set <=

    Name: AUG-CC-PVTZ
    Role: ORBITAL
    Keyword: BASIS
    atoms 1-11  entry C          line   221 file /cbio/jclab/home/chayas/anaconda/envs/py35/share/psi4/basis/aug-cc-pvtz.gbs 
    atoms 12    entry N          line   267 file /cbio/jclab/home/chayas/anaconda/envs/py35/share/psi4/basis/aug-cc-pvtz.gbs 
    atoms 13    entry O          line   313 file /cbio/jclab/home/chayas/anaconda/envs/py35/share/psi4/basis/aug-cc-pvtz.gbs 
    atoms 14-23 entry H          line    34 file /cbio/jclab/home/chayas/anaconda/envs/py35/share/psi4/basis/aug-cc-pvtz.gbs 


         ---------------------------------------------------------
                                   SCF
            by Justin Turney, Rob Parrish, and Andy Simmonett
                              RHF Reference
                        8 Threads,   4768 MiB Core
         ---------------------------------------------------------

  ==> Geometry <==

    Molecular point group: c1
    Full point group: C1

    Geometry (in Angstrom), charge = 1, multiplicity = 1:

       Center              X                  Y                   Z               Mass       
    ------------   -----------------  -----------------  -----------------  -----------------
           C         -1.271916188788     0.720073562677    -0.579531412949    12.000000000000
           C         -0.278916188788     0.104073562677     1.534468587051    12.000000000000
           C         -2.349916188788     1.293073562677     0.093468587051    12.000000000000
           C         -1.356916188788     0.677073562677     2.208468587051    12.000000000000
           C          1.559083811212    -1.548926437323     0.002468587051    12.000000000000
           C          1.284083811212     0.037073562677    -1.789531412949    12.000000000000
           C          2.629083811212    -2.098926437323    -0.689531412949    12.000000000000
           C          2.361083811212    -0.552926437323    -2.436531412949    12.000000000000
           C         -0.235916188788     0.125073562677     0.140468587051    12.000000000000
           C          0.883083811212    -0.468926437323    -0.557531412949    12.000000000000
           C         -2.392916188788     1.272073562677     1.487468587051    12.000000000000
           N          2.995083811212    -1.590926437323    -1.874531412949    14.003074004780
           O         -3.444916188788     1.832073562677     2.144468587051    15.994914619560
           H         -1.252916188788     0.744073562677    -1.666531412949     1.007825032070
           H          0.521083811212    -0.355926437323     2.110468587051     1.007825032070
           H         -3.153916188788     1.755073562677    -0.473531412949     1.007825032070
           H         -1.384916188788     0.658073562677     3.294468587051     1.007825032070
           H          1.268083811212    -1.964926437323     0.962468587051     1.007825032070
           H          0.775083811212     0.879073562677    -2.250531412949     1.007825032070
           H          3.211083811212    -2.936926437323    -0.332531412949     1.007825032070
           H          2.741083811212    -0.225926437323    -3.394531412949     1.007825032070
           H          3.784083811212    -2.008926437323    -2.366531412949     1.007825032070
           H         -3.331916188788     1.738073562677     3.103468587051     1.007825032070

  Running in c1 symmetry.

  Rotational constants: A =      0.09610  B =      0.01336  C =      0.01192 [cm^-1]
  Rotational constants: A =   2881.11381  B =    400.40590  C =    357.39338 [MHz]
  Nuclear repulsion =  713.221490682870922

  Charge       = 1
  Multiplicity = 1
  Electrons    = 90
  Nalpha       = 45
  Nbeta        = 45

  ==> Algorithm <==

  SCF Algorithm Type is DF.
  DIIS enabled.
  MOM disabled.
  Fractional occupation disabled.
  Guess Type is SAD.
  Energy threshold   = 1.00e-10
  Density threshold  = 1.00e-10
  Integral threshold = 0.00e+00

  ==> Primary Basis <==

  Basis Set: AUG-CC-PVTZ
    Blend: AUG-CC-PVTZ
    Number of shells: 272
    Number of basis function: 828
    Number of Cartesian functions: 965
    Spherical Harmonics?: true
    Max angular momentum: 3

   => Loading Basis Set <=

    Name: (AUG-CC-PVTZ AUX)
    Role: JKFIT
    Keyword: DF_BASIS_SCF
    atoms 1-11  entry C          line   161 file /cbio/jclab/home/chayas/anaconda/envs/py35/share/psi4/basis/aug-cc-pvtz-jkfit.gbs 
    atoms 12    entry N          line   223 file /cbio/jclab/home/chayas/anaconda/envs/py35/share/psi4/basis/aug-cc-pvtz-jkfit.gbs 
    atoms 13    entry O          line   285 file /cbio/jclab/home/chayas/anaconda/envs/py35/share/psi4/basis/aug-cc-pvtz-jkfit.gbs 
    atoms 14-23 entry H          line    69 file /cbio/jclab/home/chayas/anaconda/envs/py35/share/psi4/basis/aug-cc-pvtz-jkfit.gbs 

  ==> Pre-Iterations <==

   -------------------------------------------------------
    Irrep   Nso     Nmo     Nalpha   Nbeta   Ndocc  Nsocc
   -------------------------------------------------------
     A        828     828       0       0       0       0
   -------------------------------------------------------
    Total     828     828      45      45      45       0
   -------------------------------------------------------

  ==> Integral Setup <==

  ==> DFJK: Density-Fitted J/K Matrices <==

    J tasked:                  Yes
    K tasked:                  Yes
    wK tasked:                  No
    OpenMP threads:              8
    Integrals threads:           8
    Memory (MB):              3576
    Algorithm:                Disk
    Integral Cache:           NONE
    Schwarz Cutoff:          1E-12
    Fitting Condition:       1E-12

   => Auxiliary Basis Set <=

  Basis Set: (AUG-CC-PVTZ AUX)
    Blend: AUG-CC-PVTZ-JKFIT
    Number of shells: 530
    Number of basis function: 1812
    Number of Cartesian functions: 2253
    Spherical Harmonics?: true
    Max angular momentum: 4

  Minimum eigenvalue in the overlap matrix is 5.3066238193E-07.
  Using Symmetric Orthogonalization.

  SCF Guess: Superposition of Atomic Densities via on-the-fly atomic UHF.

  ==> Iterations <==

                           Total Energy        Delta E     RMS |[F,P]|

   @DF-RHF iter   0:  -555.92053811336916   -5.55921e+02   2.36225e-02 
   @DF-RHF iter   1:  -551.31540853930665    4.60513e+00   1.40706e-03 
   @DF-RHF iter   2:  -551.61031568769840   -2.94907e-01   8.35766e-04 DIIS
   @DF-RHF iter   3:  -551.66019355240394   -4.98779e-02   4.11279e-04 DIIS
   @DF-RHF iter   4:  -551.67384973634262   -1.36562e-02   1.44671e-04 DIIS
   @DF-RHF iter   5:  -551.67561003244748   -1.76030e-03   4.01826e-05 DIIS
   @DF-RHF iter   6:  -551.67599774494749   -3.87713e-04   1.15237e-05 DIIS
   @DF-RHF iter   7:  -551.67603561686622   -3.78719e-05   6.31263e-06 DIIS
   @DF-RHF iter   8:  -551.67604058910615   -4.97224e-06   2.39214e-06 DIIS
   @DF-RHF iter   9:  -551.67604187891277   -1.28981e-06   1.17109e-06 DIIS
   @DF-RHF iter  10:  -551.67604237115734   -4.92245e-07   4.04419e-07 DIIS
   @DF-RHF iter  11:  -551.67604247887505   -1.07718e-07   1.27759e-07 DIIS
   @DF-RHF iter  12:  -551.67604248883845   -9.96340e-09   5.79422e-08 DIIS
   @DF-RHF iter  13:  -551.67604248965449   -8.16044e-10   1.47829e-08 DIIS
   @DF-RHF iter  14:  -551.67604248973316   -7.86713e-11   6.20352e-09 DIIS
   @DF-RHF iter  15:  -551.67604248974419   -1.10276e-11   3.03165e-09 DIIS
   @DF-RHF iter  16:  -551.67604248976750   -2.33058e-11   9.43950e-10 DIIS
   @DF-RHF iter  17:  -551.67604248974180    2.56932e-11   4.37669e-10 DIIS
   @DF-RHF iter  18:  -551.67604248975545   -1.36424e-11   2.13505e-10 DIIS
   @DF-RHF iter  19:  -551.67604248974749    7.95808e-12   9.31234e-11 DIIS

  ==> Post-Iterations <==

    Orbital Energies (a.u.)
    -----------------------

    Doubly Occupied:                                                      

       1A    -20.703620     2A    -15.832490     3A    -11.483517  
       4A    -11.483478     5A    -11.445429     6A    -11.434594  
       7A    -11.413988     8A    -11.413719     9A    -11.380532  
      10A    -11.378762    11A    -11.371435    12A    -11.357893  
      13A    -11.354270    14A     -1.518469    15A     -1.510377  
      16A     -1.320718    17A     -1.264094    18A     -1.236431  
      19A     -1.154812    20A     -1.151660    21A     -1.067861  
      22A     -1.054147    23A     -0.976482    24A     -0.961513  
      25A     -0.950182    26A     -0.870600    27A     -0.859124  
      28A     -0.853930    29A     -0.821815    30A     -0.798111  
      31A     -0.781331    32A     -0.772812    33A     -0.757072  
      34A     -0.732571    35A     -0.720233    36A     -0.706319  
      37A     -0.704617    38A     -0.683933    39A     -0.654261  
      40A     -0.637289    41A     -0.620294    42A     -0.570404  
      43A     -0.536966    44A     -0.470258    45A     -0.437504  

    Virtual:                                                              

      46A     -0.104842    47A     -0.084358    48A     -0.063418  
      49A     -0.062819    50A     -0.059389    51A     -0.049159  
      52A     -0.043688    53A     -0.039413    54A     -0.034698  
      55A     -0.028424    56A     -0.025773    57A     -0.023723  
      58A     -0.016934    59A     -0.010391    60A     -0.006344  
      61A     -0.001381    62A      0.003554    63A      0.005922  
      64A      0.009143    65A      0.015281    66A      0.017513  
      67A      0.021505    68A      0.023936    69A      0.024782  
      70A      0.028547    71A      0.031974    72A      0.036736  
      73A      0.038560    74A      0.040005    75A      0.044965  
      76A      0.049280    77A      0.055204    78A      0.058108  
      79A      0.060385    80A      0.066927    81A      0.068348  
      82A      0.072718    83A      0.074449    84A      0.078148  
      85A      0.083908    86A      0.086239    87A      0.088285  
      88A      0.095360    89A      0.098328    90A      0.108315  
      91A      0.110562    92A      0.114676    93A      0.121006  
      94A      0.122967    95A      0.124860    96A      0.128321  
      97A      0.131960    98A      0.136948    99A      0.139862  
     100A      0.144685   101A      0.152606   102A      0.158146  
     103A      0.161779   104A      0.163638   105A      0.166986  
     106A      0.168129   107A      0.171097   108A      0.173667  
     109A      0.178057   110A      0.181602   111A      0.187991  
     112A      0.190429   113A      0.192387   114A      0.197221  
     115A      0.204474   116A      0.206207   117A      0.209987  
     118A      0.213104   119A      0.218000   120A      0.219517  
     121A      0.224196   122A      0.228153   123A      0.231270  
     124A      0.232984   125A      0.234178   126A      0.239578  
     127A      0.240663   128A      0.249948   129A      0.251642  
     130A      0.257887   131A      0.258701   132A      0.274122  
     133A      0.278085   134A      0.279239   135A      0.280258  
     136A      0.287270   137A      0.287318   138A      0.293127  
     139A      0.300232   140A      0.309294   141A      0.311728  
     142A      0.312203   143A      0.315929   144A      0.317944  
     145A      0.322660   146A      0.324411   147A      0.330640  
     148A      0.333956   149A      0.336461   150A      0.339555  
     151A      0.341151   152A      0.344205   153A      0.348894  
     154A      0.350798   155A      0.355359   156A      0.360776  
     157A      0.365511   158A      0.368404   159A      0.371276  
     160A      0.374190   161A      0.375642   162A      0.378710  
     163A      0.383669   164A      0.387470   165A      0.389535  
     166A      0.394408   167A      0.398773   168A      0.401073  
     169A      0.403814   170A      0.407736   171A      0.410901  
     172A      0.414489   173A      0.417194   174A      0.420206  
     175A      0.424772   176A      0.428380   177A      0.430770  
     178A      0.437247   179A      0.439233   180A      0.443167  
     181A      0.449225   182A      0.453517   183A      0.458428  
     184A      0.464162   185A      0.471686   186A      0.474892  
     187A      0.482667   188A      0.488278   189A      0.494869  
     190A      0.500830   191A      0.506721   192A      0.510513  
     193A      0.518387   194A      0.528517   195A      0.530016  
     196A      0.538316   197A      0.543164   198A      0.549700  
     199A      0.551263   200A      0.563500   201A      0.570803  
     202A      0.574368   203A      0.576989   204A      0.581039  
     205A      0.584574   206A      0.586978   207A      0.595828  
     208A      0.601133   209A      0.607561   210A      0.612563  
     211A      0.619934   212A      0.622087   213A      0.627323  
     214A      0.632719   215A      0.637390   216A      0.642788  
     217A      0.645185   218A      0.649630   219A      0.655869  
     220A      0.667399   221A      0.676428   222A      0.681290  
     223A      0.693560   224A      0.700153   225A      0.701807  
     226A      0.704169   227A      0.708613   228A      0.711321  
     229A      0.716650   230A      0.718670   231A      0.725158  
     232A      0.730973   233A      0.734861   234A      0.737682  
     235A      0.741057   236A      0.744716   237A      0.757441  
     238A      0.758536   239A      0.762878   240A      0.769131  
     241A      0.775151   242A      0.778207   243A      0.780030  
     244A      0.785168   245A      0.789040   246A      0.794642  
     247A      0.796229   248A      0.804029   249A      0.806293  
     250A      0.811317   251A      0.814493   252A      0.817947  
     253A      0.827579   254A      0.829059   255A      0.836891  
     256A      0.845285   257A      0.849222   258A      0.856609  
     259A      0.858443   260A      0.862045   261A      0.867750  
     262A      0.869311   263A      0.873404   264A      0.878428  
     265A      0.879922   266A      0.882031   267A      0.885032  
     268A      0.891719   269A      0.898105   270A      0.904463  
     271A      0.907398   272A      0.919249   273A      0.923087  
     274A      0.926590   275A      0.928836   276A      0.935099  
     277A      0.938190   278A      0.942015   279A      0.947067  
     280A      0.955050   281A      0.956163   282A      0.959155  
     283A      0.965481   284A      0.967869   285A      0.970510  
     286A      0.975181   287A      0.978625   288A      0.985225  
     289A      0.987641   290A      0.990891   291A      0.995296  
     292A      1.000130   293A      1.006440   294A      1.009885  
     295A      1.016169   296A      1.018336   297A      1.021359  
     298A      1.029244   299A      1.031914   300A      1.036163  
     301A      1.042827   302A      1.050367   303A      1.056164  
     304A      1.062659   305A      1.063535   306A      1.068907  
     307A      1.071009   308A      1.073812   309A      1.081117  
     310A      1.085711   311A      1.089493   312A      1.098426  
     313A      1.099683   314A      1.104192   315A      1.106403  
     316A      1.112853   317A      1.124297   318A      1.126379  
     319A      1.131964   320A      1.139883   321A      1.142140  
     322A      1.151670   323A      1.156188   324A      1.162027  
     325A      1.162408   326A      1.164163   327A      1.175141  
     328A      1.180070   329A      1.183174   330A      1.200885  
     331A      1.204860   332A      1.222794   333A      1.224619  
     334A      1.229970   335A      1.234328   336A      1.237832  
     337A      1.245614   338A      1.256861   339A      1.260329  
     340A      1.269788   341A      1.274687   342A      1.282817  
     343A      1.287020   344A      1.297906   345A      1.303114  
     346A      1.309776   347A      1.317895   348A      1.323741  
     349A      1.324875   350A      1.332222   351A      1.342865  
     352A      1.348549   353A      1.358562   354A      1.363029  
     355A      1.367342   356A      1.376217   357A      1.385029  
     358A      1.391183   359A      1.394285   360A      1.400682  
     361A      1.405579   362A      1.412152   363A      1.421372  
     364A      1.424743   365A      1.428822   366A      1.442397  
     367A      1.448073   368A      1.455488   369A      1.460757  
     370A      1.473783   371A      1.477289   372A      1.483143  
     373A      1.492469   374A      1.499902   375A      1.514040  
     376A      1.530570   377A      1.534468   378A      1.535884  
     379A      1.543037   380A      1.548642   381A      1.555732  
     382A      1.563623   383A      1.565703   384A      1.576196  
     385A      1.585050   386A      1.591568   387A      1.603864  
     388A      1.608900   389A      1.629783   390A      1.634272  
     391A      1.641885   392A      1.652485   393A      1.655245  
     394A      1.663282   395A      1.671643   396A      1.676992  
     397A      1.691148   398A      1.696260   399A      1.700753  
     400A      1.705372   401A      1.708544   402A      1.715757  
     403A      1.724500   404A      1.733213   405A      1.734687  
     406A      1.750053   407A      1.755754   408A      1.758127  
     409A      1.764511   410A      1.781325   411A      1.787411  
     412A      1.797225   413A      1.808599   414A      1.814115  
     415A      1.822320   416A      1.823649   417A      1.831372  
     418A      1.841632   419A      1.852820   420A      1.858645  
     421A      1.860552   422A      1.871909   423A      1.880366  
     424A      1.884383   425A      1.897782   426A      1.904050  
     427A      1.908834   428A      1.915249   429A      1.918852  
     430A      1.922290   431A      1.930010   432A      1.944232  
     433A      1.946879   434A      1.948506   435A      1.951470  
     436A      1.958367   437A      1.968674   438A      1.985983  
     439A      1.991202   440A      1.997255   441A      2.000585  
     442A      2.012809   443A      2.017083   444A      2.031183  
     445A      2.035422   446A      2.043760   447A      2.056006  
     448A      2.062148   449A      2.073941   450A      2.077079  
     451A      2.083106   452A      2.092057   453A      2.100418  
     454A      2.112464   455A      2.120468   456A      2.142042  
     457A      2.154929   458A      2.166441   459A      2.190888  
     460A      2.199808   461A      2.203202   462A      2.208341  
     463A      2.215421   464A      2.216880   465A      2.230634  
     466A      2.237374   467A      2.245471   468A      2.255228  
     469A      2.262173   470A      2.279940   471A      2.286780  
     472A      2.292316   473A      2.296969   474A      2.307950  
     475A      2.321959   476A      2.335462   477A      2.346795  
     478A      2.354953   479A      2.368006   480A      2.378993  
     481A      2.393236   482A      2.402453   483A      2.406565  
     484A      2.414792   485A      2.423053   486A      2.427172  
     487A      2.437538   488A      2.446127   489A      2.451808  
     490A      2.474052   491A      2.491589   492A      2.498074  
     493A      2.516235   494A      2.524318   495A      2.545947  
     496A      2.558284   497A      2.565785   498A      2.572715  
     499A      2.595200   500A      2.600799   501A      2.627499  
     502A      2.639519   503A      2.658391   504A      2.675475  
     505A      2.693264   506A      2.714244   507A      2.722871  
     508A      2.737651   509A      2.760262   510A      2.775111  
     511A      2.776766   512A      2.785038   513A      2.822314  
     514A      2.837519   515A      2.851248   516A      2.881497  
     517A      2.891516   518A      2.947798   519A      2.952644  
     520A      2.968763   521A      2.978000   522A      2.997076  
     523A      3.001787   524A      3.013633   525A      3.037517  
     526A      3.066004   527A      3.070414   528A      3.084909  
     529A      3.094338   530A      3.117090   531A      3.140443  
     532A      3.161261   533A      3.164503   534A      3.172682  
     535A      3.183946   536A      3.193949   537A      3.208582  
     538A      3.214604   539A      3.229349   540A      3.237136  
     541A      3.244581   542A      3.257327   543A      3.260171  
     544A      3.271870   545A      3.276009   546A      3.286704  
     547A      3.299301   548A      3.310571   549A      3.326901  
     550A      3.336294   551A      3.352565   552A      3.356391  
     553A      3.372096   554A      3.383547   555A      3.385408  
     556A      3.395557   557A      3.397767   558A      3.404631  
     559A      3.412239   560A      3.415529   561A      3.418707  
     562A      3.433022   563A      3.442358   564A      3.449538  
     565A      3.462962   566A      3.469732   567A      3.472910  
     568A      3.487941   569A      3.505226   570A      3.510900  
     571A      3.515730   572A      3.538548   573A      3.548821  
     574A      3.551025   575A      3.564546   576A      3.571029  
     577A      3.573416   578A      3.597154   579A      3.602446  
     580A      3.615659   581A      3.626282   582A      3.627206  
     583A      3.633908   584A      3.651313   585A      3.658315  
     586A      3.661550   587A      3.665754   588A      3.690683  
     589A      3.700040   590A      3.709359   591A      3.714063  
     592A      3.721210   593A      3.735845   594A      3.741298  
     595A      3.755972   596A      3.759267   597A      3.765577  
     598A      3.771887   599A      3.781991   600A      3.787230  
     601A      3.794880   602A      3.797027   603A      3.814361  
     604A      3.824207   605A      3.837717   606A      3.844125  
     607A      3.852057   608A      3.862353   609A      3.870365  
     610A      3.876547   611A      3.877968   612A      3.881425  
     613A      3.887219   614A      3.894827   615A      3.905797  
     616A      3.917364   617A      3.943987   618A      3.945321  
     619A      3.957129   620A      3.961795   621A      3.981667  
     622A      3.987706   623A      3.990761   624A      4.006474  
     625A      4.018177   626A      4.026496   627A      4.030928  
     628A      4.043594   629A      4.055950   630A      4.061531  
     631A      4.063613   632A      4.079621   633A      4.081654  
     634A      4.089713   635A      4.100856   636A      4.110317  
     637A      4.112708   638A      4.112964   639A      4.135086  
     640A      4.141991   641A      4.153550   642A      4.162115  
     643A      4.176394   644A      4.182226   645A      4.190220  
     646A      4.201428   647A      4.211765   648A      4.216509  
     649A      4.221665   650A      4.224899   651A      4.234754  
     652A      4.246835   653A      4.249627   654A      4.264733  
     655A      4.275906   656A      4.278538   657A      4.285561  
     658A      4.294506   659A      4.299808   660A      4.304392  
     661A      4.311789   662A      4.323334   663A      4.332507  
     664A      4.343051   665A      4.345387   666A      4.365279  
     667A      4.369460   668A      4.372814   669A      4.382438  
     670A      4.398468   671A      4.402015   672A      4.410520  
     673A      4.416664   674A      4.430534   675A      4.449413  
     676A      4.455836   677A      4.463529   678A      4.492088  
     679A      4.501800   680A      4.507693   681A      4.542293  
     682A      4.555899   683A      4.561040   684A      4.575054  
     685A      4.581929   686A      4.602501   687A      4.611741  
     688A      4.613657   689A      4.648121   690A      4.652736  
     691A      4.661020   692A      4.665524   693A      4.672430  
     694A      4.684837   695A      4.718535   696A      4.727160  
     697A      4.743946   698A      4.752403   699A      4.761032  
     700A      4.765364   701A      4.775502   702A      4.801283  
     703A      4.815951   704A      4.826207   705A      4.830221  
     706A      4.835039   707A      4.853586   708A      4.877089  
     709A      4.885903   710A      4.896379   711A      4.902787  
     712A      4.916851   713A      4.938432   714A      4.944434  
     715A      4.952869   716A      4.961852   717A      4.973510  
     718A      4.978374   719A      4.993278   720A      5.002449  
     721A      5.006111   722A      5.015702   723A      5.019148  
     724A      5.042561   725A      5.048284   726A      5.054924  
     727A      5.081778   728A      5.099798   729A      5.117272  
     730A      5.140064   731A      5.146141   732A      5.167996  
     733A      5.178397   734A      5.185134   735A      5.198685  
     736A      5.209442   737A      5.212147   738A      5.226348  
     739A      5.261164   740A      5.272600   741A      5.284808  
     742A      5.302500   743A      5.307461   744A      5.310525  
     745A      5.338594   746A      5.358147   747A      5.383680  
     748A      5.390441   749A      5.415029   750A      5.429926  
     751A      5.442883   752A      5.452784   753A      5.510316  
     754A      5.526090   755A      5.554717   756A      5.563316  
     757A      5.578496   758A      5.588789   759A      5.607567  
     760A      5.616415   761A      5.630544   762A      5.663857  
     763A      5.695919   764A      5.700758   765A      5.723930  
     766A      5.735852   767A      5.780187   768A      5.808635  
     769A      5.843340   770A      5.863633   771A      5.940188  
     772A      5.954659   773A      5.990258   774A      5.995777  
     775A      6.029796   776A      6.047106   777A      6.091292  
     778A      6.126419   779A      6.191068   780A      6.215795  
     781A      6.258625   782A      6.291213   783A      6.309621  
     784A      6.350787   785A      6.373207   786A      6.397804  
     787A      6.417684   788A      6.484573   789A      6.491315  
     790A      6.549096   791A      6.579404   792A      6.641056  
     793A      6.672125   794A      6.752088   795A      6.792279  
     796A      6.794115   797A      6.803864   798A      6.832036  
     799A      6.844903   800A      6.902104   801A      6.949694  
     802A      6.972091   803A      6.985238   804A      7.112262  
     805A      7.160971   806A      7.321793   807A      7.333480  
     808A      7.467785   809A      7.545841   810A      7.584970  
     811A      7.611106   812A      7.654627   813A      7.912074  
     814A      8.289371   815A      8.539725   816A     16.021849  
     817A     16.282158   818A     16.609783   819A     16.667437  
     820A     16.975520   821A     18.796196   822A     19.118327  
     823A     19.385361   824A     19.762195   825A     19.967498  
     826A     20.012783   827A     20.539521   828A     21.792613  

    Final Occupation by Irrep:
              A 
    DOCC [    45 ]

  Energy converged.

  @DF-RHF Final Energy:  -551.67604248974749

   => Energetics <=

    Nuclear Repulsion Energy =            713.2214906828709218
    One-Electron Energy =               -2149.3752332696958547
    Two-Electron Energy =                 884.4777000970775589
    DFT Exchange-Correlation Energy =       0.0000000000000000
    Empirical Dispersion Energy =           0.0000000000000000
    PCM Polarization Energy =               0.0000000000000000
    EFP Energy =                            0.0000000000000000
    Total Energy =                       -551.6760424897474877



Properties will be evaluated at   0.000000,   0.000000,   0.000000 Bohr

Properties computed using the SCF density matrix

  Nuclear Dipole Moment: (a.u.)
     X:     2.9529      Y:    -1.5974      Z:    -0.9342

  Electronic Dipole Moment: (a.u.)
     X:     0.2919      Y:    -0.1438      Z:    -0.4893

  Dipole Moment: (a.u.)
     X:     3.2448      Y:    -1.7412      Z:    -1.4235     Total:     3.9480

  Dipole Moment: (Debye)
     X:     8.2475      Y:    -4.4256      Z:    -3.6181     Total:    10.0348


*** tstop() called on gpu-1-4.local at Sun Nov 12 07:35:47 2017
Module time:
	user time   =    1122.50 seconds =      18.71 minutes
	system time =      50.20 seconds =       0.84 minutes
	total time  =        474 seconds =       7.90 minutes
Total time:
	user time   =    1122.51 seconds =      18.71 minutes
	system time =      50.20 seconds =       0.84 minutes
	total time  =        474 seconds =       7.90 minutes

  //>>>>>>>>>>>>>>>>>>>>>>>>>>>>>>>>>>>//
  //               DFMP2               //
  //<<<<<<<<<<<<<<<<<<<<<<<<<<<<<<<<<<<//

   => Loading Basis Set <=

    Name: (AUG-CC-PVTZ AUX)
    Role: RIFIT
    Keyword: DF_BASIS_MP2
    atoms 1-11  entry C          line   147 file /cbio/jclab/home/chayas/anaconda/envs/py35/share/psi4/basis/aug-cc-pvtz-ri.gbs 
    atoms 12    entry N          line   205 file /cbio/jclab/home/chayas/anaconda/envs/py35/share/psi4/basis/aug-cc-pvtz-ri.gbs 
    atoms 13    entry O          line   263 file /cbio/jclab/home/chayas/anaconda/envs/py35/share/psi4/basis/aug-cc-pvtz-ri.gbs 
    atoms 14-23 entry H          line    29 file /cbio/jclab/home/chayas/anaconda/envs/py35/share/psi4/basis/aug-cc-pvtz-ri.gbs 

	 --------------------------------------------------------
	                          DF-MP2                         
	      2nd-Order Density-Fitted Moller-Plesset Theory     
	              RMP2 Wavefunction,   8 Threads             
	                                                         
	        Rob Parrish, Justin Turney, Andy Simmonett,      
	           Ed Hohenstein, and C. David Sherrill          
	 --------------------------------------------------------

   => Auxiliary Basis Set <=

  Basis Set: (AUG-CC-PVTZ AUX)
    Blend: AUG-CC-PVTZ-RI
    Number of shells: 504
    Number of basis function: 1838
    Number of Cartesian functions: 2318
    Spherical Harmonics?: true
    Max angular momentum: 4

	 --------------------------------------------------------
	                 NBF =   828, NAUX =  1838
	 --------------------------------------------------------
	   CLASS    FOCC     OCC    AOCC    AVIR     VIR    FVIR
	   PAIRS       0      45      45     783     783       0
	 --------------------------------------------------------


         ------------------------------------------------------------
                                     CPHF                           
                                  Rob Parrish                       
         ------------------------------------------------------------

  ==> Geometry <==

    Molecular point group: c1
    Full point group: C1

    Geometry (in Angstrom), charge = 1, multiplicity = 1:

       Center              X                  Y                   Z               Mass       
    ------------   -----------------  -----------------  -----------------  -----------------
           C         -1.271916188788     0.720073562677    -0.579531412949    12.000000000000
           C         -0.278916188788     0.104073562677     1.534468587051    12.000000000000
           C         -2.349916188788     1.293073562677     0.093468587051    12.000000000000
           C         -1.356916188788     0.677073562677     2.208468587051    12.000000000000
           C          1.559083811212    -1.548926437323     0.002468587051    12.000000000000
           C          1.284083811212     0.037073562677    -1.789531412949    12.000000000000
           C          2.629083811212    -2.098926437323    -0.689531412949    12.000000000000
           C          2.361083811212    -0.552926437323    -2.436531412949    12.000000000000
           C         -0.235916188788     0.125073562677     0.140468587051    12.000000000000
           C          0.883083811212    -0.468926437323    -0.557531412949    12.000000000000
           C         -2.392916188788     1.272073562677     1.487468587051    12.000000000000
           N          2.995083811212    -1.590926437323    -1.874531412949    14.003074004780
           O         -3.444916188788     1.832073562677     2.144468587051    15.994914619560
           H         -1.252916188788     0.744073562677    -1.666531412949     1.007825032070
           H          0.521083811212    -0.355926437323     2.110468587051     1.007825032070
           H         -3.153916188788     1.755073562677    -0.473531412949     1.007825032070
           H         -1.384916188788     0.658073562677     3.294468587051     1.007825032070
           H          1.268083811212    -1.964926437323     0.962468587051     1.007825032070
           H          0.775083811212     0.879073562677    -2.250531412949     1.007825032070
           H          3.211083811212    -2.936926437323    -0.332531412949     1.007825032070
           H          2.741083811212    -0.225926437323    -3.394531412949     1.007825032070
           H          3.784083811212    -2.008926437323    -2.366531412949     1.007825032070
           H         -3.331916188788     1.738073562677     3.103468587051     1.007825032070

  Nuclear repulsion =  713.221490682870922
  Reference energy  = -551.676042489747488

  ==> Basis Set <==

  Basis Set: AUG-CC-PVTZ
    Blend: AUG-CC-PVTZ
    Number of shells: 272
    Number of basis function: 828
    Number of Cartesian functions: 965
    Spherical Harmonics?: true
    Max angular momentum: 3

  ==> CGRSolver (by Rob Parrish) <==

   Number of roots    =         1
   Preconditioning    =    JACOBI
   Convergence cutoff =     1E-06
   Maximum iterations =       100

  ==> CPHFRHamiltonian (by Rob Parrish) <== 

  ==> DFJK: Density-Fitted J/K Matrices <==

    J tasked:                  Yes
    K tasked:                  Yes
    wK tasked:                  No
    OpenMP threads:              8
    Integrals threads:           8
    Memory (MB):              3576
    Algorithm:                Disk
    Integral Cache:           NONE
    Schwarz Cutoff:          1E-12
    Fitting Condition:       1E-12

   => Auxiliary Basis Set <=

  Basis Set: (AUG-CC-PVTZ AUX)
    Blend: AUG-CC-PVTZ-JKFIT
    Number of shells: 530
    Number of basis function: 1812
    Number of Cartesian functions: 2253
    Spherical Harmonics?: true
    Max angular momentum: 4

  ==> CPHF Iterations <==

  => Iterations <=

             Iter  Converged  Remaining    Residual
  CGR           1          0          1   1.127E-01
  CGR           2          0          1   5.134E-02
  CGR           3          0          1   2.987E-02
  CGR           4          0          1   9.631E-03
  CGR           5          0          1   4.514E-03
  CGR           6          0          1   2.255E-03
  CGR           7          0          1   6.944E-04
  CGR           8          0          1   2.799E-04
  CGR           9          0          1   1.341E-04
  CGR          10          0          1   4.573E-05
  CGR          11          0          1   1.477E-05
  CGR          12          0          1   5.471E-06
  CGR          13          0          1   1.707E-06
  CGR          14          1          0   5.450E-07

    CGRSolver converged.

  ==> DFCorrGrad: Density-Fitted Correlated Gradients <==

    OpenMP threads:              8
    Integrals threads:           8
    Memory (MB):              3576
    Schwarz Cutoff:          0E+00
    Fitting Condition:       1E-12

   => Auxiliary Basis Set <=

  Basis Set: (AUG-CC-PVTZ AUX)
    Blend: AUG-CC-PVTZ-JKFIT
    Number of shells: 530
    Number of basis function: 1812
    Number of Cartesian functions: 2253
    Spherical Harmonics?: true
    Max angular momentum: 4

	-----------------------------------------------------------
	 ==================> DF-MP2 Energies <==================== 
	-----------------------------------------------------------
	 Reference Energy          =    -551.6760424897474877 [Eh]
	 Singles Energy            =      -0.0000000000000003 [Eh]
	 Same-Spin Energy          =      -0.5966695096498128 [Eh]
	 Opposite-Spin Energy      =      -1.8256381275538920 [Eh]
	 Correlation Energy        =      -2.4223076372037053 [Eh]
	 Total Energy              =    -554.0983501269512317 [Eh]
	-----------------------------------------------------------
	 ================> DF-SCS-MP2 Energies <================== 
	-----------------------------------------------------------
	 SCS Same-Spin Scale       =       0.3333333333333333 [-]
	 SCS Opposite-Spin Scale   =       1.2000000000000000 [-]
	 SCS Same-Spin Energy      =      -0.1988898365499376 [Eh]
	 SCS Opposite-Spin Energy  =      -2.1907657530646705 [Eh]
	 SCS Correlation Energy    =      -2.3896555896146086 [Eh]
	 SCS Total Energy          =    -554.0656980793620505 [Eh]
	-----------------------------------------------------------


  -Total Gradient:
     Atom            X                  Y                   Z
    ------   -----------------  -----------------  -----------------
       1        0.009394575419    -0.009552912332    -0.006825260681
       2        0.011098416702    -0.000786375910    -0.009453283044
       3       -0.000436241977    -0.000100229647     0.007921783543
       4       -0.012188913975     0.006255542271     0.006052511135
       5       -0.019143010118     0.008422626875     0.008497875935
       6       -0.015368572216     0.009133402941     0.013734074570
       7        0.005110285446     0.002856371918    -0.013073160365
       8        0.009115639716    -0.010602606796     0.004355046236
       9       -0.003296014075     0.001544345788     0.001644500590
      10        0.014496820615    -0.007207460221    -0.009657734709
      11        0.003420897708    -0.001335776587    -0.015009046354
      12       -0.001593157470     0.000928566092     0.001005776338
      13       -0.005582621117     0.002848449745     0.009291575942
      14        0.001989344143     0.001277898798    -0.006048765552
      15        0.003771044131    -0.004452690448     0.002746251239
      16       -0.002822894661     0.002365607459    -0.005072008179
      17        0.000076656615    -0.000727900858     0.004410491412
      18       -0.001496127738    -0.000719359882     0.007061843486
      19       -0.005183950810     0.004538740642    -0.003044617717
      20        0.002341941358    -0.001523528020    -0.000275751859
      21        0.001643992031    -0.000492907865    -0.002397423010
      22        0.005103844704    -0.002610905066    -0.003234683273
      23       -0.000451954427    -0.000058898888     0.007370004330


*** tstop() called on gpu-1-4.local at Sun Nov 12 08:09:13 2017
Module time:
	user time   =    5421.82 seconds =      90.36 minutes
	system time =     110.45 seconds =       1.84 minutes
	total time  =       2480 seconds =      41.33 minutes
Total time:
	user time   =    5421.83 seconds =      90.36 minutes
	system time =     110.45 seconds =       1.84 minutes
	total time  =       2480 seconds =      41.33 minutes

			-----------------------------------------
			 OPTKING 2.0: for geometry optimizations 
			  - R.A. King,  Bethel University        
			-----------------------------------------

	Internal coordinates to be generated automatically.
	Detected frag 1 with atoms:  1 2 3 4 5 6 7 8 9 10 11 12 13 14 15 16 17 18 19 20
	 21 22 23
	---Fragment 1 Bond Connectivity---
	 1 : 3 9 14
	 2 : 4 9 15
	 3 : 1 11 16
	 4 : 2 11 17
	 5 : 7 10 18
	 6 : 8 10 19
	 7 : 5 12 20
	 8 : 6 12 21
	 9 : 1 2 10
	 10 : 5 6 9
	 11 : 3 4 13
	 12 : 7 8 22
	 13 : 11 23
	 14 : 1
	 15 : 2
	 16 : 3
	 17 : 4
	 18 : 5
	 19 : 6
	 20 : 7
	 21 : 8
	 22 : 12
	 23 : 13

	Assuming in current code that numbering for constraints corresponds to unified fragment.
	Fixed dihedral atom list: 
	     1     9    10     5
	---Fragment 1 Geometry and Gradient---
	 C          -2.4035732608        1.3607418290       -1.0951556559
	 C          -0.5270752108        0.1966705311        2.8997253890
	 C          -4.4406980320        2.4435549031        0.1766300316
	 C          -2.5641999821        1.2794836053        4.1734008026
	 C           2.9462414214       -2.9270467665        0.0046649535
	 C           2.4265667349        0.0700588802       -3.3817242767
	 C           4.9682483836       -3.9663961396       -1.3030255305
	 C           4.4618017800       -1.0448795382       -4.6043770846
	 C          -0.4458169871        0.2363547799        0.2654471598
	 C           1.6687865556       -0.8861425430       -1.0535816810
	 C          -4.5219562558        2.4038706543        2.8109082608
	 N           5.6598881482       -3.0064152641       -3.5423509980
	 O          -6.5099481476        3.4621172888        4.0524583301
	 H          -2.3676684643        1.4060952562       -3.1492879623
	 H           0.9847056955       -0.6726034900        3.9882076416
	 H          -5.9600378429        3.3166083765       -0.8948446858
	 H          -2.6171123138        1.2435788088        6.2256433829
	 H           2.3963311167       -3.7131728378        1.8188020410
	 H           1.4646961332        1.6612082841       -4.2528880239
	 H           6.0680689929       -5.5499866390       -0.6283933011
	 H           5.1798977105       -0.4269390927       -6.4147347200
	 H           7.1508820671       -3.7963207877       -4.4720962553
	 H          -6.2964090945        3.2844830323        5.8647056915
	             0.0093945754       -0.0095529123       -0.0068252607
	             0.0110984167       -0.0007863759       -0.0094532830
	            -0.0004362420       -0.0001002296        0.0079217835
	            -0.0121889140        0.0062555423        0.0060525111
	            -0.0191430101        0.0084226269        0.0084978759
	            -0.0153685722        0.0091334029        0.0137340746
	             0.0051102854        0.0028563719       -0.0130731604
	             0.0091156397       -0.0106026068        0.0043550462
	            -0.0032960141        0.0015443458        0.0016445006
	             0.0144968206       -0.0072074602       -0.0096577347
	             0.0034208977       -0.0013357766       -0.0150090464
	            -0.0015931575        0.0009285661        0.0010057763
	            -0.0055826211        0.0028484497        0.0092915759
	             0.0019893441        0.0012778988       -0.0060487656
	             0.0037710441       -0.0044526904        0.0027462512
	            -0.0028228947        0.0023656075       -0.0050720082
	             0.0000766566       -0.0007279009        0.0044104914
	            -0.0014961277       -0.0007193599        0.0070618435
	            -0.0051839508        0.0045387406       -0.0030446177
	             0.0023419414       -0.0015235280       -0.0002757519
	             0.0016439920       -0.0004929079       -0.0023974230
	             0.0051038447       -0.0026109051       -0.0032346833
	            -0.0004519544       -0.0000588989        0.0073700043

	Previous optimization step data not found.  Starting new optimization.

	---Fragment 1 Intrafragment Coordinates---
	 - Coordinate -           - BOHR/RAD -       - ANG/DEG -
	 R(1,3)           =         2.634350	       1.394038
	 R(1,9)           =         2.635962	       1.394891
	 R(1,14)          =         2.054947	       1.087431
	 R(2,4)           =         2.635263	       1.394521
	 R(2,9)           =         2.635830	       1.394821
	 R(2,15)          =         2.055702	       1.087831
	 R(3,11)          =         2.635830	       1.394821
	 R(3,16)          =         2.053941	       1.086899
	 R(4,11)          =         2.636938	       1.395407
	 R(4,17)          =         2.053239	       1.086527
	 R(5,7)           =         2.622749	       1.387899
	 R(5,10)          =         2.630032	       1.391753
	 R(5,18)          =         2.052191	       1.085973
	 R(6,8)           =         2.623004	       1.388034
	 R(6,10)          =         2.628460	       1.390921
	 R(6,19)          =         2.053260	       1.086539
	 R(7,12)          =         2.532688	       1.340241
	 R(7,20)          =         2.042668	       1.080933
	 R(8,12)          =         2.531982	       1.339867
	 R(8,21)          =         2.043259	       1.081246
	 R(9,10)          =         2.733384	       1.446444
	 R(11,13)         =         2.571662	       1.360865
	 R(12,22)         =         1.926510	       1.019465
	 R(13,23)         =         1.833410	       0.970199
	 B(1,3,11)        =         2.094553	     120.009056
	 B(1,3,16)        =         2.088505	     119.662516
	 B(1,9,2)         =         2.093692	     119.959722
	 B(1,9,10)        =         2.095161	     120.043881
	 B(2,4,11)        =         2.093699	     119.960108
	 B(2,4,17)        =         2.089577	     119.723926
	 B(2,9,10)        =         2.094332	     119.996376
	 B(3,1,9)         =         2.094940	     120.031219
	 B(3,1,14)        =         2.079469	     119.144799
	 B(3,11,4)        =         2.094306	     119.994870
	 B(3,11,13)       =         2.094549	     120.008801
	 B(4,2,9)         =         2.095181	     120.045019
	 B(4,2,15)        =         2.078675	     119.099297
	 B(4,11,13)       =         2.094331	     119.996326
	 B(5,7,12)        =         2.095749	     120.077588
	 B(5,7,20)        =         2.162344	     123.893190
	 B(5,10,6)        =         2.092854	     119.911690
	 B(5,10,9)        =         2.094703	     120.017668
	 B(6,8,12)        =         2.095472	     120.061687
	 B(6,8,21)        =         2.161732	     123.858096
	 B(6,10,9)        =         2.095627	     120.070602
	 B(7,5,10)        =         2.073001	     118.774229
	 B(7,5,18)        =         2.089254	     119.705445
	 B(7,12,8)        =         2.135638	     122.363050
	 B(7,12,22)       =         2.074467	     118.858216
	 B(8,6,10)        =         2.073655	     118.811702
	 B(8,6,19)        =         2.088761	     119.677211
	 B(8,12,22)       =         2.073080	     118.778733
	 B(9,1,14)        =         2.108776	     120.823969
	 B(9,2,15)        =         2.109330	     120.855683
	 B(10,5,18)       =         2.120929	     121.520305
	 B(10,6,19)       =         2.120768	     121.511053
	 B(11,3,16)       =         2.100127	     120.328425
	 B(11,4,17)       =         2.099910	     120.315955
	 B(11,13,23)      =         1.925489	     110.322421
	 B(12,7,20)       =         2.025092	     116.029219
	 B(12,8,21)       =         2.025982	     116.080213
	 D(1,3,11,4)      =        -0.000325	      -0.018609
	 D(1,3,11,13)     =         3.140978	     179.964785
	 D(1,9,2,4)       =         0.000325	       0.018608
	 D(1,9,2,15)      =        -3.141497	    -179.994534
	 D(1,9,10,5)      =        -2.617636	    -149.979502
	 D(1,9,10,6)      =         0.522679	      29.947286
	 D(2,4,11,3)      =         0.000301	       0.017261
	 D(2,4,11,13)     =        -3.141002	    -179.966135
	 D(2,9,1,3)       =        -0.000348	      -0.019945
	 D(2,9,1,14)      =        -3.141221	    -179.978731
	 D(2,9,10,5)      =         0.524873	      30.073001
	 D(2,9,10,6)      =        -2.617998	    -150.000211
	 D(3,1,9,10)      =        -3.141025	    -179.967461
	 D(3,11,4,17)     =         3.141223	     179.978848
	 D(3,11,13,23)    =         3.140828	     179.956172
	 D(4,2,9,10)      =         3.141002	     179.966149
	 D(4,11,3,16)     =         3.141593	     180.000000
	 D(4,11,13,23)    =        -0.001055	      -0.060434
	 D(5,7,12,8)      =        -0.000801	      -0.045884
	 D(5,7,12,22)     =         3.140907	     179.960687
	 D(5,10,6,8)      =        -0.001206	      -0.069070
	 D(5,10,6,19)     =         3.141568	     179.998583
	 D(6,8,12,7)      =         0.000844	       0.048339
	 D(6,8,12,22)     =        -3.140864	    -179.958227
	 D(6,10,5,7)      =         0.001246	       0.071415
	 D(6,10,5,18)     =        -3.141284	    -179.982306
	 D(7,5,10,9)      =         3.141563	     179.998320
	 D(7,12,8,21)     =        -3.141158	    -179.975075
	 D(8,6,10,9)      =        -3.141522	    -179.995936
	 D(8,12,7,20)     =         3.140489	     179.936793
	 D(9,1,3,11)      =         0.000348	       0.019955
	 D(9,1,3,16)      =        -3.141571	    -179.998735
	 D(9,2,4,11)      =        -0.000301	      -0.017270
	 D(9,2,4,17)      =        -3.141228	    -179.979086
	 D(9,10,5,18)     =        -0.000967	      -0.055401
	 D(9,10,6,19)     =         0.001252	       0.071717
	 D(10,5,7,12)     =        -0.000259	      -0.014861
	 D(10,5,7,20)     =        -3.141525	    -179.996109
	 D(10,6,8,12)     =         0.000176	       0.010062
	 D(10,6,8,21)     =        -3.140975	    -179.964613
	 D(10,9,1,14)     =         0.001287	       0.073752
	 D(10,9,2,15)     =        -0.000820	      -0.046992
	 D(11,3,1,14)     =         3.141234	     179.979432
	 D(11,4,2,15)     =         3.141517	     179.995641
	 D(12,7,5,18)     =        -3.140932	    -179.962138
	 D(12,8,6,19)     =         3.140610	     179.943677
	 D(13,11,3,16)    =        -0.000286	      -0.016400
	 D(13,11,4,17)    =        -0.000079	      -0.004548
	 D(14,1,3,16)     =        -0.000685	      -0.039257
	 D(15,2,4,17)     =         0.000590	       0.033826
	 D(18,5,7,20)     =         0.000988	       0.056614
	 D(19,6,8,21)     =        -0.000541	      -0.030999
	 D(20,7,12,22)    =        -0.000988	      -0.056636
	 D(21,8,12,22)    =         0.000320	       0.018359

	Current energy   :      -554.0983501270

	Generating empirical Hessian (Schlegel '84) for each fragment.
	Adding user-defined constraint: Fragment 1; Coordinate 66:
		Value =    -2.617636; Fixed value    =    -2.617994
		Force =    -0.000179; Force constant =     0.500000
	Removing off-diagonal coupling between coordinate 66 and others.
	Taking RFO optimization step.
	Going to follow RFO solution 1.
	Using RFO vector 1.

	Determining step-restricting scale parameter for RS-RFO.
	Maximum step size allowed    0.10000

	 Iter      |step|        alpha        rfo_root  
	------------------------------------------------
	    0     0.21170       1.00000           1
	    1     0.15905       4.52197           1
	    2     0.12782      12.51698           1
	    3     0.10866      24.64345           1
	    4     0.10114      32.26004           1
	    5     0.10002      33.58378           1
	    6     0.10000      33.61239           1
	------------------------------------------------
	Norm of target step-size    0.10000
	Projected energy change by RFO approximation:        -0.0046608153

	Back-transformation to cartesian coordinates...
	Could not converge backtransformation.
	Using first guess instead.

	--- Internal Coordinate Step in ANG or DEG, aJ/ANG or AJ/DEG ---
	 ---------------------------------------------------------------------------
	   Coordinate                Previous        Force       Change         New 
	   ----------                --------       ------       ------       ------
	    1 R(1,3)          =      1.394038    -0.102439    -0.010608     1.383430
	    2 R(1,9)          =      1.394891     0.022124     0.002467     1.397358
	    3 R(1,14)         =      1.087431    -0.050333    -0.006314     1.081117
	    4 R(2,4)          =      1.394521    -0.102975    -0.010576     1.383945
	    5 R(2,9)          =      1.394821     0.012349     0.001453     1.396274
	    6 R(2,15)         =      1.087831    -0.050341    -0.006348     1.081483
	    7 R(3,11)         =      1.394821    -0.056631    -0.006008     1.388814
	    8 R(3,16)         =      1.086899    -0.047287    -0.005927     1.080972
	    9 R(4,11)         =      1.395407    -0.008018    -0.000940     1.394468
	   10 R(4,17)         =      1.086527    -0.036408    -0.004586     1.081941
	   11 R(5,7)          =      1.387899    -0.116485    -0.011813     1.376087
	   12 R(5,10)         =      1.391753     0.064529     0.006877     1.398630
	   13 R(5,18)         =      1.085973    -0.057005    -0.007105     1.078868
	   14 R(6,8)          =      1.388034    -0.116884    -0.011798     1.376236
	   15 R(6,10)         =      1.390921     0.069014     0.007208     1.398129
	   16 R(6,19)         =      1.086539    -0.059628    -0.007491     1.079047
	   17 R(7,12)         =      1.340241     0.019965     0.001718     1.341958
	   18 R(7,20)         =      1.080933    -0.019369    -0.002402     1.078532
	   19 R(8,12)         =      1.339867     0.021959     0.001873     1.341740
	   20 R(8,21)         =      1.081246    -0.021033    -0.002581     1.078665
	   21 R(9,10)         =      1.446444     0.052717     0.006230     1.452674
	   22 R(11,13)        =      1.360865    -0.114162    -0.010053     1.350812
	   23 R(12,22)        =      1.019465    -0.054224    -0.005789     1.013676
	   24 R(13,23)        =      0.970199    -0.059633    -0.005300     0.964899
	   25 B(1,3,11)       =    120.009056    -0.000056    -0.162853   119.846203
	   26 B(1,3,16)       =    119.662516     0.000220     0.539914   120.202430
	   27 B(1,9,2)        =    119.959722    -0.000469    -0.831531   119.128191
	   28 B(1,9,10)       =    120.043881     0.000228     0.402715   120.446596
	   29 B(2,4,11)       =    119.960108     0.000062     0.101630   120.061739
	   30 B(2,4,17)       =    119.723926     0.000007     0.038834   119.762760
	   31 B(2,9,10)       =    119.996376     0.000242     0.428778   120.425154
	   32 B(3,1,9)        =    120.031219     0.000309     0.618116   120.649335
	   33 B(3,1,14)       =    119.144799    -0.000240    -0.516903   118.627897
	   34 B(3,11,4)       =    119.994870     0.000040     0.018386   120.013256
	   35 B(3,11,13)      =    120.008801    -0.001033    -1.897282   118.111520
	   36 B(4,2,9)        =    120.045019     0.000114     0.255808   120.300827
	   37 B(4,2,15)       =    119.099297    -0.000097    -0.225401   118.873896
	   38 B(4,11,13)      =    119.996326     0.000993     1.878892   121.875218
	   39 B(5,7,12)       =    120.077588    -0.000221    -0.479911   119.597677
	   40 B(5,7,20)       =    123.893190    -0.000005    -0.034565   123.858625
	   41 B(5,10,6)       =    119.911690    -0.000842    -1.543774   118.367916
	   42 B(5,10,9)       =    120.017668     0.000445     0.815706   120.833373
	   43 B(6,8,12)       =    120.061687    -0.000218    -0.471791   119.589896
	   44 B(6,8,21)       =    123.858096    -0.000001    -0.026144   123.831952
	   45 B(6,10,9)       =    120.070602     0.000397     0.728099   120.798701
	   46 B(7,5,10)       =    118.774229     0.000541     1.068590   119.842819
	   47 B(7,5,18)       =    119.705445    -0.000357    -0.747273   118.958172
	   48 B(7,12,8)       =    122.363050     0.000213     0.378048   122.741098
	   49 B(7,12,22)      =    118.858216    -0.000114    -0.205384   118.652832
	   50 B(8,6,10)       =    118.811702     0.000527     1.048863   119.860565
	   51 B(8,6,19)       =    119.677211    -0.000349    -0.732526   118.944684
	   52 B(8,12,22)      =    118.778733    -0.000099    -0.172663   118.606070
	   53 B(9,1,14)       =    120.823969    -0.000069    -0.102835   120.721134
	   54 B(9,2,15)       =    120.855683    -0.000017    -0.031891   120.823791
	   55 B(10,5,18)      =    121.520305    -0.000184    -0.321758   121.198547
	   56 B(10,6,19)      =    121.511053    -0.000178    -0.317154   121.193899
	   57 B(11,3,16)      =    120.328425    -0.000164    -0.377063   119.951362
	   58 B(11,4,17)      =    120.315955    -0.000069    -0.140489   120.175466
	   59 B(11,13,23)     =    110.322421    -0.000204    -0.490354   109.832066
	   60 B(12,7,20)      =    116.029219     0.000226     0.514271   116.543491
	   61 B(12,8,21)      =    116.080213     0.000219     0.497733   116.577946
	   62 D(1,3,11,4)     =     -0.018609    -0.000005    -0.089860    -0.108469
	   63 D(1,3,11,13)    =    179.964785    -0.000005    -0.100981   179.863805
	   64 D(1,9,2,4)      =      0.018608    -0.000005    -0.098764    -0.080156
	   65 D(1,9,2,15)     =   -179.994534     0.000019     0.362801  -179.631733
	   66 D(1,9,10,5)     =   -149.979502     0.000003     0.021816  -149.957686
	   67 D(1,9,10,6)     =     29.947286     0.000004     0.059210    30.006496
	   68 D(2,4,11,3)     =      0.017261    -0.000006    -0.107139    -0.089877
	   69 D(2,4,11,13)    =   -179.966135    -0.000005    -0.094944  -180.061079
	   70 D(2,9,1,3)      =     -0.019945    -0.000005    -0.099547    -0.119491
	   71 D(2,9,1,14)     =   -179.978731     0.000018     0.330730  -179.648001
	   72 D(2,9,10,5)     =     30.073001     0.000004     0.058785    30.131786
	   73 D(2,9,10,6)     =   -150.000211     0.000005     0.096179  -149.904032
	   74 D(3,1,9,10)     =   -179.967461    -0.000004    -0.063710  -180.031171
	   75 D(3,11,4,17)    =    179.978848    -0.000007    -0.137703   179.841146
	   76 D(3,11,13,23)   =    179.956172     0.000001     0.021900   179.978072
	   77 D(4,2,9,10)     =    179.966149    -0.000007    -0.134607   179.831543
	   78 D(4,11,3,16)    =    180.000000    -0.000007    -0.134334   179.865666
	   79 D(4,11,13,23)   =     -0.060434     0.000001     0.010234    -0.050200
	   80 D(5,7,12,8)     =     -0.045884     0.000001     0.021981    -0.023903
	   81 D(5,7,12,22)    =    179.960687     0.000001     0.016445   179.977132
	   82 D(5,10,6,8)     =     -0.069070     0.000002     0.038813    -0.030257
	   83 D(5,10,6,19)    =    179.998583     0.000016     0.310423   180.309006
	   84 D(6,8,12,7)     =      0.048339    -0.000000    -0.001242     0.047097
	   85 D(6,8,12,22)    =   -179.958227     0.000000     0.004289  -179.953938
	   86 D(6,10,5,7)     =      0.071415    -0.000001    -0.018357     0.053057
	   87 D(6,10,5,18)    =   -179.982306     0.000016     0.285361  -179.696945
	   88 D(7,5,10,9)     =    179.998320     0.000001     0.019772   180.018092
	   89 D(7,12,8,21)    =   -179.975075    -0.000007    -0.136884  -180.111959
	   90 D(8,6,10,9)     =   -179.995936     0.000000     0.000632  -179.995304
	   91 D(8,12,7,20)    =    179.936793    -0.000007    -0.119912   179.816882
	   92 D(9,1,3,11)     =      0.019955     0.000010     0.193640     0.213594
	   93 D(9,1,3,16)     =   -179.998735     0.000013     0.238260  -179.760475
	   94 D(9,2,4,11)     =     -0.017270     0.000011     0.201444     0.184174
	   95 D(9,2,4,17)     =   -179.979086     0.000012     0.231951  -179.747135
	   96 D(9,10,5,18)    =     -0.055401     0.000017     0.323490     0.268090
	   97 D(9,10,6,19)    =      0.071717     0.000015     0.272242     0.343959
	   98 D(10,5,7,12)    =     -0.014861    -0.000001    -0.012424    -0.027284
	   99 D(10,5,7,20)    =   -179.996109     0.000007     0.140345  -179.855764
	  100 D(10,6,8,12)    =      0.010062    -0.000001    -0.028685    -0.018623
	  101 D(10,6,8,21)    =   -179.964613     0.000006     0.117234  -179.847379
	  102 D(10,9,1,14)    =      0.073752     0.000019     0.366567     0.440319
	  103 D(10,9,2,15)    =     -0.046992     0.000018     0.326959     0.279966
	  104 D(11,3,1,14)    =    179.979432    -0.000012    -0.227613   179.751819
	  105 D(11,4,2,15)    =    179.995641    -0.000013    -0.251217   179.744424
	  106 D(12,7,5,18)    =   -179.962138    -0.000017    -0.309545  -180.271683
	  107 D(12,8,6,19)    =    179.943677    -0.000016    -0.293939   179.649738
	  108 D(13,11,3,16)   =     -0.016400    -0.000008    -0.145661    -0.162060
	  109 D(13,11,4,17)   =     -0.004548    -0.000007    -0.125508    -0.130056
	  110 D(14,1,3,16)    =     -0.039257    -0.000010    -0.182993    -0.222250
	  111 D(15,2,4,17)    =      0.033826    -0.000012    -0.220711    -0.186885
	  112 D(18,5,7,20)    =      0.056614    -0.000009    -0.156776    -0.100162
	  113 D(19,6,8,21)    =     -0.030999    -0.000008    -0.148019    -0.179018
	  114 D(20,7,12,22)   =     -0.056636    -0.000007    -0.125447    -0.182083
	  115 D(21,8,12,22)   =      0.018359    -0.000007    -0.131353    -0.112994
	 ---------------------------------------------------------------------------
	Successfully symmetrized geometry.
	 Forces used to impose fixed constraints are not included.
	  Forces zeroed: 66 

  ==> Convergence Check <==

  Measures of convergence in internal coordinates in au.
  Criteria marked as inactive (o), active & met (*), and active & unmet ( ).
  --------------------------------------------------------------------------------------------- ~
   Step     Total Energy     Delta E     MAX Force     RMS Force      MAX Disp      RMS Disp    ~
  --------------------------------------------------------------------------------------------- ~
    Convergence Criteria    1.00e-06 *    3.00e-04 *             o    1.20e-03 *             o  ~
  --------------------------------------------------------------------------------------------- ~
      1    -554.09835013   -5.54e+02      1.42e-02      4.52e-03 o    3.31e-02      9.31e-03 o  ~
  ---------------------------------------------------------------------------------------------

	Writing optimization data to binary file.
	Structure for next step:
	Cartesian Geometry (in Angstrom)
	    C    -1.2818536113   0.7244217396  -0.5586051807
	    C    -0.2865454361   0.1070960037   1.5461296164
	    C    -2.3527377672   1.2923635948   0.1081247019
	    C    -1.3550415960   0.6784013066   2.2148824220
	    C     1.5762708756  -1.5580397036  -0.0104613537
	    C     1.2980373511   0.0282304113  -1.7924463858
	    C     2.6364904123  -2.1062504963  -0.6953072285
	    C     2.3634428876  -0.5509334065  -2.4432189058
	    C    -0.2379738566   0.1247131846   0.1508120749
	    C     0.8840687193  -0.4709341726  -0.5538060894
	    C    -2.3921259902   1.2721510225   1.4962324160
	    N     2.9967895524  -1.5917292131  -1.8811841980
	    O    -3.4527404594   1.8392458926   2.1112061554
	    H    -1.2733132951   0.7476203198  -1.6394391826
	    H     0.5092846258  -0.3444221242   2.1226629097
	    H    -3.1582682918   1.7509738656  -0.4480200590
	    H    -1.3817917662   0.6634436154   3.2963893374
	    H     1.2926637037  -1.9826129294   0.9399385308
	    H     0.7998903260   0.8682951528  -2.2512311232
	    H     3.2131972948  -2.9449230617  -0.3385611641
	    H     2.7375343043  -0.2168137570  -3.3981736594
	    H     3.7800557477  -2.0064362953  -2.3731713995
	    H    -3.3584060729   1.7578309920   3.0680252675
			--------------------------
			 OPTKING Finished Execution 
			--------------------------

    Structure for next step:
    Molecular point group: c1
    Full point group: C1

    Geometry (in Angstrom), charge = 1, multiplicity = 1:

    C           -1.282713353433     0.724981311529    -0.558283574738
    C           -0.287405178205     0.107655575698     1.546451222287
    C           -2.353597509295     1.292923166755     0.108446307784
    C           -1.355901338100     0.678960878601     2.215204027954
    C            1.575411133505    -1.557480131638    -0.010139747799
    C            1.297177608942     0.028789983249    -1.792124779904
    C            2.635630670118    -2.105690924360    -0.694985622595
    C            2.362583145448    -0.550373834522    -2.442897299880
    C           -0.238833598707     0.125272756537     0.151133680833
    C            0.883208977158    -0.470374600674    -0.553484483469
    C           -2.392985732319     1.272710594450     1.496554021917
    N            2.995929810266    -1.591169641122    -1.880862592112
    O           -3.453600201507     1.839805464592     2.111527761340
    H           -1.274173037202     0.748179891801    -1.639117576682
    H            0.508424883620    -0.343862552206     2.122984515584
    H           -3.159128033979     1.751533437574    -0.447698453073
    H           -1.382651508349     0.664003187381     3.296710943290
    H            1.291803961523    -1.982053357436     0.940260136750
    H            0.799030583827     0.868854724778    -2.250909517278
    H            3.212337552640    -2.944363489776    -0.338239558219
    H            2.736674562185    -0.216254185032    -3.397852053469
    H            3.779196005568    -2.005876723371    -2.372849793586
    H           -3.359265814989     1.758390563937     3.068346873454

gradient() will perform analytic gradient computation.

*** tstart() called on gpu-1-4.local
*** at Sun Nov 12 08:09:15 2017

    SCF Algorithm Type (re)set to DF.

*** tstart() called on gpu-1-4.local
*** at Sun Nov 12 08:09:15 2017

   => Loading Basis Set <=

    Name: AUG-CC-PVTZ
    Role: ORBITAL
    Keyword: BASIS
    atoms 1-11  entry C          line   221 file /cbio/jclab/home/chayas/anaconda/envs/py35/share/psi4/basis/aug-cc-pvtz.gbs 
    atoms 12    entry N          line   267 file /cbio/jclab/home/chayas/anaconda/envs/py35/share/psi4/basis/aug-cc-pvtz.gbs 
    atoms 13    entry O          line   313 file /cbio/jclab/home/chayas/anaconda/envs/py35/share/psi4/basis/aug-cc-pvtz.gbs 
    atoms 14-23 entry H          line    34 file /cbio/jclab/home/chayas/anaconda/envs/py35/share/psi4/basis/aug-cc-pvtz.gbs 


         ---------------------------------------------------------
                                   SCF
            by Justin Turney, Rob Parrish, and Andy Simmonett
                              RHF Reference
                        8 Threads,   4768 MiB Core
         ---------------------------------------------------------

  ==> Geometry <==

    Molecular point group: c1
    Full point group: C1

    Geometry (in Angstrom), charge = 1, multiplicity = 1:

       Center              X                  Y                   Z               Mass       
    ------------   -----------------  -----------------  -----------------  -----------------
           C         -1.282713353433     0.724981311529    -0.558283574738    12.000000000000
           C         -0.287405178205     0.107655575698     1.546451222287    12.000000000000
           C         -2.353597509295     1.292923166755     0.108446307784    12.000000000000
           C         -1.355901338100     0.678960878601     2.215204027954    12.000000000000
           C          1.575411133505    -1.557480131638    -0.010139747799    12.000000000000
           C          1.297177608942     0.028789983249    -1.792124779904    12.000000000000
           C          2.635630670118    -2.105690924360    -0.694985622595    12.000000000000
           C          2.362583145448    -0.550373834522    -2.442897299880    12.000000000000
           C         -0.238833598707     0.125272756537     0.151133680833    12.000000000000
           C          0.883208977158    -0.470374600674    -0.553484483469    12.000000000000
           C         -2.392985732319     1.272710594450     1.496554021917    12.000000000000
           N          2.995929810266    -1.591169641122    -1.880862592112    14.003074004780
           O         -3.453600201507     1.839805464592     2.111527761340    15.994914619560
           H         -1.274173037202     0.748179891801    -1.639117576682     1.007825032070
           H          0.508424883620    -0.343862552206     2.122984515584     1.007825032070
           H         -3.159128033979     1.751533437574    -0.447698453073     1.007825032070
           H         -1.382651508349     0.664003187381     3.296710943290     1.007825032070
           H          1.291803961523    -1.982053357436     0.940260136750     1.007825032070
           H          0.799030583827     0.868854724778    -2.250909517278     1.007825032070
           H          3.212337552640    -2.944363489776    -0.338239558219     1.007825032070
           H          2.736674562185    -0.216254185032    -3.397852053469     1.007825032070
           H          3.779196005568    -2.005876723371    -2.372849793586     1.007825032070
           H         -3.359265814989     1.758390563937     3.068346873454     1.007825032070

  Running in c1 symmetry.

  Rotational constants: A =      0.09641  B =      0.01331  C =      0.01189 [cm^-1]
  Rotational constants: A =   2890.17485  B =    398.91612  C =    356.38212 [MHz]
  Nuclear repulsion =  713.482780194892030

  Charge       = 1
  Multiplicity = 1
  Electrons    = 90
  Nalpha       = 45
  Nbeta        = 45

  ==> Algorithm <==

  SCF Algorithm Type is DF.
  DIIS enabled.
  MOM disabled.
  Fractional occupation disabled.
  Guess Type is READ.
  Energy threshold   = 1.00e-10
  Density threshold  = 1.00e-10
  Integral threshold = 0.00e+00

  ==> Primary Basis <==

  Basis Set: AUG-CC-PVTZ
    Blend: AUG-CC-PVTZ
    Number of shells: 272
    Number of basis function: 828
    Number of Cartesian functions: 965
    Spherical Harmonics?: true
    Max angular momentum: 3

   => Loading Basis Set <=

    Name: (AUG-CC-PVTZ AUX)
    Role: JKFIT
    Keyword: DF_BASIS_SCF
    atoms 1-11  entry C          line   161 file /cbio/jclab/home/chayas/anaconda/envs/py35/share/psi4/basis/aug-cc-pvtz-jkfit.gbs 
    atoms 12    entry N          line   223 file /cbio/jclab/home/chayas/anaconda/envs/py35/share/psi4/basis/aug-cc-pvtz-jkfit.gbs 
    atoms 13    entry O          line   285 file /cbio/jclab/home/chayas/anaconda/envs/py35/share/psi4/basis/aug-cc-pvtz-jkfit.gbs 
    atoms 14-23 entry H          line    69 file /cbio/jclab/home/chayas/anaconda/envs/py35/share/psi4/basis/aug-cc-pvtz-jkfit.gbs 

  Reading orbitals from file 180, no projection.

  ==> Pre-Iterations <==

   -------------------------------------------------------
    Irrep   Nso     Nmo     Nalpha   Nbeta   Ndocc  Nsocc
   -------------------------------------------------------
     A        828     828       0       0       0       0
   -------------------------------------------------------
    Total     828     828      45      45      45       0
   -------------------------------------------------------

  ==> Integral Setup <==

  ==> DFJK: Density-Fitted J/K Matrices <==

    J tasked:                  Yes
    K tasked:                  Yes
    wK tasked:                  No
    OpenMP threads:              8
    Integrals threads:           8
    Memory (MB):              3576
    Algorithm:                Disk
    Integral Cache:           NONE
    Schwarz Cutoff:          1E-12
    Fitting Condition:       1E-12

   => Auxiliary Basis Set <=

  Basis Set: (AUG-CC-PVTZ AUX)
    Blend: AUG-CC-PVTZ-JKFIT
    Number of shells: 530
    Number of basis function: 1812
    Number of Cartesian functions: 2253
    Spherical Harmonics?: true
    Max angular momentum: 4

  Minimum eigenvalue in the overlap matrix is 5.1867081971E-07.
  Using Symmetric Orthogonalization.

  SCF Guess: Orbitals guess was supplied from a previous computation.

  ==> Iterations <==

                           Total Energy        Delta E     RMS |[F,P]|

   @DF-RHF iter   0:  -551.79350121052789   -5.51794e+02   4.27723e-04 
   @DF-RHF iter   1:  -551.68089254130280    1.12609e-01   1.02194e-04 
   @DF-RHF iter   2:  -551.68129558429791   -4.03043e-04   7.94563e-05 DIIS
   @DF-RHF iter   3:  -551.68159455049351   -2.98966e-04   8.06799e-06 DIIS
   @DF-RHF iter   4:  -551.68160326713962   -8.71665e-06   3.97378e-06 DIIS
   @DF-RHF iter   5:  -551.68160547787454   -2.21073e-06   1.53953e-06 DIIS
   @DF-RHF iter   6:  -551.68160592765844   -4.49784e-07   8.19485e-07 DIIS
   @DF-RHF iter   7:  -551.68160610446716   -1.76809e-07   3.82642e-07 DIIS
   @DF-RHF iter   8:  -551.68160615899160   -5.45244e-08   1.15853e-07 DIIS
   @DF-RHF iter   9:  -551.68160616411149   -5.11989e-09   4.06811e-08 DIIS
   @DF-RHF iter  10:  -551.68160616444072   -3.29237e-10   1.70483e-08 DIIS
   @DF-RHF iter  11:  -551.68160616448927   -4.85443e-11   5.52624e-09 DIIS
   @DF-RHF iter  12:  -551.68160616449234   -3.06954e-12   1.49527e-09 DIIS
   @DF-RHF iter  13:  -551.68160616448017    1.21645e-11   9.55235e-10 DIIS
   @DF-RHF iter  14:  -551.68160616450018   -2.00089e-11   3.36302e-10 DIIS
   @DF-RHF iter  15:  -551.68160616448904    1.11413e-11   1.76686e-10 DIIS
   @DF-RHF iter  16:  -551.68160616449529   -6.25278e-12   7.70707e-11 DIIS

  ==> Post-Iterations <==

    Orbital Energies (a.u.)
    -----------------------

    Doubly Occupied:                                                      

       1A    -20.705904     2A    -15.829328     3A    -11.480947  
       4A    -11.480876     5A    -11.448862     6A    -11.433795  
       7A    -11.411164     8A    -11.410838     9A    -11.379550  
      10A    -11.376923    11A    -11.372481    12A    -11.356023  
      13A    -11.349927    14A     -1.526313    15A     -1.508419  
      16A     -1.318468    17A     -1.266200    18A     -1.238185  
      19A     -1.156189    20A     -1.154511    21A     -1.064865  
      22A     -1.056240    23A     -0.978492    24A     -0.962015  
      25A     -0.952168    26A     -0.871922    27A     -0.860931  
      28A     -0.854629    29A     -0.821058    30A     -0.800163  
      31A     -0.783188    32A     -0.772502    33A     -0.757913  
      34A     -0.732662    35A     -0.721295    36A     -0.709279  
      37A     -0.705327    38A     -0.686726    39A     -0.657836  
      40A     -0.637071    41A     -0.620317    42A     -0.570003  
      43A     -0.538965    44A     -0.472680    45A     -0.437044  

    Virtual:                                                              

      46A     -0.105901    47A     -0.083537    48A     -0.062540  
      49A     -0.060303    50A     -0.058556    51A     -0.049044  
      52A     -0.043675    53A     -0.039331    54A     -0.034296  
      55A     -0.028197    56A     -0.025417    57A     -0.023536  
      58A     -0.016873    59A     -0.009047    60A     -0.005813  
      61A     -0.001463    62A      0.003619    63A      0.006428  
      64A      0.009447    65A      0.015582    66A      0.017568  
      67A      0.021451    68A      0.024097    69A      0.024974  
      70A      0.028777    71A      0.031969    72A      0.036598  
      73A      0.038309    74A      0.040273    75A      0.045073  
      76A      0.049333    77A      0.055498    78A      0.058286  
      79A      0.060506    80A      0.067427    81A      0.068232  
      82A      0.072733    83A      0.074463    84A      0.078038  
      85A      0.083935    86A      0.086479    87A      0.088582  
      88A      0.095473    89A      0.098299    90A      0.108615  
      91A      0.110805    92A      0.114816    93A      0.121221  
      94A      0.123159    95A      0.125270    96A      0.128849  
      97A      0.132656    98A      0.137369    99A      0.140186  
     100A      0.144871   101A      0.153011   102A      0.158017  
     103A      0.162157   104A      0.163788   105A      0.167388  
     106A      0.168727   107A      0.170945   108A      0.173623  
     109A      0.177601   110A      0.182824   111A      0.188758  
     112A      0.190342   113A      0.192083   114A      0.197343  
     115A      0.205330   116A      0.206722   117A      0.210366  
     118A      0.213492   119A      0.217766   120A      0.220257  
     121A      0.224709   122A      0.228559   123A      0.231047  
     124A      0.233469   125A      0.234625   126A      0.240746  
     127A      0.242569   128A      0.250489   129A      0.251492  
     130A      0.257678   131A      0.259066   132A      0.273721  
     133A      0.278312   134A      0.280020   135A      0.280754  
     136A      0.287143   137A      0.288053   138A      0.293511  
     139A      0.301349   140A      0.309043   141A      0.311393  
     142A      0.311790   143A      0.316320   144A      0.318747  
     145A      0.323517   146A      0.324978   147A      0.331146  
     148A      0.333827   149A      0.336401   150A      0.339595  
     151A      0.341788   152A      0.344024   153A      0.349141  
     154A      0.350967   155A      0.356446   156A      0.361013  
     157A      0.366030   158A      0.368490   159A      0.371160  
     160A      0.374689   161A      0.375597   162A      0.380031  
     163A      0.383952   164A      0.387831   165A      0.390141  
     166A      0.394698   167A      0.398361   168A      0.401565  
     169A      0.404182   170A      0.407615   171A      0.412606  
     172A      0.414531   173A      0.418762   174A      0.421192  
     175A      0.424340   176A      0.429336   177A      0.430287  
     178A      0.437977   179A      0.439137   180A      0.443353  
     181A      0.449032   182A      0.453554   183A      0.458722  
     184A      0.464218   185A      0.472204   186A      0.476005  
     187A      0.482242   188A      0.488607   189A      0.494554  
     190A      0.501552   191A      0.505916   192A      0.510172  
     193A      0.518982   194A      0.528912   195A      0.529409  
     196A      0.537515   197A      0.543262   198A      0.549596  
     199A      0.552101   200A      0.564397   201A      0.571945  
     202A      0.574878   203A      0.578018   204A      0.580883  
     205A      0.585196   206A      0.587891   207A      0.596075  
     208A      0.601773   209A      0.608715   210A      0.613044  
     211A      0.620271   212A      0.622893   213A      0.627367  
     214A      0.632865   215A      0.638685   216A      0.643275  
     217A      0.646785   218A      0.650617   219A      0.654395  
     220A      0.668377   221A      0.676656   222A      0.680660  
     223A      0.693631   224A      0.701081   225A      0.703245  
     226A      0.705001   227A      0.708358   228A      0.712252  
     229A      0.717346   230A      0.718873   231A      0.725232  
     232A      0.732917   233A      0.734803   234A      0.737758  
     235A      0.739975   236A      0.744587   237A      0.758389  
     238A      0.759672   239A      0.764134   240A      0.768797  
     241A      0.773605   242A      0.777980   243A      0.780766  
     244A      0.785181   245A      0.789435   246A      0.794711  
     247A      0.796712   248A      0.804476   249A      0.806167  
     250A      0.812155   251A      0.815870   252A      0.818559  
     253A      0.825173   254A      0.828612   255A      0.837407  
[...]
	 B(4,2,9)         =         2.107007	     120.722607
	 B(4,2,15)        =         2.073157	     118.783138
	 B(4,11,13)       =         2.154409	     123.438526
	 B(5,7,12)        =         2.085048	     119.464476
	 B(5,7,20)        =         2.157552	     123.618648
	 B(5,10,6)        =         2.039297	     116.843096
	 B(5,10,9)        =         2.122897	     121.633026
	 B(6,8,12)        =         2.085074	     119.465968
	 B(6,8,21)        =         2.157536	     123.617731
	 B(6,10,9)        =         2.120921	     121.519818
	 B(7,5,10)        =         2.109945	     120.890929
	 B(7,5,18)        =         2.065935	     118.369336
	 B(7,12,8)        =         2.137102	     122.446948
	 B(7,12,22)       =         2.073078	     118.778637
	 B(8,6,10)        =         2.109891	     120.887856
	 B(8,6,19)        =         2.066086	     118.377985
	 B(8,12,22)       =         2.073004	     118.774364
	 B(9,1,14)        =         2.101241	     120.392228
	 B(9,2,15)        =         2.101776	     120.422900
	 B(10,5,18)       =         2.106874	     120.714960
	 B(10,6,19)       =         2.106750	     120.707911
	 B(11,3,16)       =         2.073846	     118.822596
	 B(11,4,17)       =         2.094978	     120.033420
	 B(11,13,23)      =         1.930142	     110.588973
	 B(12,7,20)       =         2.040493	     116.911646
	 B(12,8,21)       =         2.040514	     116.912818
	 D(1,3,11,4)      =        -0.008559	      -0.490382
	 D(1,3,11,13)     =         3.132919	     179.503043
	 D(1,9,2,4)       =        -0.014484	      -0.829871
	 D(1,9,2,15)      =        -3.101812	    -177.720744
	 D(1,9,10,5)      =        -2.619807	    -150.103867
	 D(1,9,10,6)      =         0.508586	      29.139838
	 D(2,4,11,3)      =        -0.007287	      -0.417529
	 D(2,4,11,13)     =         3.134428	     179.589507
	 D(2,9,1,3)       =        -0.001515	      -0.086775
	 D(2,9,1,14)      =        -3.094460	    -177.299485
	 D(2,9,10,5)      =         0.507545	      29.080168
	 D(2,9,10,6)      =        -2.647248	    -151.676127
	 D(3,1,9,10)      =         3.126120	     179.113485
	 D(3,11,4,17)     =         3.126427	     179.131059
	 D(3,11,13,23)    =         3.136817	     179.726402
	 D(4,2,9,10)      =         3.141070	     179.970057
	 D(4,11,3,16)     =         3.122428	     178.901931
	 D(4,11,13,23)    =        -0.004895	      -0.280435
	 D(5,7,12,8)      =         0.000332	       0.019006
	 D(5,7,12,22)     =        -3.139798	    -179.897170
	 D(5,10,6,8)      =        -0.003736	      -0.214085
	 D(5,10,6,19)     =        -3.112276	    -178.320270
	 D(6,8,12,7)      =         0.001634	       0.093626
	 D(6,8,12,22)     =        -3.141422	    -179.990195
	 D(6,10,5,7)      =         0.005704	       0.326788
	 D(6,10,5,18)     =        -3.103774	    -177.833126
	 D(7,5,10,9)      =         3.134685	     179.604219
	 D(7,12,8,21)     =         3.131805	     179.439237
	 D(8,6,10,9)      =        -3.132733	    -179.492393
	 D(8,12,7,20)     =         3.127931	     179.217267
	 D(9,1,3,11)      =         0.012933	       0.741030
	 D(9,1,3,16)      =        -3.117797	    -178.636611
	 D(9,2,4,11)      =         0.018902	       1.083028
	 D(9,2,4,17)      =        -3.114817	    -178.465869
	 D(9,10,5,18)     =         0.025208	       1.444306
	 D(9,10,6,19)     =         0.041913	       2.401421
	 D(10,5,7,12)     =        -0.004130	      -0.236610
	 D(10,5,7,20)     =        -3.130738	    -179.378098
	 D(10,6,8,12)     =         0.000187	       0.010723
	 D(10,6,8,21)     =        -3.129176	    -179.288565
	 D(10,9,1,14)     =         0.033175	       1.900775
	 D(10,9,2,15)     =         0.053742	       3.079184
	 D(11,3,1,14)     =         3.106670	     177.999078
	 D(11,4,2,15)     =         3.107107	     178.024099
	 D(12,7,5,18)     =         3.106084	     177.965528
	 D(12,8,6,19)     =         3.109480	     178.160080
	 D(13,11,3,16)    =        -0.019280	      -1.104644
	 D(13,11,4,17)    =        -0.015043	      -0.861905
	 D(14,1,3,16)     =        -0.024060	      -1.378563
	 D(15,2,4,17)     =        -0.026613	      -1.524797
	 D(18,5,7,20)     =        -0.020524	      -1.175960
	 D(19,6,8,21)     =        -0.019883	      -1.139208
	 D(20,7,12,22)    =        -0.012198	      -0.698908
	 D(21,8,12,22)    =        -0.011250	      -0.644584

	Current energy   :      -554.1022098716

	Energy change for the previous step:
		Projected    :        -0.0000005918
		Actual       :        -0.0000032192

	Performing BFGS update.
	Previous computed or guess Hessian on step 1.
	Steps to be used in Hessian update: 4 3
	Adding user-defined constraint: Fragment 1; Coordinate 66:
		Value =    -2.619807; Fixed value    =    -2.617990
		Force =     0.001090; Force constant =     0.600000
	Removing off-diagonal coupling between coordinate 66 and others.
	Taking RFO optimization step.
	Going to follow RFO solution 1.
	Using RFO vector 1.
	Norm of target step-size    0.00304
	Projected energy change by RFO approximation:        -0.0000003220

	Back-transformation to cartesian coordinates...
	Successfully converged to displaced geometry.

	--- Internal Coordinate Step in ANG or DEG, aJ/ANG or AJ/DEG ---
	 ---------------------------------------------------------------------------
	   Coordinate                Previous        Force       Change         New 
	   ----------                --------       ------       ------       ------
	    1 R(1,3)          =      1.377251    -0.000346    -0.000076     1.377176
	    2 R(1,9)          =      1.399691     0.000747     0.000131     1.399822
	    3 R(1,14)         =      1.079634    -0.000037    -0.000009     1.079625
	    4 R(2,4)          =      1.379801     0.000373     0.000052     1.379853
	    5 R(2,9)          =      1.397826    -0.000246    -0.000033     1.397793
	    6 R(2,15)         =      1.079696     0.000102     0.000018     1.079714
	    7 R(3,11)         =      1.393390     0.000318     0.000066     1.393457
	    8 R(3,16)         =      1.078510     0.000222     0.000043     1.078552
	    9 R(4,11)         =      1.393312    -0.000196    -0.000033     1.393279
	   10 R(4,17)         =      1.080295     0.000076     0.000014     1.080310
	   11 R(5,7)          =      1.371461     0.000387     0.000047     1.371508
	   12 R(5,10)         =      1.401689    -0.000078     0.000002     1.401691
	   13 R(5,18)         =      1.077497     0.000056     0.000010     1.077507
	   14 R(6,8)          =      1.371470     0.000324     0.000038     1.371508
	   15 R(6,10)         =      1.401779     0.000072     0.000020     1.401799
	   16 R(6,19)         =      1.077522     0.000029     0.000006     1.077528
	   17 R(7,12)         =      1.343635    -0.000393    -0.000048     1.343588
	   18 R(7,20)         =      1.077213     0.000089     0.000016     1.077228
	   19 R(8,12)         =      1.343597    -0.000282    -0.000034     1.343564
	   20 R(8,21)         =      1.077245     0.000093     0.000017     1.077262
	   21 R(9,10)         =      1.443380     0.000289    -0.000004     1.443376
	   22 R(11,13)        =      1.343042     0.000251     0.000012     1.343054
	   23 R(12,22)        =      1.011608     0.000122     0.000018     1.011626
	   24 R(13,23)        =      0.963806     0.000144     0.000019     0.963824
	   25 B(1,3,11)       =    119.985493     0.000002     0.007220   119.992713
	   26 B(1,3,16)       =    121.189053     0.000002     0.017708   121.206761
	   27 B(1,9,2)        =    118.659557    -0.000001    -0.003675   118.655882
	   28 B(1,9,10)       =    120.656396    -0.000001    -0.002485   120.653911
	   29 B(2,4,11)       =    119.999491    -0.000001    -0.006833   119.992658
	   30 B(2,4,17)       =    119.965550    -0.000001    -0.005463   119.960087
	   31 B(2,9,10)       =    120.679148     0.000002     0.005984   120.685132
	   32 B(3,1,9)        =    120.813239    -0.000002    -0.005886   120.807353
	   33 B(3,1,14)       =    118.737248     0.000002     0.012001   118.749250
	   34 B(3,11,4)       =    119.809187     0.000000    -0.000374   119.808813
	   35 B(3,11,13)      =    116.752286     0.000002     0.006003   116.758290
	   36 B(4,2,9)        =    120.722607     0.000002     0.008279   120.730886
	   37 B(4,2,15)       =    118.783138    -0.000001    -0.001598   118.781540
	   38 B(4,11,13)      =    123.438526    -0.000003    -0.005633   123.432893
	   39 B(5,7,12)       =    119.464476     0.000003     0.009518   119.473995
	   40 B(5,7,20)       =    123.618648    -0.000002    -0.011091   123.607556
	   41 B(5,10,6)       =    116.843096    -0.000001    -0.003314   116.839782
	   42 B(5,10,9)       =    121.633026    -0.000001    -0.000706   121.632320
	   43 B(6,8,12)       =    119.465968     0.000002     0.007308   119.473276
	   44 B(6,8,21)       =    123.617731    -0.000002    -0.009147   123.608584
	   45 B(6,10,9)       =    121.519818     0.000001     0.004106   121.523924
	   46 B(7,5,10)       =    120.890929    -0.000001    -0.002621   120.888308
	   47 B(7,5,18)       =    118.369336    -0.000001    -0.009166   118.360170
	   48 B(7,12,8)       =    122.446948    -0.000002    -0.010132   122.436816
	   49 B(7,12,22)      =    118.778637     0.000001     0.004808   118.783444
	   50 B(8,6,10)       =    120.887856    -0.000001    -0.000765   120.887091
	   51 B(8,6,19)       =    118.377985    -0.000002    -0.010257   118.367728
	   52 B(8,12,22)      =    118.774364     0.000001     0.005328   118.779692
	   53 B(9,1,14)       =    120.392228    -0.000001    -0.006135   120.386093
	   54 B(9,2,15)       =    120.422900    -0.000001    -0.007903   120.414998
	   55 B(10,5,18)      =    120.714960     0.000002     0.012090   120.727050
	   56 B(10,6,19)      =    120.707911     0.000002     0.011389   120.719300
	   57 B(11,3,16)      =    118.822596    -0.000004    -0.024542   118.798054
	   58 B(11,4,17)      =    120.033420     0.000002     0.012672   120.046092
	   59 B(11,13,23)     =    110.588973     0.000000     0.002459   110.591432
	   60 B(12,7,20)      =    116.911646    -0.000001     0.001344   116.912991
	   61 B(12,8,21)      =    116.912818    -0.000000     0.001645   116.914463
	   62 D(1,3,11,4)     =     -0.490382    -0.000000    -0.032720    -0.523102
	   63 D(1,3,11,13)    =    179.503043    -0.000000    -0.002257   179.500786
	   64 D(1,9,2,4)      =     -0.829871    -0.000000    -0.043215    -0.873086
	   65 D(1,9,2,15)     =   -177.720744    -0.000000    -0.016696  -177.737440
	   66 D(1,9,10,5)     =   -150.103867    -0.000000    -0.002297  -150.106165
	   67 D(1,9,10,6)     =     29.139838    -0.000000     0.005732    29.145570
	   68 D(2,4,11,3)     =     -0.417529    -0.000000    -0.022710    -0.440238
	   69 D(2,4,11,13)    =    179.589507    -0.000000    -0.055304   179.534203
	   70 D(2,9,1,3)      =     -0.086775    -0.000000    -0.012811    -0.099586
	   71 D(2,9,1,14)     =   -177.299485    -0.000000    -0.012658  -177.312143
	   72 D(2,9,10,5)     =     29.080168    -0.000000    -0.016923    29.063245
	   73 D(2,9,10,6)     =   -151.676127    -0.000000    -0.008894  -151.685020
	   74 D(3,1,9,10)     =    179.113485    -0.000000    -0.027067   179.086418
	   75 D(3,11,4,17)    =    179.131059     0.000000     0.036336   179.167396
	   76 D(3,11,13,23)   =    179.726402    -0.000000    -0.014180   179.712222
	   77 D(4,2,9,10)     =    179.970057    -0.000000    -0.028884   179.941173
	   78 D(4,11,3,16)    =    178.901931     0.000000     0.009916   178.911848
	   79 D(4,11,13,23)   =     -0.280435     0.000000     0.017494    -0.262941
	   80 D(5,7,12,8)     =      0.019006     0.000000     0.015607     0.034613
	   81 D(5,7,12,22)    =   -179.897170     0.000000     0.012321  -179.884849
	   82 D(5,10,6,8)     =     -0.214085     0.000000     0.021877    -0.192208
	   83 D(5,10,6,19)    =   -178.320270     0.000000     0.008790  -178.311481
	   84 D(6,8,12,7)     =      0.093626     0.000000     0.004901     0.098527
	   85 D(6,8,12,22)    =   -179.990195     0.000000     0.008186  -179.982009
	   86 D(6,10,5,7)     =      0.326788    -0.000000    -0.001385     0.325402
	   87 D(6,10,5,18)    =   -177.833126    -0.000000    -0.012526  -177.845652
	   88 D(7,5,10,9)     =    179.604219     0.000000     0.006339   179.610558
	   89 D(7,12,8,21)    =    179.439237    -0.000000    -0.013074   179.426163
	   90 D(8,6,10,9)     =   -179.492393     0.000000     0.014199  -179.478195
	   91 D(8,12,7,20)    =    179.217267    -0.000000    -0.001820   179.215447
	   92 D(9,1,3,11)     =      0.741030     0.000000     0.050462     0.791492
	   93 D(9,1,3,16)     =   -178.636611     0.000000     0.007041  -178.629571
	   94 D(9,2,4,11)     =      1.083028     0.000000     0.060942     1.143970
	   95 D(9,2,4,17)     =   -178.465869     0.000000     0.001865  -178.464004
	   96 D(9,10,5,18)    =      1.444306     0.000000    -0.004802     1.439504
	   97 D(9,10,6,19)    =      2.401421     0.000000     0.001112     2.402533
	   98 D(10,5,7,12)    =     -0.236610    -0.000000    -0.017051    -0.253661
	   99 D(10,5,7,20)    =   -179.378098     0.000000     0.001486  -179.376612
	  100 D(10,6,8,12)    =      0.010723    -0.000000    -0.024071    -0.013347
	  101 D(10,6,8,21)    =   -179.288565     0.000000    -0.004910  -179.293474
	  102 D(10,9,1,14)    =      1.900775    -0.000000    -0.026914     1.873861
	  103 D(10,9,2,15)    =      3.079184    -0.000000    -0.002365     3.076819
	  104 D(11,3,1,14)    =    177.999078     0.000000     0.049824   178.048902
	  105 D(11,4,2,15)    =    178.024099     0.000000     0.034650   178.058749
	  106 D(12,7,5,18)    =    177.965528    -0.000000    -0.005788   177.959739
	  107 D(12,8,6,19)    =    178.160080    -0.000000    -0.010887   178.149193
	  108 D(13,11,3,16)   =     -1.104644     0.000000     0.040379    -1.064265
	  109 D(13,11,4,17)   =     -0.861905    -0.000000     0.003742    -0.858163
	  110 D(14,1,3,16)    =     -1.378563     0.000000     0.006403    -1.372160
	  111 D(15,2,4,17)    =     -1.524797    -0.000000    -0.024428    -1.549225
	  112 D(18,5,7,20)    =     -1.175960     0.000000     0.012749    -1.163211
	  113 D(19,6,8,21)    =     -1.139208     0.000000     0.008274    -1.130934
	  114 D(20,7,12,22)   =     -0.698908    -0.000000    -0.005106    -0.704014
	  115 D(21,8,12,22)   =     -0.644584    -0.000000    -0.009789    -0.654373
	 ---------------------------------------------------------------------------
	Successfully symmetrized geometry.
	 Forces used to impose fixed constraints are not included.
	  Forces zeroed: 66 

  ==> Convergence Check <==

  Measures of convergence in internal coordinates in au.
  Criteria marked as inactive (o), active & met (*), and active & unmet ( ).
  ---------------------------------------------------------------------------------------------
   Step     Total Energy     Delta E     MAX Force     RMS Force      MAX Disp      RMS Disp   
  ---------------------------------------------------------------------------------------------
    Convergence Criteria    1.00e-06 *    3.00e-04 *             o    1.20e-03 *             o
  ---------------------------------------------------------------------------------------------
      5    -554.10220987   -3.22e-06      9.07e-05 *    2.09e-05 o    1.06e-03 *    2.83e-04 o  ~
  ---------------------------------------------------------------------------------------------


  **** Optimization is complete! (in 5 steps) ****

  ==> Optimization Summary <==

  Measures of convergence in internal coordinates in au.
  --------------------------------------------------------------------------------------------------------------- ~
   Step         Total Energy             Delta E       MAX Force       RMS Force        MAX Disp        RMS Disp  ~
  --------------------------------------------------------------------------------------------------------------- ~
      1    -554.098350126951   -554.098350126951      0.01418715      0.00451686      0.03311381      0.00931109  ~
      2    -554.101427005141     -0.003076878190      0.00558794      0.00154447      0.02380004      0.00933204  ~
      3    -554.102140275284     -0.000713270143      0.00168319      0.00034480      0.02400337      0.00631467  ~
      4    -554.102206652391     -0.000066377107      0.00049088      0.00008120      0.00298254      0.00111760  ~
      5    -554.102209871608     -0.000003219217      0.00009069      0.00002091      0.00106364      0.00028318  ~
  --------------------------------------------------------------------------------------------------------------- ~

	Writing optimization data to binary file.
	Final energy is   -554.1022098716081
	Final (previous) structure:
	Cartesian Geometry (in Angstrom)
	    C    -1.2532749963   0.7266471637  -0.6182665489
	    C    -0.3544830739   0.1458219388   1.5368623717
	    C    -2.3512252553   1.2952089418  -0.0115835643
	    C    -1.4435515159   0.7309034796   2.1496107615
	    C     1.5867082222  -1.5457576212   0.0896831437
	    C     1.3711922292  -0.0269094870  -1.7408437234
	    C     2.6633159061  -2.1208219300  -0.5357137096
	    C     2.4493652372  -0.6244333809  -2.3420403489
	    C    -0.2358793205   0.1411047753   0.1440853077
	    C     0.9040942352  -0.4706425861  -0.4958921443
	    C    -2.4514039028   1.3057230917   1.3781610410
	    N     3.0647178289  -1.6489035024  -1.7279912762
	    O    -3.5439896369   1.8858105752   1.9011489748
	    H    -1.2117116988   0.7003433071  -1.6967793592
	    H     0.4305560235  -0.2650529313   2.1538216285
	    H    -3.1490067697   1.7286694888  -0.5936830146
	    H    -1.5106728789   0.7494439427   3.2276593943
	    H     1.2593290451  -1.9594161291   1.0292095119
	    H     0.9096548415   0.8123819818  -2.2344284940
	    H     3.2133153525  -2.9538538244  -0.1308117099
	    H     2.8515172430  -0.3124585503  -3.2914621753
	    H     3.8590231049  -2.0818247886  -2.1807709380
	    H    -3.5244297239   1.8396059772   2.8636477370
	Saving final (previous) structure.
			--------------------------
			 OPTKING Finished Execution 
			--------------------------

    Final optimized geometry and variables:
    Molecular point group: c1
    Full point group: C1

    Geometry (in Angstrom), charge = 1, multiplicity = 1:

    C           -1.253274996327     0.726647163679    -0.618266548941
    C           -0.354483073860     0.145821938824     1.536862371741
    C           -2.351225255258     1.295208941760    -0.011583564255
    C           -1.443551515915     0.730903479561     2.149610761531
    C            1.586708222173    -1.545757621205     0.089683143749
    C            1.371192229207    -0.026909487005    -1.740843723412
    C            2.663315906102    -2.120821929988    -0.535713709584
    C            2.449365237247    -0.624433380944    -2.342040348899
    C           -0.235879320514     0.141104775325     0.144085307677
    C            0.904094235235    -0.470642586064    -0.495892144333
    C           -2.451403902828     1.305723091693     1.378161041020
    N            3.064717828904    -1.648903502404    -1.727991276154
    O           -3.543989636938     1.885810575205     1.901148974778
    H           -1.211711698781     0.700343307119    -1.696779359224
    H            0.430556023532    -0.265052931301     2.153821628450
    H           -3.149006769663     1.728669488812    -0.593683014581
    H           -1.510672878894     0.749443942742     3.227659394305
    H            1.259329045144    -1.959416129090     1.029209511906
    H            0.909654841483     0.812381981797    -2.234428493966
    H            3.213315352510    -2.953853824363    -0.130811709948
    H            2.851517242954    -0.312458550255    -3.291462175315
    H            3.859023104917    -2.081824788624    -2.180770937967
    H           -3.524429723903     1.839605977186     2.863647736956

	Cleaning optimization helper files.

*** Psi4 exiting successfully. Buy a developer a beer!
